<event>
 9    1  0.8429841E-005  0.5369864E+03  0.7546771E-02  0.1004552E+00
         21   -1    0    0  501  502  0.00000000000E+00  0.00000000000E+00  0.38534992518E+03  0.38534992518E+03  0.00000000000E+00 0. -1.
          1   -1    0    0  502    0 -0.00000000000E+00 -0.00000000000E+00 -0.63745191951E+03  0.63745191951E+03  0.00000000000E+00 0. -1.
        -24    2    1    2    0    0  0.11033561111E+02  0.33583190439E+03 -0.13761486376E+03  0.37463216814E+03  0.92231248488E+02 0.  0.
         23    2    1    2    0    0  0.14091417899E+03  0.83594276963E+02 -0.65098680695E+02  0.19934269842E+03  0.93031522638E+02 0.  0.
         13    1    3    3    0    0  0.24320797043E+02  0.27881933885E+03 -0.76808974256E+02  0.29022636581E+03  0.00000000000E+00 0. -1.
        -14    1    3    3    0    0 -0.13287235932E+02  0.57012565543E+02 -0.60805889500E+02  0.84405802326E+02  0.00000000000E+00 0.  1.
        -11    1    4    4    0    0  0.96369132386E+02  0.95401742230E+02 -0.70686439185E+02  0.15292179302E+03  0.00000000000E+00 0. -1.
         11    1    4    4    0    0  0.44545046601E+02 -0.11807465267E+02  0.55877584895E+01  0.46420905394E+02  0.00000000000E+00 0.  1.
          2    1    1    2  501    0 -0.15194774010E+03 -0.41942618135E+03 -0.49388449882E+02  0.44882697814E+03  0.00000000000E+00 0. -1.
<scales pt_clust_5="13000.00000" pt_clust_6="13000.00000" pt_clust_7="13000.00000" pt_clust_8="13000.00000" pt_clust_9="446.10138"></scales>
<clustering>
<clus scale="   92.231">  5  6 -1 -1</clus>
<clus scale="   93.032">  7  8 -1 -1</clus>
<clus scale="  183.001">  5  7 -1 -1</clus>
<clus scale="  446.101">  1  9  2 -1</clus>
<clus scale="  446.101">  1  5  2 -1</clus>
</clustering>
</event>
<event>
 9    1  0.8429841E-005  0.1612645E+03  0.7546771E-02  0.1208072E+00
         21   -1    0    0  501  502  0.00000000000E+00  0.00000000000E+00  0.36013370464E+03  0.36013370464E+03  0.00000000000E+00 0. -1.
          1   -1    0    0  502    0 -0.00000000000E+00 -0.00000000000E+00 -0.17216274524E+03  0.17216274524E+03  0.00000000000E+00 0. -1.
        -24    2    1    2    0    0  0.49328839365E+02  0.44472080479E+02  0.41972542527E+02  0.11073130103E+03  0.78029650559E+02 0.  0.
         23    2    1    2    0    0  0.87565204237E+02 -0.12013720655E+02 -0.83384760154E+02  0.15247377739E+03  0.92104506334E+02 0.  0.
         11    1    3    3    0    0  0.33481693688E+02  0.49977453157E+02  0.60788878078E+02  0.85522262214E+02  0.00000000000E+00 0. -1.
        -12    1    3    3    0    0  0.15847145678E+02 -0.55053726784E+01 -0.18816335551E+02  0.25209038816E+02  0.00000000000E+00 0.  1.
        -11    1    4    4    0    0  0.80937666346E+02 -0.45864212763E+02 -0.57729666088E+02  0.10948582645E+03  0.00000000000E+00 0. -1.
         11    1    4    4    0    0  0.66275378918E+01  0.33850492108E+02 -0.25655094066E+02  0.42987950940E+02  0.00000000000E+00 0.  1.
          2    1    1    2  501    0 -0.13689404360E+03 -0.32458359824E+02  0.22938317703E+03  0.26909137147E+03  0.00000000000E+00 0. -1.
<scales pt_clust_5="13000.00000" pt_clust_6="13000.00000" pt_clust_7="13000.00000" pt_clust_8="13000.00000" pt_clust_9="132.37445"></scales>
<clustering>
<clus scale="   78.030">  5  6 -1 -1</clus>
<clus scale="   92.105">  7  8 -1 -1</clus>
<clus scale="  102.468">  2  5  1 -1</clus>
<clus scale="  132.374">  1  9  2 -1</clus>
<clus scale="  132.374">  1  5  2 -1</clus>
</clustering>
</event>
<event>
 9    1  0.8429841E-005  0.1046003E+03  0.7546771E-02  0.1275003E+00
          1   -1    0    0  502    0 -0.00000000000E+00  0.00000000000E+00  0.28261356099E+03  0.28261356099E+03  0.00000000000E+00 0. -1.
         21   -1    0    0  501  502  0.00000000000E+00 -0.00000000000E+00 -0.19924243434E+03  0.19924243434E+03  0.00000000000E+00 0. -1.
         23    2    1    2    0    0  0.41806349046E+02 -0.29233062483E+02  0.20503527993E+03  0.23007240485E+03  0.91057688815E+02 0.  0.
        -24    2    1    2    0    0 -0.24474939916E+02  0.53752993438E+02  0.23440087975E+02  0.10360516564E+03  0.81830224463E+02 0.  0.
         11    1    4    4    0    0 -0.24101670728E+02  0.68754360012E+01  0.45383770363E+02  0.51844467057E+02  0.00000000000E+00 0. -1.
        -12    1    4    4    0    0 -0.37326918824E+00  0.46877557436E+02 -0.21943682387E+02  0.51760698583E+02  0.00000000000E+00 0.  1.
        -11    1    3    3    0    0  0.15507076373E+02 -0.57839779256E+02  0.85538396164E+02  0.10441612280E+03  0.00000000000E+00 0.  1.
         11    1    3    3    0    0  0.26299272673E+02  0.28606716774E+02  0.11949688377E+03  0.12565628205E+03  0.00000000000E+00 0. -1.
          2    1    1    2  501    0 -0.17331409130E+02 -0.24519930955E+02 -0.14510424126E+03  0.14817842484E+03  0.00000000000E+00 0. -1.
<scales pt_clust_5="13000.00000" pt_clust_6="13000.00000" pt_clust_7="13000.00000" pt_clust_8="13000.00000" pt_clust_9="30.02673"></scales>
<clustering>
<clus scale="   30.027">  2  9  1 -1</clus>
<clus scale="   81.830">  5  6 -1 -1</clus>
<clus scale="   91.058">  7  8 -1 -1</clus>
<clus scale="   96.674">  2  5  1 -1</clus>
<clus scale="   30.027">  2  5  1 -1</clus>
</clustering>
</event>
<event>
 9    1  0.8429841E-005  0.1361343E+03  0.7546771E-02  0.1218929E+00
          1   -1    0    0  502    0 -0.00000000000E+00  0.00000000000E+00  0.19608759994E+03  0.19608759994E+03  0.00000000000E+00 0. -1.
         21   -1    0    0  501  502  0.00000000000E+00 -0.00000000000E+00 -0.24539257503E+03  0.24539257503E+03  0.00000000000E+00 0.  1.
        -24    2    1    2    0    0  0.73153511939E+02  0.72217576944E+02  0.96425805375E+02  0.16230375653E+03  0.80484524677E+02 0.  0.
         23    2    1    2    0    0 -0.51913801793E+02 -0.12498564995E+03 -0.46665397776E+02  0.16494181396E+03  0.81924887139E+02 0.  0.
         11    1    3    3    0    0  0.52057548451E+02  0.44045472134E+02  0.10580909233E+03  0.12587913245E+03  0.00000000000E+00 0. -1.
        -12    1    3    3    0    0  0.21095963489E+02  0.28172104810E+02 -0.93832869600E+01  0.36424624077E+02  0.00000000000E+00 0.  1.
        -13    1    4    4    0    0 -0.17849638329E+02 -0.10183143033E+03 -0.62507763939E+02  0.12081171443E+03  0.00000000000E+00 0.  1.
         13    1    4    4    0    0 -0.34064163465E+02 -0.23154219623E+02  0.15842366162E+02  0.44130099530E+02  0.00000000000E+00 0. -1.
          2    1    1    2  501    0 -0.21239710146E+02  0.52768073005E+02 -0.99065382684E+02  0.11423460449E+03  0.00000000000E+00 0. -1.
<scales pt_clust_5="13000.00000" pt_clust_6="13000.00000" pt_clust_7="13000.00000" pt_clust_8="13000.00000" pt_clust_9="56.88229"></scales>
<clustering>
<clus scale="   56.882">  2  9  1 -1</clus>
<clus scale="   80.485">  5  6 -1 -1</clus>
<clus scale="   81.925">  7  8 -1 -1</clus>
<clus scale="  135.272">  1  5  2 -1</clus>
<clus scale="   56.882">  2  5  1 -1</clus>
</clustering>
</event>
<event>
 9    1  0.8429841E-005  0.1049492E+03  0.7546771E-02  0.1280714E+00
         21   -1    0    0  501  502  0.00000000000E+00  0.00000000000E+00  0.35495273735E+02  0.35495273735E+02  0.00000000000E+00 0. -1.
          1   -1    0    0  502    0 -0.00000000000E+00 -0.00000000000E+00 -0.50479817533E+03  0.50479817533E+03  0.00000000000E+00 0. -1.
         23    2    1    2    0    0 -0.29545043836E+02  0.51245826593E+02 -0.37753773362E+03  0.39341647613E+03  0.93502615067E+02 0.  0.
        -24    2    1    2    0    0  0.19881833614E+02 -0.12985935715E+02 -0.60372048655E+02  0.96451534690E+02  0.71373611727E+02 0.  0.
         11    1    4    4    0    0 -0.11545162277E+02  0.23255032749E+02 -0.13009197295E+02  0.29040084958E+02  0.00000000000E+00 0. -1.
        -12    1    4    4    0    0  0.31426995891E+02 -0.36240968464E+02 -0.47362851360E+02  0.67411449731E+02  0.00000000000E+00 0.  1.
        -13    1    3    3    0    0  0.27035716448E+01  0.66930547030E+02 -0.30773456656E+03  0.31494058310E+03  0.00000000000E+00 0. -1.
         13    1    3    3    0    0 -0.32248615480E+02 -0.15684720437E+02 -0.69803167057E+02  0.78475893030E+02  0.00000000000E+00 0.  1.
          2    1    1    2  501    0  0.96632102213E+01 -0.38259890878E+02 -0.31393119320E+02  0.50425438247E+02  0.00000000000E+00 0. -1.
<scales pt_clust_5="13000.00000" pt_clust_6="13000.00000" pt_clust_7="13000.00000" pt_clust_8="13000.00000" pt_clust_9="39.46133"></scales>
<clustering>
<clus scale="   39.461">  1  9  2 -1</clus>
<clus scale="   71.374">  5  6 -1 -1</clus>
<clus scale="   85.824">  1  5  2 -1</clus>
<clus scale="   93.503">  7  8 -1 -1</clus>
<clus scale="   39.461">  1  5  2 -1</clus>
</clustering>
</event>
<event>
 9    1  0.1458652E-004  0.8870161E+02  0.7546771E-02  0.1308857E+00
         21   -1    0    0  501  502  0.00000000000E+00  0.00000000000E+00  0.63716260815E+03  0.63716260815E+03  0.00000000000E+00 0.  1.
          1   -1    0    0  502    0 -0.00000000000E+00 -0.00000000000E+00 -0.12824771051E+03  0.12824771051E+03  0.00000000000E+00 0. -1.
         23    2    1    2    0    0 -0.20960067606E+01  0.15386390777E+02 -0.10705937817E+03  0.13911905272E+03  0.87471515996E+02 0.  0.
        -24    2    1    2    0    0  0.13967146631E+02  0.10356759321E+02  0.44924298090E+03  0.45716717410E+03  0.82947124915E+02 0.  0.
         11    1    4    4    0    0 -0.31466432099E+02 -0.10362607369E+02  0.13649499113E+03  0.14045783205E+03  0.00000000000E+00 0. -1.
        -12    1    4    4    0    0  0.45433578730E+02  0.20719366690E+02  0.31274798978E+03  0.31670934205E+03  0.00000000000E+00 0.  1.
        -11    1    3    3    0    0 -0.40957011419E+02  0.23989216228E+02 -0.71044666435E+02  0.85441815925E+02  0.00000000000E+00 0. -1.
         11    1    3    3    0    0  0.38861004659E+02 -0.86028254503E+01 -0.36014711734E+02  0.53677236797E+02  0.00000000000E+00 0.  1.
          2    1    1    2  501    0 -0.11871139871E+02 -0.25743150099E+02  0.16673129490E+03  0.16912409184E+03  0.00000000000E+00 0. -1.
<scales pt_clust_5="13000.00000" pt_clust_6="13000.00000" pt_clust_7="13000.00000" pt_clust_8="13000.00000" pt_clust_9="28.34843"></scales>
<clustering>
<clus scale="   28.348">  1  9  2 -1</clus>
<clus scale="   82.947">  5  6 -1 -1</clus>
<clus scale="   84.243">  1  5  2 -1</clus>
<clus scale="   87.472">  7  8 -1 -1</clus>
<clus scale="   28.348">  1  5  2 -1</clus>
</clustering>
</event>
<event>
 9    1  0.8429841E-005  0.1148924E+03  0.7546771E-02  0.1256467E+00
         21   -1    0    0  501  502  0.00000000000E+00  0.00000000000E+00  0.11040694019E+03  0.11040694019E+03  0.00000000000E+00 0. -1.
          1   -1    0    0  502    0 -0.00000000000E+00 -0.00000000000E+00 -0.35116242636E+03  0.35116242636E+03  0.00000000000E+00 0. -1.
        -24    2    1    2    0    0  0.25173890858E+02 -0.56934257895E+02 -0.22117249369E+03  0.24351900031E+03  0.80678355485E+02 0.  0.
         23    2    1    2    0    0 -0.79265169002E+02  0.73272843272E+02  0.26313778131E+02  0.14525387390E+03  0.93564931390E+02 0.  0.
         11    1    3    3    0    0 -0.24276136923E+02 -0.34985017332E+01 -0.92295541781E+02  0.95498886752E+02  0.00000000000E+00 0. -1.
        -12    1    3    3    0    0  0.49450027781E+02 -0.53435756162E+02 -0.12887695191E+03  0.14802011356E+03  0.00000000000E+00 0.  1.
        -11    1    4    4    0    0 -0.34351688407E+02  0.71289840447E+02 -0.19040894744E+02  0.81393092581E+02  0.00000000000E+00 0. -1.
         11    1    4    4    0    0 -0.44913480595E+02  0.19830028256E+01  0.45354672875E+02  0.63860781322E+02  0.00000000000E+00 0.  1.
          2    1    1    2  501    0  0.54091278144E+02 -0.16338585377E+02 -0.45896770616E+02  0.72796492335E+02  0.00000000000E+00 0. -1.
<scales pt_clust_5="13000.00000" pt_clust_6="13000.00000" pt_clust_7="13000.00000" pt_clust_8="13000.00000" pt_clust_9="56.50503"></scales>
<clustering>
<clus scale="   56.505">  1  9  2 -1</clus>
<clus scale="   80.678">  5  6 -1 -1</clus>
<clus scale="   93.565">  7  8 -1 -1</clus>
<clus scale="  104.666">  2  5  1 -1</clus>
<clus scale="   56.505">  1  5  2 -1</clus>
</clustering>
</event>
<event>
 9    1  0.8429841E-005  0.2132903E+03  0.7546771E-02  0.1178827E+00
          1   -1    0    0  502    0 -0.00000000000E+00  0.00000000000E+00  0.63518013213E+02  0.63518013213E+02  0.00000000000E+00 0. -1.
         21   -1    0    0  501  502  0.00000000000E+00 -0.00000000000E+00 -0.96205204000E+03  0.96205204000E+03  0.00000000000E+00 0. -1.
        -24    2    1    2    0    0 -0.30053187630E+01 -0.23499491920E+02 -0.13340545269E+03  0.15775302426E+03  0.80794453985E+02 0.  0.
         23    2    1    2    0    0 -0.16925181952E+03  0.10183365596E+03 -0.36359777903E+03  0.42392994608E+03  0.92179077771E+02 0.  0.
         11    1    3    3    0    0  0.66204723100E+01 -0.50441413436E+02 -0.58262155822E+02  0.77347563918E+02  0.00000000000E+00 0. -1.
        -12    1    3    3    0    0 -0.96257910730E+01  0.26941921516E+02 -0.75143296866E+02  0.80405460341E+02  0.00000000000E+00 0.  1.
        -11    1    4    4    0    0 -0.26466424871E+02  0.41461988636E+02 -0.16390223265E+03  0.17112425315E+03  0.00000000000E+00 0.  1.
         11    1    4    4    0    0 -0.14278539464E+03  0.60371667328E+02 -0.19969554637E+03  0.25280569294E+03  0.00000000000E+00 0. -1.
          2    1    1    2  501    0  0.17225713828E+03 -0.78334164044E+02 -0.40153079507E+03  0.44388708287E+03  0.00000000000E+00 0. -1.
<scales pt_clust_5="13000.00000" pt_clust_6="13000.00000" pt_clust_7="13000.00000" pt_clust_8="13000.00000" pt_clust_9="192.34282"></scales>
<clustering>
<clus scale="   80.794">  5  6 -1 -1</clus>
<clus scale="   84.196">  1  5  2 -1</clus>
<clus scale="   92.179">  7  8 -1 -1</clus>
<clus scale="  192.343">  2  9  1 -1</clus>
<clus scale="  192.343">  2  5  1 -1</clus>
</clustering>
</event>
<event>
 9    1  0.8429841E-005  0.9212881E+02  0.7546771E-02  0.1304046E+00
         -4   -1    0    0    0  501 -0.00000000000E+00  0.00000000000E+00  0.78185856773E+02  0.78185856773E+02  0.00000000000E+00 0.  1.
         21   -1    0    0  501  502  0.00000000000E+00 -0.00000000000E+00 -0.15303338690E+03  0.15303338690E+03  0.00000000000E+00 0.  1.
        -24    2    1    2    0    0 -0.14960941768E+02  0.14687827415E+02 -0.33094888352E+00  0.83234585592E+02  0.80550137546E+02 0.  0.
         23    2    1    2    0    0 -0.63765617942E+01 -0.91589976261E+01 -0.83829813211E+02  0.12405573611E+03  0.90762549001E+02 0.  0.
         13    1    3    3    0    0  0.18757060241E+02  0.14704428081E+02 -0.30004649161E+02  0.38318748483E+02  0.00000000000E+00 0. -1.
        -14    1    3    3    0    0 -0.33718002008E+02 -0.16600665606E-01  0.29673700277E+02  0.44915837109E+02  0.00000000000E+00 0.  1.
        -13    1    4    4    0    0 -0.39021307709E+02 -0.26612694394E+02 -0.70195896991E+02  0.84607103204E+02  0.00000000000E+00 0.  1.
         13    1    4    4    0    0  0.32644745915E+02  0.17453696768E+02 -0.13633916220E+02  0.39448632907E+02  0.00000000000E+00 0. -1.
         -3    1    1    2    0  502  0.21337503562E+02 -0.55288297891E+01  0.93132319653E+01  0.23928921972E+02  0.00000000000E+00 0.  1.
<scales pt_clust_5="13000.00000" pt_clust_6="13000.00000" pt_clust_7="13000.00000" pt_clust_8="13000.00000" pt_clust_9="22.04218"></scales>
<clustering>
<clus scale="   22.042">  2  9  1 -1</clus>
<clus scale="   80.550">  5  6 -1 -1</clus>
<clus scale="   82.087">  1  5  2 -1</clus>
<clus scale="   90.763">  7  8 -1 -1</clus>
<clus scale="   22.042">  2  5  1 -1</clus>
</clustering>
</event>
<event>
 9    1  0.8429841E-005  0.9760236E+02  0.7546771E-02  0.1292065E+00
          1   -1    0    0  502    0 -0.00000000000E+00  0.00000000000E+00  0.43845913566E+03  0.43845913566E+03  0.00000000000E+00 0. -1.
         21   -1    0    0  501  502  0.00000000000E+00 -0.00000000000E+00 -0.42383988880E+02  0.42383988880E+02  0.00000000000E+00 0. -1.
        -24    2    1    2    0    0  0.41422724725E+02 -0.17402573787E+01  0.23105867880E+03  0.24765248297E+03  0.78897203055E+02 0.  0.
         23    2    1    2    0    0 -0.97405821107E+01 -0.48650465519E+02  0.11898226389E+03  0.15794350833E+03  0.91255827042E+02 0.  0.
         11    1    3    3    0    0  0.64294979002E+02  0.21924334507E+01  0.14724920405E+03  0.16068907612E+03  0.00000000000E+00 0. -1.
        -12    1    3    3    0    0 -0.22872254277E+02 -0.39326908295E+01  0.83809474752E+02  0.86963406851E+02  0.00000000000E+00 0.  1.
        -11    1    4    4    0    0  0.26818602882E+02 -0.39338586140E+02  0.10896121754E+03  0.11890882536E+03  0.00000000000E+00 0.  1.
         11    1    4    4    0    0 -0.36559184993E+02 -0.93118793788E+01  0.10021046347E+02  0.39034682973E+02  0.00000000000E+00 0. -1.
          2    1    1    2  501    0 -0.31682142614E+02  0.50390722898E+02  0.46034204083E+02  0.75247133237E+02  0.00000000000E+00 0. -1.
<scales pt_clust_5="13000.00000" pt_clust_6="13000.00000" pt_clust_7="13000.00000" pt_clust_8="13000.00000" pt_clust_9="59.52296"></scales>
<clustering>
<clus scale="   59.523">  2  9  1 -1</clus>
<clus scale="   78.897">  5  6 -1 -1</clus>
<clus scale="   86.159">  1  5  2 -1</clus>
<clus scale="   91.256">  7  8 -1 -1</clus>
<clus scale="   59.523">  2  5  1 -1</clus>
</clustering>
</event>
<event>
 9    1  0.8429841E-005  0.9394866E+02  0.7546771E-02  0.1297903E+00
          3   -1    0    0  502    0 -0.00000000000E+00  0.00000000000E+00  0.29977193558E+03  0.29977193558E+03  0.00000000000E+00 0. -1.
         21   -1    0    0  501  502  0.00000000000E+00 -0.00000000000E+00 -0.16710393432E+03  0.16710393432E+03  0.00000000000E+00 0. -1.
        -24    2    1    2    0    0  0.17666225069E+02 -0.26327725833E+02  0.24788415779E+03  0.26295249093E+03  0.81805941999E+02 0.  0.
         23    2    1    2    0    0  0.41777982288E+02  0.21355805672E+02 -0.41823853677E+02  0.10934661705E+03  0.89476129129E+02 0.  0.
         11    1    3    3    0    0  0.49485274356E+02 -0.15943414557E+02  0.17849744594E+03  0.18591482741E+03  0.00000000000E+00 0. -1.
        -12    1    3    3    0    0 -0.31819049287E+02 -0.10384311276E+02  0.69386711854E+02  0.77037663517E+02  0.00000000000E+00 0.  1.
        -13    1    4    4    0    0  0.57830047643E+01 -0.33796940964E+02 -0.21291001086E+02  0.40360662654E+02  0.00000000000E+00 0.  1.
         13    1    4    4    0    0  0.35994977524E+02  0.55152746636E+02 -0.20532852591E+02  0.68985954396E+02  0.00000000000E+00 0. -1.
          4    1    1    2  501    0 -0.59444207358E+02  0.49719201610E+01 -0.73392302851E+02  0.94576761925E+02  0.00000000000E+00 0. -1.
<scales pt_clust_5="13000.00000" pt_clust_6="13000.00000" pt_clust_7="13000.00000" pt_clust_8="13000.00000" pt_clust_9="59.65177"></scales>
<clustering>
<clus scale="   59.652">  2  9  1 -1</clus>
<clus scale="   81.806">  5  6 -1 -1</clus>
<clus scale="   86.675">  1  5  2 -1</clus>
<clus scale="   89.476">  7  8 -1 -1</clus>
<clus scale="   59.652">  2  5  1 -1</clus>
</clustering>
</event>
<event>
 9    1  0.8429841E-005  0.1476463E+03  0.7546771E-02  0.1227869E+00
         -2   -1    0    0    0  501 -0.00000000000E+00  0.00000000000E+00  0.41162140195E+03  0.41162140195E+03  0.00000000000E+00 0.  1.
         21   -1    0    0  501  502  0.00000000000E+00 -0.00000000000E+00 -0.18407601412E+03  0.18407601412E+03  0.00000000000E+00 0. -1.
        -24    2    1    2    0    0  0.30282061320E+02  0.48212451828E+01  0.29248817262E+03  0.30543398662E+03  0.82464182606E+02 0.  0.
         23    2    1    2    0    0 -0.10182233464E+03 -0.75007080001E+02 -0.98755521751E+02  0.18449309667E+03  0.91056025394E+02 0.  0.
         13    1    3    3    0    0  0.22055794675E+02 -0.68482327222E+01  0.14911065099E+02  0.27489929657E+02  0.00000000000E+00 0. -1.
        -14    1    3    3    0    0  0.82262666449E+01  0.11669477905E+02  0.27757710752E+03  0.27794405696E+03  0.00000000000E+00 0.  1.
        -13    1    4    4    0    0 -0.81598671188E+02 -0.22656845873E+02 -0.18699893521E+02  0.86725785222E+02  0.00000000000E+00 0. -1.
         13    1    4    4    0    0 -0.20223663456E+02 -0.52350234128E+02 -0.80055628230E+02  0.97767311450E+02  0.00000000000E+00 0.  1.
         -1    1    1    2    0  502  0.71540273324E+02  0.70185834818E+02  0.33812736960E+02  0.10577033278E+03  0.00000000000E+00 0.  1.
<scales pt_clust_5="13000.00000" pt_clust_6="13000.00000" pt_clust_7="13000.00000" pt_clust_8="13000.00000" pt_clust_9="116.22500"></scales>
<clustering>
<clus scale="   82.464">  5  6 -1 -1</clus>
<clus scale="   87.981">  1  5  2 -1</clus>
<clus scale="   91.056">  7  8 -1 -1</clus>
<clus scale="  116.225">  2  9  1 -1</clus>
<clus scale="  116.225">  2  5  1 -1</clus>
</clustering>
</event>
<event>
 9    1  0.8429841E-005  0.9945855E+02  0.7546771E-02  0.1289452E+00
         -2   -1    0    0    0  501 -0.00000000000E+00  0.00000000000E+00  0.85314835910E+02  0.85314835910E+02  0.00000000000E+00 0.  1.
         21   -1    0    0  501  502  0.00000000000E+00 -0.00000000000E+00 -0.25150781017E+03  0.25150781017E+03  0.00000000000E+00 0.  1.
        -24    2    1    2    0    0  0.14806362323E+01 -0.37389093703E+02  0.22192182755E+02  0.91446995902E+02  0.80435834505E+02 0.  0.
         23    2    1    2    0    0  0.31724448920E+02 -0.13966234896E+01 -0.91044388161E+02  0.13545688554E+03  0.95137248270E+02 0.  0.
         13    1    3    3    0    0 -0.12661098606E+02  0.16200520375E+02 -0.14338379091E+02  0.25066898358E+02  0.00000000000E+00 0. -1.
        -14    1    3    3    0    0  0.14141734838E+02 -0.53589614078E+02  0.36530561846E+02  0.66380097544E+02  0.00000000000E+00 0.  1.
        -13    1    4    4    0    0  0.63708446088E+02  0.40288191694E+01 -0.77229984764E+02  0.10019714584E+03  0.00000000000E+00 0.  1.
         13    1    4    4    0    0 -0.31983997168E+02 -0.54254426590E+01 -0.13814403397E+02  0.35259739706E+02  0.00000000000E+00 0. -1.
         -1    1    1    2    0  502 -0.33205085152E+02  0.38785717193E+02 -0.97340768851E+02  0.10991876463E+03  0.00000000000E+00 0.  1.
<scales pt_clust_5="13000.00000" pt_clust_6="13000.00000" pt_clust_7="13000.00000" pt_clust_8="13000.00000" pt_clust_9="51.05790"></scales>
<clustering>
<clus scale="   51.058">  2  9  1 -1</clus>
<clus scale="   80.436">  5  6 -1 -1</clus>
<clus scale="   85.503">  1  5  2 -1</clus>
<clus scale="   95.137">  7  8 -1 -1</clus>
<clus scale="   51.058">  2  5  1 -1</clus>
</clustering>
</event>
<event>
 9    1  0.8429841E-005  0.3107139E+03  0.7546771E-02  0.1080483E+00
         21   -1    0    0  501  502  0.00000000000E+00  0.00000000000E+00  0.25310201848E+03  0.25310201848E+03  0.00000000000E+00 0.  1.
          1   -1    0    0  502    0 -0.00000000000E+00 -0.00000000000E+00 -0.11409719003E+04  0.11409719003E+04  0.00000000000E+00 0. -1.
         23    2    1    2    0    0  0.27844509548E+03 -0.73720497435E+02 -0.71077438711E+03  0.77268260625E+03  0.94190220766E+02 0.  0.
        -24    2    1    2    0    0 -0.31854156994E+03  0.16421698047E+03  0.52889246536E+02  0.37101095805E+03  0.80099376696E+02 0.  0.
         13    1    4    4    0    0 -0.17126340635E+03  0.11274752264E+03 -0.36290370829E+01  0.20507639583E+03  0.00000000000E+00 0. -1.
        -14    1    4    4    0    0 -0.14727816358E+03  0.51469457828E+02  0.56518283619E+02  0.16593456222E+03  0.00000000000E+00 0.  1.
        -11    1    3    3    0    0  0.22345579330E+03 -0.78237448846E+02 -0.47750810806E+03  0.53297990883E+03  0.00000000000E+00 0. -1.
         11    1    3    3    0    0  0.54989302182E+02  0.45169514106E+01 -0.23326627906E+03  0.23970269742E+03  0.00000000000E+00 0.  1.
          2    1    1    2  501    0  0.40096474457E+02 -0.90496483030E+02 -0.22998474128E+03  0.25038035451E+03  0.00000000000E+00 0. -1.
<scales pt_clust_5="13000.00000" pt_clust_6="13000.00000" pt_clust_7="13000.00000" pt_clust_8="13000.00000" pt_clust_9="98.98157"></scales>
<clustering>
<clus scale="   80.099">  5  6 -1 -1</clus>
<clus scale="   94.190">  7  8 -1 -1</clus>
<clus scale="   98.982">  1  9  2 -1</clus>
<clus scale="  306.736">  1  5  2 -1</clus>
<clus scale="   98.982">  1  5  2 -1</clus>
</clustering>
</event>
<event>
 9    1  0.8429841E-005  0.1499887E+03  0.7546771E-02  0.1217879E+00
          1   -1    0    0  502    0 -0.00000000000E+00  0.00000000000E+00  0.48464209863E+03  0.48464209863E+03  0.00000000000E+00 0. -1.
         21   -1    0    0  501  502  0.00000000000E+00 -0.00000000000E+00 -0.13243119182E+03  0.13243119182E+03  0.00000000000E+00 0. -1.
        -24    2    1    2    0    0  0.38933541121E+02 -0.56935291436E+02 -0.11329626854E+02  0.10402322636E+03  0.77039101391E+02 0.  0.
         23    2    1    2    0    0 -0.11919954581E+02 -0.73721645196E+02  0.36241999608E+03  0.37962508685E+03  0.84793789394E+02 0.  0.
         13    1    3    3    0    0  0.51161129639E+02 -0.66592616828E+02  0.12685037183E+01  0.83985992306E+02  0.00000000000E+00 0. -1.
        -14    1    3    3    0    0 -0.12227588518E+02  0.96573253924E+01 -0.12598130572E+02  0.20037234056E+02  0.00000000000E+00 0.  1.
        -11    1    4    4    0    0  0.31700859842E+02 -0.38283826099E+02  0.23748816218E+03  0.24263392803E+03  0.00000000000E+00 0. -1.
         11    1    4    4    0    0 -0.43620814423E+02 -0.35437819097E+02  0.12493183390E+03  0.13699115882E+03  0.00000000000E+00 0.  1.
          2    1    1    2  501    0 -0.27013586540E+02  0.13065693663E+03  0.11205375937E+01  0.13342497724E+03  0.00000000000E+00 0. -1.
<scales pt_clust_5="13000.00000" pt_clust_6="13000.00000" pt_clust_7="13000.00000" pt_clust_8="13000.00000" pt_clust_9="123.71988"></scales>
<clustering>
<clus scale="   77.039">  5  6 -1 -1</clus>
<clus scale="   84.794">  7  8 -1 -1</clus>
<clus scale="  103.404">  1  5  2 -1</clus>
<clus scale="  123.720">  2  9  1 -1</clus>
<clus scale="  123.720">  2  5  1 -1</clus>
</clustering>
</event>
<event>
 9    1  0.8429841E-005  0.1601362E+03  0.7546771E-02  0.1190520E+00
         -4   -1    0    0    0  501 -0.00000000000E+00  0.00000000000E+00  0.97419152995E+02  0.97419152995E+02  0.00000000000E+00 0.  1.
         21   -1    0    0  501  502  0.00000000000E+00 -0.00000000000E+00 -0.37344577567E+03  0.37344577567E+03  0.00000000000E+00 0. -1.
         23    2    1    2    0    0 -0.14040511721E+03 -0.15138121698E+02 -0.36976462623E+02  0.17286711506E+03  0.92590609752E+02 0.  0.
        -24    2    1    2    0    0  0.11280814504E+03 -0.58327889730E+01 -0.15965539103E+03  0.21136698008E+03  0.80165188017E+02 0.  0.
         13    1    4    4    0    0  0.22574397864E+02 -0.17866836555E+02 -0.96161512382E+02  0.10037860206E+03  0.00000000000E+00 0. -1.
        -14    1    4    4    0    0  0.90233747180E+02  0.12034047582E+02 -0.63493878644E+02  0.11098837802E+03  0.00000000000E+00 0.  1.
        -13    1    3    3    0    0 -0.63193802311E+02 -0.44130006923E+02 -0.46224050916E+02  0.89875341694E+02  0.00000000000E+00 0. -1.
         13    1    3    3    0    0 -0.77211314903E+02  0.28991885225E+02  0.92475882937E+01  0.82991773370E+02  0.00000000000E+00 0.  1.
         -3    1    1    2    0  502  0.27596972170E+02  0.20970910671E+02 -0.79394769032E+02  0.86630833523E+02  0.00000000000E+00 0.  1.
<scales pt_clust_5="13000.00000" pt_clust_6="13000.00000" pt_clust_7="13000.00000" pt_clust_8="13000.00000" pt_clust_9="34.66081"></scales>
<clustering>
<clus scale="   34.661">  2  9  1 -1</clus>
<clus scale="   80.165">  5  6 -1 -1</clus>
<clus scale="   92.591">  7  8 -1 -1</clus>
<clus scale="  153.287">  2  5  1 -1</clus>
<clus scale="   34.661">  2  5  1 -1</clus>
</clustering>
</event>
<event>
 9    1  0.8429841E-005  0.1921998E+03  0.7546771E-02  0.1171886E+00
         21   -1    0    0  501  502  0.00000000000E+00  0.00000000000E+00  0.59948124554E+03  0.59948124554E+03  0.00000000000E+00 0.  1.
          3   -1    0    0  502    0 -0.00000000000E+00 -0.00000000000E+00 -0.16113442676E+03  0.16113442676E+03  0.00000000000E+00 0. -1.
         23    2    1    2    0    0 -0.83253881514E+02 -0.51892313023E+02  0.27535138918E+03  0.30651841632E+03  0.92255791592E+02 0.  0.
        -24    2    1    2    0    0 -0.14624096337E+03 -0.20608866901E+02  0.12615786072E+03  0.21061971820E+03  0.81447621873E+02 0.  0.
         11    1    4    4    0    0 -0.52455890550E+02 -0.47471049172E+02  0.59795721356E+02  0.92631793977E+02  0.00000000000E+00 0. -1.
        -12    1    4    4    0    0 -0.93785072823E+02  0.26862182272E+02  0.66362139366E+02  0.11798792422E+03  0.00000000000E+00 0.  1.
        -11    1    3    3    0    0 -0.22626770833E+02 -0.46211885676E+02  0.21392132022E+03  0.22002236337E+03  0.00000000000E+00 0.  1.
         11    1    3    3    0    0 -0.60627110680E+02 -0.56804273473E+01  0.61430068957E+02  0.86496052953E+02  0.00000000000E+00 0. -1.
          4    1    1    2  501    0  0.22949484489E+03  0.72501179923E+02  0.36837568873E+02  0.24347753777E+03  0.00000000000E+00 0. -1.
<scales pt_clust_5="13000.00000" pt_clust_6="13000.00000" pt_clust_7="13000.00000" pt_clust_8="13000.00000" pt_clust_9="174.08926"></scales>
<clustering>
<clus scale="   81.448">  5  6 -1 -1</clus>
<clus scale="   92.256">  7  8 -1 -1</clus>
<clus scale="  134.667">  2  7  1 -1</clus>
<clus scale="  174.089">  1  9  2 -1</clus>
<clus scale="  174.089">  1  5  2 -1</clus>
</clustering>
</event>
<event>
 9    1  0.8429841E-005  0.1115367E+03  0.7546771E-02  0.1260097E+00
          1   -1    0    0  502    0 -0.00000000000E+00  0.00000000000E+00  0.98007709307E+03  0.98007709307E+03  0.00000000000E+00 0. -1.
         21   -1    0    0  501  502  0.00000000000E+00 -0.00000000000E+00 -0.40973618828E+02  0.40973618828E+02  0.00000000000E+00 0. -1.
        -24    2    1    2    0    0 -0.42603739801E+02 -0.38633754376E+02  0.58230733301E+03  0.59117347746E+03  0.84241348229E+02 0.  0.
         23    2    1    2    0    0  0.59110961607E+02  0.56403066293E+02  0.37829686438E+03  0.39746554036E+03  0.90525833333E+02 0.  0.
         11    1    3    3    0    0 -0.62577921726E+02 -0.36491292715E+02  0.31995087133E+03  0.32804903719E+03  0.00000000000E+00 0. -1.
        -12    1    3    3    0    0  0.19974181925E+02 -0.21424616615E+01  0.26235646168E+03  0.26312444027E+03  0.00000000000E+00 0.  1.
        -11    1    4    4    0    0  0.15748836153E+02  0.12750144657E+02  0.75128390677E+01  0.21610987478E+02  0.00000000000E+00 0.  1.
         11    1    4    4    0    0  0.43362125454E+02  0.43652921637E+02  0.37078402531E+03  0.37585455288E+03  0.00000000000E+00 0. -1.
          2    1    1    2  501    0 -0.16507221806E+02 -0.17769311917E+02 -0.21500723146E+02  0.32411694087E+02  0.00000000000E+00 0. -1.
<scales pt_clust_5="13000.00000" pt_clust_6="13000.00000" pt_clust_7="13000.00000" pt_clust_8="13000.00000" pt_clust_9="24.25359"></scales>
<clustering>
<clus scale="   24.254">  2  9  1 -1</clus>
<clus scale="   84.241">  5  6 -1 -1</clus>
<clus scale="   90.526">  7  8 -1 -1</clus>
<clus scale="  106.499">  1  5  2 -1</clus>
<clus scale="   24.254">  2  5  1 -1</clus>
</clustering>
</event>
<event>
 9    1  0.8429841E-005  0.3741206E+03  0.7546771E-02  0.1064326E+00
         21   -1    0    0  501  502  0.00000000000E+00  0.00000000000E+00  0.22635920186E+03  0.22635920186E+03  0.00000000000E+00 0. -1.
          1   -1    0    0  502    0 -0.00000000000E+00 -0.00000000000E+00 -0.12292400055E+04  0.12292400055E+04  0.00000000000E+00 0. -1.
        -24    2    1    2    0    0 -0.26026174126E+03 -0.16486395011E+02 -0.25230716364E+03  0.37192702380E+03  0.81626166293E+02 0.  0.
         23    2    1    2    0    0 -0.16985322425E+03  0.21034495894E+03 -0.41912302616E+03  0.50709648533E+03  0.91583922366E+02 0.  0.
         13    1    3    3    0    0 -0.46572714007E+02 -0.17587378491E+02 -0.92653719440E+02  0.10518101206E+03  0.00000000000E+00 0. -1.
        -14    1    3    3    0    0 -0.21368902726E+03  0.11009834803E+01 -0.15965344420E+03  0.26674601174E+03  0.00000000000E+00 0.  1.
        -13    1    4    4    0    0 -0.96919962363E+02  0.58095788032E+02 -0.20867097822E+03  0.23730186860E+03  0.00000000000E+00 0. -1.
         13    1    4    4    0    0 -0.72933261890E+02  0.15224917091E+03 -0.21045204794E+03  0.26979461673E+03  0.00000000000E+00 0.  1.
          2    1    1    2  501    0  0.43011496552E+03 -0.19385856393E+03 -0.33145061386E+03  0.57657569824E+03  0.00000000000E+00 0. -1.
<scales pt_clust_5="13000.00000" pt_clust_6="13000.00000" pt_clust_7="13000.00000" pt_clust_8="13000.00000" pt_clust_9="362.73782"></scales>
<clustering>
<clus scale="   81.626">  5  6 -1 -1</clus>
<clus scale="   91.584">  7  8 -1 -1</clus>
<clus scale="  273.260">  2  5  1 -1</clus>
<clus scale="  362.738">  1  9  2 -1</clus>
<clus scale="  362.738">  1  5  2 -1</clus>
</clustering>
</event>
<event>
 9    1  0.8429841E-005  0.1429920E+03  0.7546771E-02  0.1223084E+00
         21   -1    0    0  501  502  0.00000000000E+00  0.00000000000E+00  0.72345137417E+02  0.72345137417E+02  0.00000000000E+00 0. -1.
          1   -1    0    0  502    0 -0.00000000000E+00 -0.00000000000E+00 -0.79194031559E+03  0.79194031559E+03  0.00000000000E+00 0. -1.
        -24    2    1    2    0    0  0.52458576542E+02  0.45490102664E+02 -0.30560646596E+03  0.32379436735E+03  0.81401649834E+02 0.  0.
         23    2    1    2    0    0  0.10000589893E+03 -0.52136867578E+01 -0.50171499155E+02  0.14396798359E+03  0.90450199674E+02 0.  0.
         13    1    3    3    0    0  0.56337950457E+02 -0.11650602635E+01 -0.20867277537E+03  0.21614728591E+03  0.00000000000E+00 0. -1.
        -14    1    3    3    0    0 -0.38793739154E+01  0.46655162927E+02 -0.96933690595E+02  0.10764708144E+03  0.00000000000E+00 0.  1.
        -13    1    4    4    0    0  0.54660897377E+02 -0.37311102284E+02 -0.57829289677E+02  0.87887193607E+02  0.00000000000E+00 0.  1.
         13    1    4    4    0    0  0.45345001552E+02  0.32097415526E+02  0.76577905220E+01  0.56080789981E+02  0.00000000000E+00 0. -1.
          2    1    1    2  501    0 -0.15246447547E+03 -0.40276415906E+02 -0.36381721306E+03  0.39652310207E+03  0.00000000000E+00 0. -1.
<scales pt_clust_5="13000.00000" pt_clust_6="13000.00000" pt_clust_7="13000.00000" pt_clust_8="13000.00000" pt_clust_9="110.74961"></scales>
<clustering>
<clus scale="   81.402">  5  6 -1 -1</clus>
<clus scale="   90.450">  7  8 -1 -1</clus>
<clus scale="  106.993">  2  5  1 -1</clus>
<clus scale="  110.750">  1  9  2 -1</clus>
<clus scale="  110.750">  1  5  2 -1</clus>
</clustering>
</event>
<event>
 9    1  0.8429841E-005  0.1844787E+03  0.7546771E-02  0.1164785E+00
          1   -1    0    0  502    0 -0.00000000000E+00  0.00000000000E+00  0.74085044088E+03  0.74085044088E+03  0.00000000000E+00 0. -1.
         21   -1    0    0  501  502  0.00000000000E+00 -0.00000000000E+00 -0.25100521405E+03  0.25100521405E+03  0.00000000000E+00 0. -1.
         23    2    1    2    0    0  0.17317683281E+03 -0.43881606608E+01  0.22077943248E+03  0.29514025330E+03  0.91404266510E+02 0.  0.
        -24    2    1    2    0    0 -0.85078110754E+02 -0.13453544945E+03 -0.15852527189E+03  0.23857211159E+03  0.80301422852E+02 0.  0.
         11    1    4    4    0    0 -0.69551840351E+02 -0.85118654587E+02 -0.15017436601E+03  0.18610476636E+03  0.00000000000E+00 0. -1.
        -12    1    4    4    0    0 -0.15526270403E+02 -0.49416794859E+02 -0.83509058877E+01  0.52467345234E+02  0.00000000000E+00 0.  1.
        -13    1    3    3    0    0  0.41391643399E+02  0.30827647092E+02  0.10179083716E+03  0.11412706295E+03  0.00000000000E+00 0.  1.
         13    1    3    3    0    0  0.13178518941E+03 -0.35215807753E+02  0.11898859532E+03  0.18101319035E+03  0.00000000000E+00 0. -1.
          2    1    1    2  501    0 -0.88098722055E+02  0.13892361011E+03  0.42759106625E+03  0.45814329004E+03  0.00000000000E+00 0. -1.
<scales pt_clust_5="13000.00000" pt_clust_6="13000.00000" pt_clust_7="13000.00000" pt_clust_8="13000.00000" pt_clust_9="164.50283"></scales>
<clustering>
<clus scale="   80.301">  5  6 -1 -1</clus>
<clus scale="   91.404">  7  8 -1 -1</clus>
<clus scale="  164.503">  2  9  1 -1</clus>
<clus scale="  179.237">  2  5  1 -1</clus>
<clus scale="  164.503">  2  5  1 -1</clus>
</clustering>
</event>
<event>
 9    1  0.8429841E-005  0.9335522E+02  0.7546771E-02  0.1300519E+00
          1   -1    0    0  502    0 -0.00000000000E+00  0.00000000000E+00  0.47738116893E+02  0.47738116893E+02  0.00000000000E+00 0. -1.
         21   -1    0    0  501  502  0.00000000000E+00 -0.00000000000E+00 -0.53258436875E+03  0.53258436875E+03  0.00000000000E+00 0. -1.
         23    2    1    2    0    0  0.13614783877E+02  0.14090364699E+01 -0.20690869458E+02  0.95003953399E+02  0.91707640678E+02 0.  0.
        -24    2    1    2    0    0 -0.30973663955E+02 -0.41018979596E+02 -0.35118141082E+03  0.36434995547E+03  0.82344290645E+02 0.  0.
         11    1    4    4    0    0 -0.18971865905E+02 -0.63433127005E+02 -0.29977597905E+03  0.30700053895E+03  0.00000000000E+00 0. -1.
        -12    1    4    4    0    0 -0.12001798050E+02  0.22414147409E+02 -0.51405431761E+02  0.57349416519E+02  0.00000000000E+00 0.  1.
        -13    1    3    3    0    0  0.29552708446E+02  0.35831719473E+02 -0.30819680934E+02  0.55741613089E+02  0.00000000000E+00 0.  1.
         13    1    3    3    0    0 -0.15937924569E+02 -0.34422683003E+02  0.10128811476E+02  0.39262340310E+02  0.00000000000E+00 0. -1.
          2    1    1    2  501    0  0.17358880078E+02  0.39609943126E+02 -0.11297397158E+03  0.12096857678E+03  0.00000000000E+00 0. -1.
<scales pt_clust_5="13000.00000" pt_clust_6="13000.00000" pt_clust_7="13000.00000" pt_clust_8="13000.00000" pt_clust_9="43.24671"></scales>
<clustering>
<clus scale="   43.247">  2  9  1 -1</clus>
<clus scale="   82.344">  5  6 -1 -1</clus>
<clus scale="   84.175">  2  5  1 -1</clus>
<clus scale="   91.708">  7  8 -1 -1</clus>
<clus scale="   43.247">  2  5  1 -1</clus>
</clustering>
</event>
<event>
 9    1  0.8429841E-005  0.1321734E+03  0.7546771E-02  0.1226810E+00
          1   -1    0    0  502    0 -0.00000000000E+00  0.00000000000E+00  0.69190863589E+02  0.69190863589E+02  0.00000000000E+00 0. -1.
         21   -1    0    0  501  502  0.00000000000E+00 -0.00000000000E+00 -0.51678275428E+03  0.51678275428E+03  0.00000000000E+00 0. -1.
         23    2    1    2    0    0  0.39893485651E+02  0.92025084157E+02 -0.45285244516E+02  0.14302830042E+03  0.91357731145E+02 0.  0.
        -24    2    1    2    0    0 -0.44179350860E+01 -0.79571461040E+02 -0.38518070438E+03  0.40163060700E+03  0.81190109558E+02 0.  0.
         13    1    4    4    0    0 -0.38324437299E+02 -0.55159090847E+02 -0.29012128921E+03  0.29779464443E+03  0.00000000000E+00 0. -1.
        -14    1    4    4    0    0  0.33906502213E+02 -0.24412370193E+02 -0.95059415173E+02  0.10383596257E+03  0.00000000000E+00 0.  1.
        -13    1    3    3    0    0  0.23104899087E+02  0.10912459652E+03 -0.39915687954E+02  0.11847057049E+03  0.00000000000E+00 0. -1.
         13    1    3    3    0    0  0.16788586564E+02 -0.17099512363E+02 -0.53695565626E+01  0.24557729935E+02  0.00000000000E+00 0.  1.
          2    1    1    2  501    0 -0.35475550565E+02 -0.12453623117E+02 -0.17125941792E+02  0.41314710442E+02  0.00000000000E+00 0. -1.
<scales pt_clust_5="13000.00000" pt_clust_6="13000.00000" pt_clust_7="13000.00000" pt_clust_8="13000.00000" pt_clust_9="37.59799"></scales>
<clustering>
<clus scale="   37.598">  2  9  1 -1</clus>
<clus scale="   81.190">  5  6 -1 -1</clus>
<clus scale="   91.358">  7  8 -1 -1</clus>
<clus scale="  125.361">  2  5  1 -1</clus>
<clus scale="   37.598">  2  5  1 -1</clus>
</clustering>
</event>
<event>
 9    1  0.8429841E-005  0.1047814E+03  0.7546771E-02  0.1275272E+00
         21   -1    0    0  501  502  0.00000000000E+00  0.00000000000E+00  0.12134070974E+02  0.12134070974E+02  0.00000000000E+00 0. -1.
         -4   -1    0    0    0  501 -0.00000000000E+00 -0.00000000000E+00 -0.12812414773E+04  0.12812414773E+04  0.00000000000E+00 0.  1.
        -24    2    1    2    0    0 -0.60284437828E+02 -0.27843699909E+01 -0.67026654277E+03  0.67793832911E+03  0.81860696036E+02 0.  0.
         23    2    1    2    0    0  0.29411371044E+02 -0.17793978207E+02 -0.34127785187E+03  0.35521554510E+03  0.92335566784E+02 0.  0.
         13    1    3    3    0    0  0.18766050070E+02 -0.86462922589E+01 -0.93893964561E+02  0.96140520001E+02  0.00000000000E+00 0. -1.
        -14    1    3    3    0    0 -0.79050487898E+02  0.58619222680E+01 -0.57637257821E+03  0.58179780911E+03  0.00000000000E+00 0.  1.
        -13    1    4    4    0    0  0.37933238956E+02 -0.46786509944E+02 -0.28543218220E+03  0.29171808097E+03  0.00000000000E+00 0.  1.
         13    1    4    4    0    0 -0.85218679115E+01  0.28992531737E+02 -0.55845669671E+02  0.63497464125E+02  0.00000000000E+00 0. -1.
         -3    1    1    2    0  502  0.30873066784E+02  0.20578348198E+02 -0.25756301164E+03  0.26022167402E+03  0.00000000000E+00 0.  1.
<scales pt_clust_5="13000.00000" pt_clust_6="13000.00000" pt_clust_7="13000.00000" pt_clust_8="13000.00000" pt_clust_9="37.10278"></scales>
<clustering>
<clus scale="   37.103">  1  9  2 -1</clus>
<clus scale="   81.861">  5  6 -1 -1</clus>
<clus scale="   92.336">  7  8 -1 -1</clus>
<clus scale="   95.679">  2  5  1 -1</clus>
<clus scale="   37.103">  1  5  2 -1</clus>
</clustering>
</event>
<event>
 9    1  0.8429841E-005  0.1293701E+03  0.7546771E-02  0.1231600E+00
         21   -1    0    0  501  502  0.00000000000E+00  0.00000000000E+00  0.47463191695E+03  0.47463191695E+03  0.00000000000E+00 0.  1.
          1   -1    0    0  502    0 -0.00000000000E+00 -0.00000000000E+00 -0.19797141458E+03  0.19797141458E+03  0.00000000000E+00 0. -1.
         23    2    1    2    0    0 -0.81297304612E+02 -0.29978427282E+02 -0.13145630105E+03  0.18141806264E+03  0.90132105963E+02 0.  0.
        -24    2    1    2    0    0 -0.15833150826E+02  0.20688592852E+02  0.37328196099E+03  0.38757980260E+03  0.10099492287E+03 0.  0.
         13    1    4    4    0    0 -0.56253833232E+02 -0.48843710500E+01  0.20386422105E+03  0.21153952694E+03  0.00000000000E+00 0. -1.
        -14    1    4    4    0    0  0.40420682406E+02  0.25572963902E+02  0.16941773994E+03  0.17604027566E+03  0.00000000000E+00 0.  1.
        -13    1    3    3    0    0  0.51179421887E+01 -0.33450089756E+02 -0.16739810523E+02  0.37753451409E+02  0.00000000000E+00 0.  1.
         13    1    3    3    0    0 -0.86415246801E+02  0.34716624748E+01 -0.11471649053E+03  0.14366461123E+03  0.00000000000E+00 0. -1.
          2    1    1    2  501    0  0.97130455438E+02  0.92898344298E+01  0.34834842441E+02  0.10360546629E+03  0.00000000000E+00 0. -1.
<scales pt_clust_5="13000.00000" pt_clust_6="13000.00000" pt_clust_7="13000.00000" pt_clust_8="13000.00000" pt_clust_9="97.57375"></scales>
<clustering>
<clus scale="   90.132">  7  8 -1 -1</clus>
<clus scale="   97.574">  1  9  2 -1</clus>
<clus scale="  100.995">  5  6 -1 -1</clus>
<clus scale="  121.080">  2  7  1 -1</clus>
<clus scale="   97.574">  1  5  2 -1</clus>
</clustering>
</event>
<event>
 9    1  0.8429841E-005  0.1804805E+03  0.7546771E-02  0.1200226E+00
         21   -1    0    0  501  502  0.00000000000E+00  0.00000000000E+00  0.18585921303E+03  0.18585921303E+03  0.00000000000E+00 0.  1.
          1   -1    0    0  502    0 -0.00000000000E+00 -0.00000000000E+00 -0.24349729176E+03  0.24349729176E+03  0.00000000000E+00 0. -1.
        -24    2    1    2    0    0  0.27593253463E+02  0.25847517027E+01  0.15326308574E+01  0.86589945264E+02  0.82020735704E+02 0.  0.
         23    2    1    2    0    0  0.13063792894E+03  0.55007636959E+02 -0.42234350951E+02  0.17353053925E+03  0.90757914534E+02 0.  0.
         11    1    3    3    0    0 -0.26999178635E+02 -0.97586615528E+01 -0.80252512507E+01  0.29809256614E+02  0.00000000000E+00 0. -1.
        -12    1    3    3    0    0  0.54592432097E+02  0.12343413255E+02  0.95578821080E+01  0.56780688649E+02  0.00000000000E+00 0.  1.
        -13    1    4    4    0    0  0.61036282469E+02 -0.21657841292E+02 -0.16020205496E+02  0.66716840836E+02  0.00000000000E+00 0.  1.
         13    1    4    4    0    0  0.69601646474E+02  0.76665478251E+02 -0.26214145455E+02  0.10681369842E+03  0.00000000000E+00 0. -1.
          2    1    1    2  501    0 -0.15823118241E+03 -0.57592388662E+02 -0.16936358637E+02  0.16923602028E+03  0.00000000000E+00 0. -1.
<scales pt_clust_5="13000.00000" pt_clust_6="13000.00000" pt_clust_7="13000.00000" pt_clust_8="13000.00000" pt_clust_9="156.00068"></scales>
<clustering>
<clus scale="   82.021">  5  6 -1 -1</clus>
<clus scale="   86.576">  2  5  1 -1</clus>
<clus scale="   90.758">  7  8 -1 -1</clus>
<clus scale="  156.001">  1  9  2 -1</clus>
<clus scale="  156.001">  1  5  2 -1</clus>
</clustering>
</event>
<event>
 9    1  0.8429841E-005  0.4300166E+03  0.7546771E-02  0.1086534E+00
         21   -1    0    0  501  502  0.00000000000E+00  0.00000000000E+00  0.10148401087E+04  0.10148401087E+04  0.00000000000E+00 0. -1.
         -4   -1    0    0    0  501 -0.00000000000E+00 -0.00000000000E+00 -0.25571457748E+03  0.25571457748E+03  0.00000000000E+00 0.  1.
        -24    2    1    2    0    0 -0.52833838928E+02  0.99964476485E+01  0.27235155933E+03  0.28958800921E+03  0.82428755339E+02 0.  0.
         23    2    1    2    0    0 -0.10818149868E+03 -0.40275891824E+03  0.24356500109E+03  0.49174392530E+03  0.92575350037E+02 0.  0.
         11    1    3    3    0    0 -0.24566776183E+02  0.18329584982E+02  0.22546229550E+02  0.38050396116E+02  0.00000000000E+00 0. -1.
        -12    1    3    3    0    0 -0.28267062744E+02 -0.83331373334E+01  0.24980532978E+03  0.25153761310E+03  0.00000000000E+00 0.  1.
        -11    1    4    4    0    0 -0.72498059227E+01 -0.89471079125E+02  0.14969054762E+02  0.91003880610E+02  0.00000000000E+00 0.  1.
         11    1    4    4    0    0 -0.10093169275E+03 -0.31328783912E+03  0.22859594632E+03  0.40074004469E+03  0.00000000000E+00 0. -1.
         -3    1    1    2    0  502  0.16101533760E+03  0.39276247059E+03  0.24320897076E+03  0.48922275163E+03  0.00000000000E+00 0.  1.
<scales pt_clust_5="13000.00000" pt_clust_6="13000.00000" pt_clust_7="13000.00000" pt_clust_8="13000.00000" pt_clust_9="419.93360"></scales>
<clustering>
<clus scale="   82.429">  5  6 -1 -1</clus>
<clus scale="   92.575">  7  8 -1 -1</clus>
<clus scale="   98.417">  2  5  1 -1</clus>
<clus scale="  419.934">  1  9  2 -1</clus>
<clus scale="  419.934">  1  5  2 -1</clus>
</clustering>
</event>
<event>
 9    1  0.8429841E-005  0.9835136E+02  0.7546771E-02  0.1289572E+00
         21   -1    0    0  501  502  0.00000000000E+00  0.00000000000E+00  0.26198653453E+03  0.26198653453E+03  0.00000000000E+00 0. -1.
          1   -1    0    0  502    0 -0.00000000000E+00 -0.00000000000E+00 -0.10431606950E+03  0.10431606950E+03  0.00000000000E+00 0. -1.
        -24    2    1    2    0    0  0.48349539349E+02 -0.14967430137E+02 -0.31359846830E+02  0.10090779282E+03  0.81469262543E+02 0.  0.
         23    2    1    2    0    0  0.26892317550E+01 -0.38104056255E+02  0.59227382304E+02  0.11616231025E+03  0.92339852915E+02 0.  0.
         13    1    3    3    0    0  0.27974263010E+02 -0.45751048892E+02 -0.34648967650E+02  0.63845664104E+02  0.00000000000E+00 0. -1.
        -14    1    3    3    0    0  0.20375276339E+02  0.30783618755E+02  0.32891208201E+01  0.37062128720E+02  0.00000000000E+00 0.  1.
        -11    1    4    4    0    0  0.28595479896E+02 -0.21512881855E+02  0.73878077321E+02  0.82088220012E+02  0.00000000000E+00 0. -1.
         11    1    4    4    0    0 -0.25906248141E+02 -0.16591174400E+02 -0.14650695017E+02  0.34074090233E+02  0.00000000000E+00 0.  1.
          2    1    1    2  501    0 -0.51038771104E+02  0.53071486392E+02  0.12980292955E+03  0.14923250097E+03  0.00000000000E+00 0. -1.
<scales pt_clust_5="13000.00000" pt_clust_6="13000.00000" pt_clust_7="13000.00000" pt_clust_8="13000.00000" pt_clust_9="73.63110"></scales>
<clustering>
<clus scale="   73.631">  1  9  2 -1</clus>
<clus scale="   81.469">  5  6 -1 -1</clus>
<clus scale="   88.225">  2  5  1 -1</clus>
<clus scale="   92.340">  7  8 -1 -1</clus>
<clus scale="   73.631">  1  5  2 -1</clus>
</clustering>
</event>
<event>
 9    1  0.8429841E-005  0.9804339E+02  0.7546771E-02  0.1290708E+00
         -4   -1    0    0    0  501 -0.00000000000E+00  0.00000000000E+00  0.55825253755E+02  0.55825253755E+02  0.00000000000E+00 0.  1.
         21   -1    0    0  501  502  0.00000000000E+00 -0.00000000000E+00 -0.28506352819E+03  0.28506352819E+03  0.00000000000E+00 0.  1.
        -24    2    1    2    0    0  0.19036153768E+02  0.32787237716E+02 -0.16342022244E+02  0.91616035317E+02  0.81786662293E+02 0.  0.
         23    2    1    2    0    0 -0.14590993397E+02  0.21570014791E+01 -0.15461435862E+03  0.18117253795E+03  0.93275607057E+02 0.  0.
         11    1    3    3    0    0  0.27750235917E+02  0.62791360921E+01 -0.43954697909E+02  0.52359513097E+02  0.00000000000E+00 0. -1.
        -12    1    3    3    0    0 -0.87140821488E+01  0.26508101624E+02  0.27612675666E+02  0.39256522220E+02  0.00000000000E+00 0.  1.
        -13    1    4    4    0    0 -0.38905139714E+02 -0.71202906220E+01 -0.14950965611E+03  0.15465266149E+03  0.00000000000E+00 0.  1.
         13    1    4    4    0    0  0.24314146317E+02  0.92772921010E+01 -0.51047025103E+01  0.26519876463E+02  0.00000000000E+00 0. -1.
         -3    1    1    2    0  502 -0.44451603709E+01 -0.34944239195E+02 -0.58281893567E+02  0.68100208674E+02  0.00000000000E+00 0.  1.
<scales pt_clust_5="13000.00000" pt_clust_6="13000.00000" pt_clust_7="13000.00000" pt_clust_8="13000.00000" pt_clust_9="35.22583"></scales>
<clustering>
<clus scale="   35.226">  2  9  1 -1</clus>
<clus scale="   81.787">  5  6 -1 -1</clus>
<clus scale="   87.185">  1  5  2 -1</clus>
<clus scale="   93.276">  7  8 -1 -1</clus>
<clus scale="   35.226">  2  5  1 -1</clus>
</clustering>
</event>
<event>
 9    1  0.8429841E-005  0.9308215E+02  0.7546771E-02  0.1301575E+00
         21   -1    0    0  501  502  0.00000000000E+00  0.00000000000E+00  0.18174013759E+03  0.18174013759E+03  0.00000000000E+00 0.  1.
          3   -1    0    0  502    0 -0.00000000000E+00 -0.00000000000E+00 -0.83385779825E+02  0.83385779825E+02  0.00000000000E+00 0. -1.
        -24    2    1    2    0    0  0.33391052910E+02 -0.23908023393E+02  0.26265213641E+02  0.92669908173E+02  0.78811765849E+02 0.  0.
         23    2    1    2    0    0 -0.84071807954E+01 -0.11641464746E+02  0.88124091991E+02  0.12614100599E+03  0.89103835001E+02 0.  0.
         13    1    3    3    0    0  0.30436814632E+02 -0.49234157933E+02  0.32552487634E+02  0.66408331130E+02  0.00000000000E+00 0. -1.
        -14    1    3    3    0    0  0.29542382786E+01  0.25326134540E+02 -0.62872739933E+01  0.26261577043E+02  0.00000000000E+00 0.  1.
        -11    1    4    4    0    0  0.97979095296E+01  0.34704593746E+02  0.56908538971E+02  0.67372024358E+02  0.00000000000E+00 0. -1.
         11    1    4    4    0    0 -0.18205090325E+02 -0.46346058492E+02  0.31215553020E+02  0.58768981630E+02  0.00000000000E+00 0.  1.
          4    1    1    2  501    0 -0.24983872115E+02  0.35549488139E+02 -0.16034947870E+02  0.46315003250E+02  0.00000000000E+00 0. -1.
<scales pt_clust_5="13000.00000" pt_clust_6="13000.00000" pt_clust_7="13000.00000" pt_clust_8="13000.00000" pt_clust_9="43.45068"></scales>
<clustering>
<clus scale="   43.451">  1  9  2 -1</clus>
<clus scale="   78.812">  5  6 -1 -1</clus>
<clus scale="   83.283">  2  5  1 -1</clus>
<clus scale="   89.104">  7  8 -1 -1</clus>
<clus scale="   43.451">  1  5  2 -1</clus>
</clustering>
</event>
<event>
 9    1  0.8429841E-005  0.1226451E+03  0.7546771E-02  0.1239108E+00
         21   -1    0    0  501  502  0.00000000000E+00  0.00000000000E+00  0.31128598079E+02  0.31128598079E+02  0.00000000000E+00 0. -1.
          1   -1    0    0  502    0 -0.00000000000E+00 -0.00000000000E+00 -0.12408023640E+04  0.12408023640E+04  0.00000000000E+00 0. -1.
        -24    2    1    2    0    0 -0.87039018480E+02 -0.85619199842E+01 -0.97675998455E+03  0.98399535087E+03  0.80855957755E+02 0.  0.
         23    2    1    2    0    0  0.11324324016E+03  0.14014764068E+01 -0.21052599638E+03  0.25273410409E+03  0.82020342847E+02 0.  0.
         11    1    3    3    0    0 -0.72307390551E+02 -0.23213623877E+01 -0.36900586371E+03  0.37603068347E+03  0.00000000000E+00 0. -1.
        -12    1    3    3    0    0 -0.14731627929E+02 -0.62405575965E+01 -0.60775412083E+03  0.60796466740E+03  0.00000000000E+00 0.  1.
        -13    1    4    4    0    0  0.10061832268E+02 -0.30248957135E+02 -0.50153370786E+02  0.59427270487E+02  0.00000000000E+00 0. -1.
         13    1    4    4    0    0  0.10318140789E+03  0.31650433542E+02 -0.16037262560E+03  0.19330683361E+03  0.00000000000E+00 0.  1.
          2    1    1    2  501    0 -0.26204221680E+02  0.71604435774E+01 -0.22387784968E+02  0.35201507096E+02  0.00000000000E+00 0. -1.
<scales pt_clust_5="13000.00000" pt_clust_6="13000.00000" pt_clust_7="13000.00000" pt_clust_8="13000.00000" pt_clust_9="27.16493"></scales>
<clustering>
<clus scale="   27.165">  1  9  2 -1</clus>
<clus scale="   80.856">  5  6 -1 -1</clus>
<clus scale="   82.020">  7  8 -1 -1</clus>
<clus scale="  121.869">  2  5  1 -1</clus>
<clus scale="   27.165">  1  5  2 -1</clus>
</clustering>
</event>
<event>
 9    1  0.8429841E-005  0.1402350E+03  0.7546771E-02  0.1217277E+00
          1   -1    0    0  502    0 -0.00000000000E+00  0.00000000000E+00  0.10587853442E+03  0.10587853442E+03  0.00000000000E+00 0. -1.
         21   -1    0    0  501  502  0.00000000000E+00 -0.00000000000E+00 -0.24696480017E+03  0.24696480017E+03  0.00000000000E+00 0.  1.
        -24    2    1    2    0    0 -0.85506692237E+02  0.53303927299E+02 -0.80672395015E+00  0.12280880233E+03  0.70204330665E+02 0.  0.
         23    2    1    2    0    0  0.10474005988E+03 -0.68087956110E+02 -0.13554483815E+03  0.20531799209E+03  0.90424691402E+02 0.  0.
         13    1    3    3    0    0 -0.84979002699E+02  0.42989420286E+02 -0.23312941129E+02  0.98045980950E+02  0.00000000000E+00 0. -1.
        -14    1    3    3    0    0 -0.52768953779E+00  0.10314507013E+02  0.22506217179E+02  0.24762821383E+02  0.00000000000E+00 0.  1.
        -13    1    4    4    0    0  0.82995138032E+02 -0.13679620877E+02 -0.11653022581E+03  0.14371714752E+03  0.00000000000E+00 0.  1.
         13    1    4    4    0    0  0.21744921849E+02 -0.54408335233E+02 -0.19014612342E+02  0.61600844569E+02  0.00000000000E+00 0. -1.
          2    1    1    2  501    0 -0.19233367644E+02  0.14784028811E+02 -0.47347036472E+01  0.24716540160E+02  0.00000000000E+00 0. -1.
<scales pt_clust_5="13000.00000" pt_clust_6="13000.00000" pt_clust_7="13000.00000" pt_clust_8="13000.00000" pt_clust_9="24.25882"></scales>
<clustering>
<clus scale="   24.259">  2  9  1 -1</clus>
<clus scale="   70.204">  5  6 -1 -1</clus>
<clus scale="   90.425">  7  8 -1 -1</clus>
<clus scale="  128.132">  1  5  2 -1</clus>
<clus scale="   24.259">  2  5  1 -1</clus>
</clustering>
</event>
<event>
 9    1  0.8429841E-005  0.1613147E+03  0.7546771E-02  0.1202570E+00
         -4   -1    0    0    0  501 -0.00000000000E+00  0.00000000000E+00  0.14482553791E+03  0.14482553791E+03  0.00000000000E+00 0.  1.
         21   -1    0    0  501  502  0.00000000000E+00 -0.00000000000E+00 -0.38933758939E+03  0.38933758939E+03  0.00000000000E+00 0.  1.
        -24    2    1    2    0    0  0.84104150242E+02 -0.10548203318E+02 -0.16344969226E+03  0.19999224060E+03  0.78078945431E+02 0.  0.
         23    2    1    2    0    0 -0.66489123404E+02  0.14623610621E+03 -0.10439107907E+02  0.18019316172E+03  0.80961708654E+02 0.  0.
         13    1    3    3    0    0  0.96496449358E+02 -0.36947406555E+01 -0.11849776227E+03  0.15286247254E+03  0.00000000000E+00 0. -1.
        -14    1    3    3    0    0 -0.12392299116E+02 -0.68534626622E+01 -0.44951929995E+02  0.47129768068E+02  0.00000000000E+00 0.  1.
        -13    1    4    4    0    0 -0.44120550886E+01  0.38168132971E+02  0.30453484557E+02  0.49027414028E+02  0.00000000000E+00 0. -1.
         13    1    4    4    0    0 -0.62077068315E+02  0.10806797324E+03 -0.40892592464E+02  0.13116574770E+03  0.00000000000E+00 0.  1.
         -3    1    1    2    0  502 -0.17615026838E+02 -0.13568790289E+03 -0.70623251315E+02  0.15397772497E+03  0.00000000000E+00 0.  1.
<scales pt_clust_5="13000.00000" pt_clust_6="13000.00000" pt_clust_7="13000.00000" pt_clust_8="13000.00000" pt_clust_9="139.52643"></scales>
<clustering>
<clus scale="   78.079">  5  6 -1 -1</clus>
<clus scale="   80.962">  7  8 -1 -1</clus>
<clus scale="  115.244">  1  5  2 -1</clus>
<clus scale="  139.526">  2  9  1 -1</clus>
<clus scale="  139.526">  2  5  1 -1</clus>
</clustering>
</event>
<event>
 9    1  0.8429841E-005  0.2062036E+03  0.7546771E-02  0.1144684E+00
         21   -1    0    0  501  502  0.00000000000E+00  0.00000000000E+00  0.29003481236E+03  0.29003481236E+03  0.00000000000E+00 0.  1.
         -2   -1    0    0    0  501 -0.00000000000E+00 -0.00000000000E+00 -0.23435607384E+03  0.23435607384E+03  0.00000000000E+00 0.  1.
         23    2    1    2    0    0 -0.14109723145E+03 -0.90309361917E+02  0.32435748259E+02  0.19095848696E+03  0.85725471160E+02 0.  0.
        -24    2    1    2    0    0  0.14812197016E+03  0.16258509917E+03  0.71392988546E+02  0.24630288940E+03  0.84818170204E+02 0.  0.
         13    1    4    4    0    0  0.11666027458E+02  0.69351249051E+02  0.17477173799E+02  0.72464774515E+02  0.00000000000E+00 0. -1.
        -14    1    4    4    0    0  0.13645594270E+03  0.93233850119E+02  0.53915814747E+02  0.17383811488E+03  0.00000000000E+00 0.  1.
        -11    1    3    3    0    0 -0.14010345654E+03 -0.65803064364E+02  0.60083093755E+01  0.15490358807E+03  0.00000000000E+00 0.  1.
         11    1    3    3    0    0 -0.99377490643E+00 -0.24506297554E+02  0.26427438884E+02  0.36054898895E+02  0.00000000000E+00 0. -1.
         -1    1    1    2    0  502 -0.70247387074E+01 -0.72275737252E+02 -0.48149998289E+02  0.87129509837E+02  0.00000000000E+00 0.  1.
<scales pt_clust_5="13000.00000" pt_clust_6="13000.00000" pt_clust_7="13000.00000" pt_clust_8="13000.00000" pt_clust_9="72.61635"></scales>
<clustering>
<clus scale="   72.616">  1  9  2 -1</clus>
<clus scale="   84.818">  5  6 -1 -1</clus>
<clus scale="   85.725">  7  8 -1 -1</clus>
<clus scale="  205.828">  1  5  2 -1</clus>
<clus scale="   72.616">  1  5  2 -1</clus>
</clustering>
</event>
<event>
 9    1  0.8429841E-005  0.9373978E+02  0.7546771E-02  0.1302141E+00
         21   -1    0    0  501  502  0.00000000000E+00  0.00000000000E+00  0.10077851930E+03  0.10077851930E+03  0.00000000000E+00 0.  1.
         -2   -1    0    0    0  501 -0.00000000000E+00 -0.00000000000E+00 -0.24475775594E+03  0.24475775594E+03  0.00000000000E+00 0.  1.
         23    2    1    2    0    0 -0.35144785613E+02 -0.11397742754E+02 -0.16657414864E+03  0.19361667991E+03  0.91517251099E+02 0.  0.
        -24    2    1    2    0    0 -0.21186766617E+02 -0.29666116815E+01 -0.15448627196E+02  0.82443777023E+02  0.78106570934E+02 0.  0.
         13    1    4    4    0    0 -0.11132650249E+02  0.32613680609E+02  0.11896296849E+02  0.36456960147E+02  0.00000000000E+00 0. -1.
        -14    1    4    4    0    0 -0.10054116368E+02 -0.35580292291E+02 -0.27344924044E+02  0.45986816876E+02  0.00000000000E+00 0.  1.
        -11    1    3    3    0    0 -0.14113926850E+02  0.39226471835E+02 -0.92536786990E+02  0.10149372380E+03  0.00000000000E+00 0.  1.
         11    1    3    3    0    0 -0.21030858763E+02 -0.50624214588E+02 -0.74037361648E+02  0.92122956112E+02  0.00000000000E+00 0. -1.
         -1    1    1    2    0  502  0.56331552230E+02  0.14364354435E+02  0.38043539193E+02  0.69475818306E+02  0.00000000000E+00 0.  1.
<scales pt_clust_5="13000.00000" pt_clust_6="13000.00000" pt_clust_7="13000.00000" pt_clust_8="13000.00000" pt_clust_9="58.13414"></scales>
<clustering>
<clus scale="   58.134">  1  9  2 -1</clus>
<clus scale="   78.107">  5  6 -1 -1</clus>
<clus scale="   80.699">  1  5  2 -1</clus>
<clus scale="   91.517">  7  8 -1 -1</clus>
<clus scale="   58.134">  1  5  2 -1</clus>
</clustering>
</event>
<event>
 9    1  0.8429841E-005  0.2198500E+03  0.7546771E-02  0.1134673E+00
          1   -1    0    0  502    0 -0.00000000000E+00  0.00000000000E+00  0.53898546877E+02  0.53898546877E+02  0.00000000000E+00 0. -1.
         21   -1    0    0  501  502  0.00000000000E+00 -0.00000000000E+00 -0.14322110974E+04  0.14322110974E+04  0.00000000000E+00 0. -1.
         23    2    1    2    0    0  0.10628037744E+03  0.19040808810E+03 -0.38162239654E+03  0.44883128032E+03  0.90901628201E+02 0.  0.
        -24    2    1    2    0    0 -0.12676002255E+03 -0.11337124759E+03 -0.84612559970E+03  0.86691470685E+03  0.81801194328E+02 0.  0.
         11    1    4    4    0    0 -0.13740319677E+03 -0.11268950616E+03 -0.78467247626E+03  0.80454301208E+03  0.00000000000E+00 0. -1.
        -12    1    4    4    0    0  0.10643174218E+02 -0.68174143125E+00 -0.61453123437E+02  0.62371694774E+02  0.00000000000E+00 0.  1.
        -11    1    3    3    0    0  0.65861789145E+02  0.58096344040E+02 -0.88397252332E+02  0.12460752257E+03  0.00000000000E+00 0. -1.
         11    1    3    3    0    0  0.40418588299E+02  0.13231174406E+03 -0.29322514421E+03  0.32422375776E+03  0.00000000000E+00 0.  1.
          2    1    1    2  501    0  0.20479645104E+02 -0.77036840501E+02 -0.15056455433E+03  0.17036365715E+03  0.00000000000E+00 0. -1.
<scales pt_clust_5="13000.00000" pt_clust_6="13000.00000" pt_clust_7="13000.00000" pt_clust_8="13000.00000" pt_clust_9="79.71259"></scales>
<clustering>
<clus scale="   79.713">  2  9  1 -1</clus>
<clus scale="   81.801">  5  6 -1 -1</clus>
<clus scale="   90.902">  7  8 -1 -1</clus>
<clus scale="  216.246">  2  5  1 -1</clus>
<clus scale="   79.713">  2  5  1 -1</clus>
</clustering>
</event>
<event>
 9    1  0.8429841E-005  0.1106025E+03  0.7546771E-02  0.1269840E+00
          1   -1    0    0  502    0 -0.00000000000E+00  0.00000000000E+00  0.32876510933E+03  0.32876510933E+03  0.00000000000E+00 0. -1.
         21   -1    0    0  501  502  0.00000000000E+00 -0.00000000000E+00 -0.45588468550E+02  0.45588468550E+02  0.00000000000E+00 0.  1.
         23    2    1    2    0    0  0.55684964984E+02 -0.26655414073E+02  0.19460203549E+03  0.22676219658E+03  0.98690501854E+02 0.  0.
        -24    2    1    2    0    0 -0.22521549376E+02  0.27055975816E+02  0.51109901761E+02  0.97555628132E+02  0.75270395964E+02 0.  0.
         11    1    4    4    0    0 -0.36945985756E+02  0.29860920452E+01  0.57840904841E+02  0.68698565356E+02  0.00000000000E+00 0. -1.
        -12    1    4    4    0    0  0.14424436380E+02  0.24069883771E+02 -0.67310030800E+01  0.28857062776E+02  0.00000000000E+00 0.  1.
        -13    1    3    3    0    0 -0.27358045944E+02 -0.13730523751E+02  0.70744750906E+02  0.77083135257E+02  0.00000000000E+00 0. -1.
         13    1    3    3    0    0  0.83043010929E+02 -0.12924890321E+02  0.12385728459E+03  0.14967906133E+03  0.00000000000E+00 0.  1.
          2    1    1    2  501    0 -0.33163415608E+02 -0.40056174346E+00  0.37464703527E+02  0.50035753166E+02  0.00000000000E+00 0. -1.
<scales pt_clust_5="13000.00000" pt_clust_6="13000.00000" pt_clust_7="13000.00000" pt_clust_8="13000.00000" pt_clust_9="33.16583"></scales>
<clustering>
<clus scale="   33.166">  2  9  1 -1</clus>
<clus scale="   75.270">  5  6 -1 -1</clus>
<clus scale="   90.326">  2  5  1 -1</clus>
<clus scale="   98.691">  7  8 -1 -1</clus>
<clus scale="   33.166">  2  5  1 -1</clus>
</clustering>
</event>
<event>
 9    1  0.8429841E-005  0.1871350E+03  0.7546771E-02  0.1165968E+00
          1   -1    0    0  502    0 -0.00000000000E+00  0.00000000000E+00  0.58549525477E+03  0.58549525477E+03  0.00000000000E+00 0. -1.
         21   -1    0    0  501  502  0.00000000000E+00 -0.00000000000E+00 -0.69422177719E+02  0.69422177719E+02  0.00000000000E+00 0.  1.
         23    2    1    2    0    0  0.15311483512E+03 -0.11573297837E+02  0.34921526383E+03  0.39867476813E+03  0.11581095065E+03 0.  0.
        -24    2    1    2    0    0 -0.13756450210E+03 -0.18599788026E+02  0.12976888890E+03  0.20596527108E+03  0.79446736952E+02 0.  0.
         13    1    4    4    0    0 -0.12762261608E+03 -0.16544760242E+02  0.14095085828E+03  0.19086226886E+03  0.00000000000E+00 0. -1.
        -14    1    4    4    0    0 -0.99418860248E+01 -0.20550277842E+01 -0.11181969377E+02  0.15103002221E+02  0.00000000000E+00 0.  1.
        -13    1    3    3    0    0 -0.54158468239E+01  0.25096042442E+02  0.80898444419E+02  0.84874619601E+02  0.00000000000E+00 0. -1.
         13    1    3    3    0    0  0.15853068195E+03 -0.36669340280E+02  0.26831681941E+03  0.31380014853E+03  0.00000000000E+00 0.  1.
          2    1    1    2  501    0 -0.15550333019E+02  0.30173085863E+02  0.37088924315E+02  0.50277393273E+02  0.00000000000E+00 0. -1.
<scales pt_clust_5="13000.00000" pt_clust_6="13000.00000" pt_clust_7="13000.00000" pt_clust_8="13000.00000" pt_clust_9="33.94448"></scales>
<clustering>
<clus scale="   33.944">  2  9  1 -1</clus>
<clus scale="   79.447">  5  6 -1 -1</clus>
<clus scale="  115.811">  7  8 -1 -1</clus>
<clus scale="  167.090">  2  5  1 -1</clus>
<clus scale="   33.944">  2  5  1 -1</clus>
</clustering>
</event>
<event>
 9    1  0.8429841E-005  0.1125987E+03  0.7546771E-02  0.1261865E+00
          1   -1    0    0  502    0 -0.00000000000E+00  0.00000000000E+00  0.54541080480E+03  0.54541080480E+03  0.00000000000E+00 0. -1.
         21   -1    0    0  501  502  0.00000000000E+00 -0.00000000000E+00 -0.61908968674E+02  0.61908968674E+02  0.00000000000E+00 0. -1.
         23    2    1    2    0    0  0.26674153227E+02 -0.51996297830E+02  0.39551158799E+03  0.41077597107E+03  0.94299293410E+02 0.  0.
        -24    2    1    2    0    0 -0.75697614379E+02  0.47856959506E+02  0.35192977031E+02  0.12437742726E+03  0.78808510857E+02 0.  0.
         13    1    4    4    0    0 -0.36324978211E+02  0.58481720322E+02 -0.24366576696E+01  0.68887973946E+02  0.00000000000E+00 0. -1.
        -14    1    4    4    0    0 -0.39372636168E+02 -0.10624760816E+02  0.37629634701E+02  0.55489453313E+02  0.00000000000E+00 0.  1.
        -11    1    3    3    0    0 -0.25747481810E+02  0.11200463606E+02  0.81243327136E+02  0.85958486543E+02  0.00000000000E+00 0.  1.
         11    1    3    3    0    0  0.52421635037E+02 -0.63196761437E+02  0.31426826085E+03  0.32481748453E+03  0.00000000000E+00 0. -1.
          2    1    1    2  501    0  0.49023461152E+02  0.41393383242E+01  0.52797271103E+02  0.72166375141E+02  0.00000000000E+00 0. -1.
<scales pt_clust_5="13000.00000" pt_clust_6="13000.00000" pt_clust_7="13000.00000" pt_clust_8="13000.00000" pt_clust_9="49.19791"></scales>
<clustering>
<clus scale="   49.198">  2  9  1 -1</clus>
<clus scale="   78.809">  5  6 -1 -1</clus>
<clus scale="   94.299">  7  8 -1 -1</clus>
<clus scale="   99.985">  2  5  1 -1</clus>
<clus scale="   49.198">  2  5  1 -1</clus>
</clustering>
</event>
<event>
 9    1  0.1022304E-004  0.1054753E+03  0.7546771E-02  0.1272996E+00
         21   -1    0    0  501  502  0.00000000000E+00  0.00000000000E+00  0.44006504627E+03  0.44006504627E+03  0.00000000000E+00 0.  1.
          1   -1    0    0  502    0 -0.00000000000E+00 -0.00000000000E+00 -0.17268818340E+03  0.17268818340E+03  0.00000000000E+00 0. -1.
         23    2    1    2    0    0 -0.19752226353E+02 -0.46992388011E+02 -0.14342635652E+03  0.17769845446E+03  0.91690708341E+02 0.  0.
        -24    2    1    2    0    0  0.10742602313E+02  0.75828085561E+02  0.31746276006E+03  0.33694711941E+03  0.82978642966E+02 0.  0.
         11    1    4    4    0    0 -0.10169563066E+02  0.38549053258E+02  0.40956885900E+02  0.57156942034E+02  0.00000000000E+00 0. -1.
        -12    1    4    4    0    0  0.20912165380E+02  0.37279032303E+02  0.27650587416E+03  0.27979017738E+03  0.00000000000E+00 0.  1.
        -11    1    3    3    0    0 -0.14726321931E+02  0.26358376026E+02 -0.30268292440E+02  0.42752755135E+02  0.00000000000E+00 0.  1.
         11    1    3    3    0    0 -0.50259044216E+01 -0.73350764038E+02 -0.11315806408E+03  0.13494569932E+03  0.00000000000E+00 0. -1.
          2    1    1    2  501    0  0.90096240396E+01 -0.28835697550E+02  0.93340459329E+02  0.98107655798E+02  0.00000000000E+00 0. -1.
<scales pt_clust_5="13000.00000" pt_clust_6="13000.00000" pt_clust_7="13000.00000" pt_clust_8="13000.00000" pt_clust_9="30.21044"></scales>
<clustering>
<clus scale="   30.210">  1  9  2 -1</clus>
<clus scale="   82.979">  5  6 -1 -1</clus>
<clus scale="   91.691">  7  8 -1 -1</clus>
<clus scale="   97.996">  1  5  2 -1</clus>
<clus scale="   30.210">  1  5  2 -1</clus>
</clustering>
</event>
<event>
 9    1  0.8429841E-005  0.1233823E+03  0.7546771E-02  0.1241068E+00
         21   -1    0    0  501  502  0.00000000000E+00  0.00000000000E+00  0.13811092778E+03  0.13811092778E+03  0.00000000000E+00 0. -1.
          1   -1    0    0  502    0 -0.00000000000E+00 -0.00000000000E+00 -0.21170222883E+03  0.21170222883E+03  0.00000000000E+00 0. -1.
        -24    2    1    2    0    0 -0.90404922379E+02  0.78569418258E+01 -0.32749702363E+02  0.12525451312E+03  0.79883468417E+02 0.  0.
         23    2    1    2    0    0  0.68026613010E+02  0.27466525160E+02  0.47721205481E+02  0.12662036531E+03  0.91506138462E+02 0.  0.
         13    1    3    3    0    0 -0.47404251659E+02  0.17748014266E+02  0.21783783999E+02  0.55106155110E+02  0.00000000000E+00 0. -1.
        -14    1    3    3    0    0 -0.43000670720E+02 -0.98910724407E+01 -0.54533486362E+02  0.70148358008E+02  0.00000000000E+00 0.  1.
        -13    1    4    4    0    0  0.42494149162E+02 -0.31156476814E+02  0.28206316899E+02  0.59766839246E+02  0.00000000000E+00 0. -1.
         13    1    4    4    0    0  0.25532463848E+02  0.58623001974E+02  0.19514888582E+02  0.66853526062E+02  0.00000000000E+00 0.  1.
          2    1    1    2  501    0  0.22378309369E+02 -0.35323466985E+02 -0.88562804171E+02  0.97938278179E+02  0.00000000000E+00 0. -1.
<scales pt_clust_5="13000.00000" pt_clust_6="13000.00000" pt_clust_7="13000.00000" pt_clust_8="13000.00000" pt_clust_9="41.81552"></scales>
<clustering>
<clus scale="   41.816">  1  9  2 -1</clus>
<clus scale="   79.883">  5  6 -1 -1</clus>
<clus scale="   91.506">  7  8 -1 -1</clus>
<clus scale="  115.027">  2  5  1 -1</clus>
<clus scale="   41.816">  1  5  2 -1</clus>
</clustering>
</event>
<event>
 9    1  0.8429841E-005  0.1726111E+03  0.7546771E-02  0.1201615E+00
          1   -1    0    0  502    0 -0.00000000000E+00  0.00000000000E+00  0.27161673810E+03  0.27161673810E+03  0.00000000000E+00 0. -1.
         21   -1    0    0  501  502  0.00000000000E+00 -0.00000000000E+00 -0.29036644753E+03  0.29036644753E+03  0.00000000000E+00 0.  1.
         23    2    1    2    0    0  0.67273710852E+01  0.32841086991E+02  0.13740800673E+03  0.16763910423E+03  0.89989524039E+02 0.  0.
        -24    2    1    2    0    0  0.12999391499E+02 -0.17694036278E+03 -0.19722798060E+02  0.19492433983E+03  0.78291974911E+02 0.  0.
         13    1    4    4    0    0 -0.13123350157E+02 -0.45524702576E+02  0.25128573913E+02  0.53629899225E+02  0.00000000000E+00 0. -1.
        -14    1    4    4    0    0  0.26122741656E+02 -0.13141566021E+03 -0.44851371973E+02  0.14129444061E+03  0.00000000000E+00 0.  1.
        -11    1    3    3    0    0  0.25303435159E+02  0.58203228768E+02  0.10342412898E+03  0.12134426284E+03  0.00000000000E+00 0. -1.
         11    1    3    3    0    0 -0.18576064074E+02 -0.25362141777E+02  0.33983877757E+02  0.46294841391E+02  0.00000000000E+00 0.  1.
          2    1    1    2  501    0 -0.19726762584E+02  0.14409927579E+03 -0.13643491811E+03  0.19941974156E+03  0.00000000000E+00 0. -1.
<scales pt_clust_5="13000.00000" pt_clust_6="13000.00000" pt_clust_7="13000.00000" pt_clust_8="13000.00000" pt_clust_9="153.83418"></scales>
<clustering>
<clus scale="   78.292">  5  6 -1 -1</clus>
<clus scale="   89.990">  7  8 -1 -1</clus>
<clus scale="   96.031">  1  7  2 -1</clus>
<clus scale="  153.834">  2  9  1 -1</clus>
<clus scale="  153.834">  2  5  1 -1</clus>
</clustering>
</event>
<event>
 9    1  0.8429841E-005  0.1132735E+03  0.7546771E-02  0.1256714E+00
          1   -1    0    0  502    0 -0.00000000000E+00  0.00000000000E+00  0.19594861198E+03  0.19594861198E+03  0.00000000000E+00 0. -1.
         21   -1    0    0  501  502  0.00000000000E+00 -0.00000000000E+00 -0.95379941703E+02  0.95379941703E+02  0.00000000000E+00 0.  1.
         23    2    1    2    0    0 -0.77144588331E+02  0.55907683055E+01  0.10091634358E+03  0.15564663022E+03  0.89773163572E+02 0.  0.
        -24    2    1    2    0    0  0.50270136934E+02 -0.39110865220E+01 -0.22923143029E+02  0.10054349291E+03  0.83911502277E+02 0.  0.
         11    1    4    4    0    0  0.24575659709E+02  0.36750015044E+02 -0.27758117643E+02  0.52201913289E+02  0.00000000000E+00 0. -1.
        -12    1    4    4    0    0  0.25694477225E+02 -0.40661101566E+02  0.48349746147E+01  0.48341579618E+02  0.00000000000E+00 0.  1.
        -13    1    3    3    0    0 -0.56629738718E+02 -0.39310213066E+02  0.63191361137E+02  0.93516673812E+02  0.00000000000E+00 0.  1.
         13    1    3    3    0    0 -0.20514849613E+02  0.44900981371E+02  0.37724982444E+02  0.62129956407E+02  0.00000000000E+00 0. -1.
          2    1    1    2  501    0  0.26874451397E+02 -0.16796817835E+01  0.22575469730E+02  0.35138430561E+02  0.00000000000E+00 0. -1.
<scales pt_clust_5="13000.00000" pt_clust_6="13000.00000" pt_clust_7="13000.00000" pt_clust_8="13000.00000" pt_clust_9="26.92690"></scales>
<clustering>
<clus scale="   26.927">  2  9  1 -1</clus>
<clus scale="   83.912">  5  6 -1 -1</clus>
<clus scale="   89.773">  7  8 -1 -1</clus>
<clus scale="  108.687">  2  5  1 -1</clus>
<clus scale="   26.927">  2  5  1 -1</clus>
</clustering>
</event>
<event>
 9    1  0.8429841E-005  0.1310330E+03  0.7546771E-02  0.1228349E+00
          1   -1    0    0  502    0 -0.00000000000E+00  0.00000000000E+00  0.68029319739E+03  0.68029319739E+03  0.00000000000E+00 0. -1.
         21   -1    0    0  501  502  0.00000000000E+00 -0.00000000000E+00 -0.41368970223E+02  0.41368970223E+02  0.00000000000E+00 0. -1.
        -24    2    1    2    0    0  0.12299423774E+03  0.18240170456E+02  0.40378148109E+03  0.42973993629E+03  0.78591615550E+02 0.  0.
         23    2    1    2    0    0 -0.57214884568E+02 -0.19889367806E+02  0.14815052085E+03  0.18284753029E+03  0.88405387483E+02 0.  0.
         11    1    3    3    0    0  0.10193679369E+03  0.22641532905E+02  0.20759758728E+03  0.23238009201E+03  0.00000000000E+00 0. -1.
        -12    1    3    3    0    0  0.21057444050E+02 -0.44013624491E+01  0.19618389381E+03  0.19735984428E+03  0.00000000000E+00 0.  1.
        -13    1    4    4    0    0  0.85349242420E+01 -0.25521634839E+02  0.82220183112E+01  0.28138947418E+02  0.00000000000E+00 0. -1.
         13    1    4    4    0    0 -0.65749808810E+02  0.56322670336E+01  0.13992850254E+03  0.15470858287E+03  0.00000000000E+00 0.  1.
          2    1    1    2  501    0 -0.65779353175E+02  0.16491973502E+01  0.86992225222E+02  0.10907470103E+03  0.00000000000E+00 0. -1.
<scales pt_clust_5="13000.00000" pt_clust_6="13000.00000" pt_clust_7="13000.00000" pt_clust_8="13000.00000" pt_clust_9="65.80002"></scales>
<clustering>
<clus scale="   65.800">  2  9  1 -1</clus>
<clus scale="   78.592">  5  6 -1 -1</clus>
<clus scale="   88.405">  7  8 -1 -1</clus>
<clus scale="  124.623">  1  5  2 -1</clus>
<clus scale="   65.800">  2  5  1 -1</clus>
</clustering>
</event>
<event>
 9    1  0.8429841E-005  0.1178054E+03  0.7546771E-02  0.1259627E+00
         21   -1    0    0  501  502  0.00000000000E+00  0.00000000000E+00  0.42097241299E+03  0.42097241299E+03  0.00000000000E+00 0. -1.
         -2   -1    0    0    0  501 -0.00000000000E+00 -0.00000000000E+00 -0.17321963691E+03  0.17321963691E+03  0.00000000000E+00 0.  1.
        -24    2    1    2    0    0 -0.13434059406E+02  0.40558839777E+02  0.29592046213E+03  0.30966323166E+03  0.80603372759E+02 0.  0.
         23    2    1    2    0    0 -0.60211930080E+02  0.31003103897E+02  0.65422116002E+02  0.13140309643E+03  0.91651794933E+02 0.  0.
         13    1    3    3    0    0 -0.38895707497E+02  0.39315819691E+01  0.20122175626E+03  0.20498421547E+03  0.00000000000E+00 0. -1.
        -14    1    3    3    0    0  0.25461648091E+02  0.36627257808E+02  0.94698705869E+02  0.10467901619E+03  0.00000000000E+00 0.  1.
        -11    1    4    4    0    0  0.24702214759E+02  0.81791116730E+01  0.14207501940E+02  0.29647097550E+02  0.00000000000E+00 0.  1.
         11    1    4    4    0    0 -0.84914144839E+02  0.22823992224E+02  0.51214614062E+02  0.10175599888E+03  0.00000000000E+00 0. -1.
         -1    1    1    2    0  502  0.73645989486E+02 -0.71561943674E+02 -0.11358980205E+03  0.15312572181E+03  0.00000000000E+00 0.  1.
<scales pt_clust_5="13000.00000" pt_clust_6="13000.00000" pt_clust_7="13000.00000" pt_clust_8="13000.00000" pt_clust_9="74.01402"></scales>
<clustering>
<clus scale="   80.603">  5  6 -1 -1</clus>
<clus scale="   91.227">  2  5  1 -1</clus>
<clus scale="   74.014">  1  9  2 -1</clus>
<clus scale="   91.652">  7  8 -1 -1</clus>
<clus scale="   74.014">  1  5  2 -1</clus>
</clustering>
</event>
<event>
 9    1  0.8429841E-005  0.1584304E+03  0.7546771E-02  0.1192315E+00
         -4   -1    0    0    0  501 -0.00000000000E+00  0.00000000000E+00  0.84519355697E+03  0.84519355697E+03  0.00000000000E+00 0.  1.
         21   -1    0    0  501  502  0.00000000000E+00 -0.00000000000E+00 -0.19736683395E+03  0.19736683395E+03  0.00000000000E+00 0.  1.
        -24    2    1    2    0    0  0.59358408009E+02 -0.12110556880E+03  0.76726465601E+03  0.78312869569E+03  0.80034506624E+02 0.  0.
         23    2    1    2    0    0 -0.10468832920E+01  0.90766861223E+02 -0.67826899906E+01  0.12900211704E+03  0.91410186834E+02 0.  0.
         13    1    3    3    0    0  0.18936569183E+02 -0.90532284351E+02  0.32297500162E+03  0.33595764589E+03  0.00000000000E+00 0. -1.
        -14    1    3    3    0    0  0.40421838825E+02 -0.30573284447E+02  0.44428965439E+03  0.44717104980E+03  0.00000000000E+00 0.  1.
        -11    1    4    4    0    0  0.13742028020E+02  0.56366286527E+02 -0.46547590608E+02  0.74381985604E+02  0.00000000000E+00 0.  1.
         11    1    4    4    0    0 -0.14788911312E+02  0.34400574696E+02  0.39764900618E+02  0.54620131439E+02  0.00000000000E+00 0. -1.
         -3    1    1    2    0  502 -0.58311524717E+02  0.30338707575E+02 -0.11265524300E+03  0.13042957819E+03  0.00000000000E+00 0.  1.
<scales pt_clust_5="13000.00000" pt_clust_6="13000.00000" pt_clust_7="13000.00000" pt_clust_8="13000.00000" pt_clust_9="65.73181"></scales>
<clustering>
<clus scale="   65.732">  2  9  1 -1</clus>
<clus scale="   80.035">  5  6 -1 -1</clus>
<clus scale="   91.410">  7  8 -1 -1</clus>
<clus scale="  152.151">  1  5  2 -1</clus>
<clus scale="   65.732">  2  5  1 -1</clus>
</clustering>
</event>
<event>
 9    1  0.8429841E-005  0.1185504E+03  0.7546771E-02  0.1260206E+00
         21   -1    0    0  501  502  0.00000000000E+00  0.00000000000E+00  0.56469017033E+03  0.56469017033E+03  0.00000000000E+00 0.  1.
          1   -1    0    0  502    0 -0.00000000000E+00 -0.00000000000E+00 -0.10111815642E+03  0.10111815642E+03  0.00000000000E+00 0. -1.
        -24    2    1    2    0    0  0.44196636229E+02  0.40094408374E+01 -0.65908205403E+02  0.11144066682E+03  0.78139058174E+02 0.  0.
         23    2    1    2    0    0 -0.68468973392E+01  0.10891117300E+02  0.27690499325E+03  0.29861138053E+03  0.11102650521E+03 0.  0.
         11    1    3    3    0    0  0.70002120363E+01 -0.31699148137E+02 -0.71025148551E+01  0.33230779083E+02  0.00000000000E+00 0. -1.
        -12    1    3    3    0    0  0.37196424193E+02  0.35708588975E+02 -0.58805690548E+02  0.78209887739E+02  0.00000000000E+00 0.  1.
        -11    1    4    4    0    0  0.44355777291E+02  0.90774592570E+01  0.20727962605E+03  0.21216662938E+03  0.00000000000E+00 0. -1.
         11    1    4    4    0    0 -0.51202674630E+02  0.18136580428E+01  0.69625367197E+02  0.86444751154E+02  0.00000000000E+00 0.  1.
          2    1    1    2  501    0 -0.37349738890E+02 -0.14900558137E+02  0.25257522606E+03  0.25575627939E+03  0.00000000000E+00 0. -1.
<scales pt_clust_5="13000.00000" pt_clust_6="13000.00000" pt_clust_7="13000.00000" pt_clust_8="13000.00000" pt_clust_9="40.21231"></scales>
<clustering>
<clus scale="   40.212">  1  9  2 -1</clus>
<clus scale="   78.139">  5  6 -1 -1</clus>
<clus scale="   88.504">  2  5  1 -1</clus>
<clus scale="  111.027">  7  8 -1 -1</clus>
<clus scale="   40.212">  1  5  2 -1</clus>
</clustering>
</event>
<event>
 9    1  0.8429841E-005  0.1109860E+03  0.7546771E-02  0.1261646E+00
          3   -1    0    0  502    0 -0.00000000000E+00  0.00000000000E+00  0.23911362871E+03  0.23911362871E+03  0.00000000000E+00 0. -1.
         21   -1    0    0  501  502  0.00000000000E+00 -0.00000000000E+00 -0.26582332336E+03  0.26582332336E+03  0.00000000000E+00 0. -1.
        -24    2    1    2    0    0  0.67182024893E+02 -0.28914433619E+02  0.20068862926E+03  0.22825796035E+03  0.80475472085E+02 0.  0.
         23    2    1    2    0    0 -0.24626257638E+02 -0.46342896888E+01 -0.88198694217E+02  0.12730346807E+03  0.88313272580E+02 0.  0.
         11    1    3    3    0    0  0.49679680279E+02 -0.11907539450E+02  0.19707353619E+03  0.20358742298E+03  0.00000000000E+00 0. -1.
        -12    1    3    3    0    0  0.17502344614E+02 -0.17006894169E+02  0.36150930724E+01  0.24670537371E+02  0.00000000000E+00 0.  1.
        -13    1    4    4    0    0 -0.45469525217E+02  0.11910565019E+02 -0.14876796952E+02  0.49301707577E+02  0.00000000000E+00 0.  1.
         13    1    4    4    0    0  0.20843267579E+02 -0.16544854708E+02 -0.73321897266E+02  0.78001760489E+02  0.00000000000E+00 0. -1.
          4    1    1    2  501    0 -0.42555767255E+02  0.33548723308E+02 -0.13919962969E+03  0.14937552366E+03  0.00000000000E+00 0. -1.
<scales pt_clust_5="13000.00000" pt_clust_6="13000.00000" pt_clust_7="13000.00000" pt_clust_8="13000.00000" pt_clust_9="54.18958"></scales>
<clustering>
<clus scale="   54.190">  2  9  1 -1</clus>
<clus scale="   80.475">  5  6 -1 -1</clus>
<clus scale="   88.313">  7  8 -1 -1</clus>
<clus scale="  104.857">  1  5  2 -1</clus>
<clus scale="   54.190">  2  5  1 -1</clus>
</clustering>
</event>
<event>
 9    1  0.8429841E-005  0.1640412E+03  0.7546771E-02  0.1208341E+00
          1   -1    0    0  502    0 -0.00000000000E+00  0.00000000000E+00  0.63768412701E+03  0.63768412701E+03  0.00000000000E+00 0. -1.
         21   -1    0    0  501  502  0.00000000000E+00 -0.00000000000E+00 -0.14199749434E+03  0.14199749434E+03  0.00000000000E+00 0.  1.
         23    2    1    2    0    0 -0.15353541132E+02 -0.25327840685E+02 -0.80032673241E+02  0.12559534874E+03  0.92150594686E+02 0.  0.
        -24    2    1    2    0    0  0.31121008094E+02 -0.12610901325E+03  0.34853187202E+03  0.38059794770E+03  0.80674231403E+02 0.  0.
         13    1    4    4    0    0  0.70526721844E+01 -0.12642725860E+03  0.31337671611E+03  0.33799194976E+03  0.00000000000E+00 0. -1.
        -14    1    4    4    0    0  0.24068335910E+02  0.31824534849E+00  0.35155155908E+02  0.42605997940E+02  0.00000000000E+00 0.  1.
        -11    1    3    3    0    0 -0.39318955273E+02  0.20643439547E+02 -0.43574803932E+02  0.62216520136E+02  0.00000000000E+00 0. -1.
         11    1    3    3    0    0  0.23965414141E+02 -0.45971280232E+02 -0.36457869309E+02  0.63378828608E+02  0.00000000000E+00 0.  1.
          2    1    1    2  501    0 -0.15767466963E+02  0.15143685393E+03  0.22718743389E+03  0.27348832491E+03  0.00000000000E+00 0. -1.
<scales pt_clust_5="13000.00000" pt_clust_6="13000.00000" pt_clust_7="13000.00000" pt_clust_8="13000.00000" pt_clust_9="142.83273"></scales>
<clustering>
<clus scale="   80.674">  5  6 -1 -1</clus>
<clus scale="   92.151">  7  8 -1 -1</clus>
<clus scale="   96.793">  1  7  2 -1</clus>
<clus scale="  142.833">  2  9  1 -1</clus>
<clus scale="  142.833">  2  5  1 -1</clus>
</clustering>
</event>
<event>
 9    1  0.8429841E-005  0.1084333E+03  0.7546771E-02  0.1266730E+00
         21   -1    0    0  501  502  0.00000000000E+00  0.00000000000E+00  0.78518487199E+02  0.78518487199E+02  0.00000000000E+00 0. -1.
         -2   -1    0    0    0  501 -0.00000000000E+00 -0.00000000000E+00 -0.30939842280E+03  0.30939842280E+03  0.00000000000E+00 0.  1.
        -24    2    1    2    0    0  0.64883257864E+02 -0.35862451680E+02 -0.20072152028E+03  0.22953398991E+03  0.83070880755E+02 0.  0.
         23    2    1    2    0    0 -0.29165131376E+02 -0.81400793262E+01 -0.33411979469E+02  0.10161503327E+03  0.91062554511E+02 0.  0.
         11    1    3    3    0    0  0.31319896314E+02  0.74111951887E+01 -0.14270404632E+02  0.35206621076E+02  0.00000000000E+00 0. -1.
        -12    1    3    3    0    0  0.33563361550E+02 -0.43273646868E+02 -0.18645111565E+03  0.19432736883E+03  0.00000000000E+00 0.  1.
        -11    1    4    4    0    0 -0.54459720987E+02 -0.16950456394E+01  0.54956168835E+01  0.54762543720E+02  0.00000000000E+00 0. -1.
         11    1    4    4    0    0  0.25294589611E+02 -0.64450336869E+01 -0.38907596352E+02  0.46852489547E+02  0.00000000000E+00 0.  1.
         -1    1    1    2    0  502 -0.35718126488E+02  0.44002531006E+02  0.32535641456E+01  0.56767886823E+02  0.00000000000E+00 0.  1.
<scales pt_clust_5="13000.00000" pt_clust_6="13000.00000" pt_clust_7="13000.00000" pt_clust_8="13000.00000" pt_clust_9="56.67457"></scales>
<clustering>
<clus scale="   56.675">  1  9  2 -1</clus>
<clus scale="   83.071">  5  6 -1 -1</clus>
<clus scale="   91.063">  7  8 -1 -1</clus>
<clus scale="  101.814">  2  5  1 -1</clus>
<clus scale="   56.675">  1  5  2 -1</clus>
</clustering>
</event>
<event>
 9    1  0.8429841E-005  0.1069342E+03  0.7546771E-02  0.1269120E+00
          3   -1    0    0  502    0 -0.00000000000E+00  0.00000000000E+00  0.44757864214E+03  0.44757864214E+03  0.00000000000E+00 0. -1.
         21   -1    0    0  501  502  0.00000000000E+00 -0.00000000000E+00 -0.39989949999E+02  0.39989949999E+02  0.00000000000E+00 0. -1.
        -24    2    1    2    0    0 -0.56054763361E+02 -0.35369987372E+02  0.27891485826E+03  0.29811685155E+03  0.81773996607E+02 0.  0.
         23    2    1    2    0    0  0.50071366278E+02 -0.39615571898E+00  0.84361695107E+02  0.13219282272E+03  0.88604447501E+02 0.  0.
         13    1    3    3    0    0 -0.39559535974E+01 -0.40937563347E+02  0.19420623831E+03  0.19851346720E+03  0.00000000000E+00 0. -1.
        -14    1    3    3    0    0 -0.52098809763E+02  0.55675759747E+01  0.84708619948E+02  0.99603384352E+02  0.00000000000E+00 0.  1.
        -11    1    4    4    0    0  0.65645906330E+00  0.38503757202E+02  0.37625370008E+02  0.53839007471E+02  0.00000000000E+00 0.  1.
         11    1    4    4    0    0  0.49414907215E+02 -0.38899912921E+02  0.46736325099E+02  0.78353815249E+02  0.00000000000E+00 0. -1.
          4    1    1    2  501    0  0.59833970829E+01  0.35766143091E+02  0.44312138774E+02  0.57258917865E+02  0.00000000000E+00 0. -1.
<scales pt_clust_5="13000.00000" pt_clust_6="13000.00000" pt_clust_7="13000.00000" pt_clust_8="13000.00000" pt_clust_9="36.26318"></scales>
<clustering>
<clus scale="   36.263">  2  9  1 -1</clus>
<clus scale="   81.774">  5  6 -1 -1</clus>
<clus scale="   88.604">  7  8 -1 -1</clus>
<clus scale="  101.347">  1  5  2 -1</clus>
<clus scale="   36.263">  2  5  1 -1</clus>
</clustering>
</event>
<event>
 9    1  0.8429841E-005  0.1020385E+03  0.7546771E-02  0.1283622E+00
         21   -1    0    0  501  502  0.00000000000E+00  0.00000000000E+00  0.93551704343E+02  0.93551704343E+02  0.00000000000E+00 0. -1.
         -2   -1    0    0    0  501 -0.00000000000E+00 -0.00000000000E+00 -0.20821143035E+03  0.20821143035E+03  0.00000000000E+00 0.  1.
         23    2    1    2    0    0  0.29023569635E+02 -0.91157580331E+00 -0.11648675929E+03  0.15229662585E+03  0.93711784687E+02 0.  0.
        -24    2    1    2    0    0 -0.69033693594E+02  0.70019841321E+01 -0.14452967925E+02  0.10584379077E+03  0.78608785321E+02 0.  0.
         11    1    4    4    0    0 -0.17543124453E+02 -0.34351842334E+02 -0.18897521696E+01  0.38618408183E+02  0.00000000000E+00 0. -1.
        -12    1    4    4    0    0 -0.51490569141E+02  0.41353826466E+02 -0.12563215756E+02  0.67225382587E+02  0.00000000000E+00 0.  1.
        -11    1    3    3    0    0  0.45768654784E+02  0.35428626070E+02 -0.73794289763E+02  0.93784617650E+02  0.00000000000E+00 0. -1.
         11    1    3    3    0    0 -0.16745085150E+02 -0.36340201873E+02 -0.42692469529E+02  0.58512008198E+02  0.00000000000E+00 0.  1.
         -1    1    1    2    0  502  0.40010123959E+02 -0.60904083288E+01  0.16280001211E+02  0.43622718075E+02  0.00000000000E+00 0.  1.
<scales pt_clust_5="13000.00000" pt_clust_6="13000.00000" pt_clust_7="13000.00000" pt_clust_8="13000.00000" pt_clust_9="40.47102"></scales>
<clustering>
<clus scale="   40.471">  1  9  2 -1</clus>
<clus scale="   78.609">  5  6 -1 -1</clus>
<clus scale="   88.370">  1  5  2 -1</clus>
<clus scale="   93.712">  7  8 -1 -1</clus>
<clus scale="   40.471">  1  5  2 -1</clus>
</clustering>
</event>
<event>
 9    1  0.8429841E-005  0.3271997E+03  0.7546771E-02  0.1072626E+00
         21   -1    0    0  501  502  0.00000000000E+00  0.00000000000E+00  0.11640041737E+03  0.11640041737E+03  0.00000000000E+00 0. -1.
          1   -1    0    0  502    0 -0.00000000000E+00 -0.00000000000E+00 -0.15351207186E+04  0.15351207186E+04  0.00000000000E+00 0. -1.
        -24    2    1    2    0    0  0.23125861391E+03 -0.22430799273E+03 -0.10587262217E+04  0.11096062739E+04  0.80809952214E+02 0.  0.
         23    2    1    2    0    0 -0.20078978564E+03  0.20805512982E+03 -0.16647707331E+03  0.34534086396E+03  0.89119141140E+02 0.  0.
         13    1    3    3    0    0  0.56021514005E+02 -0.94580136445E+02 -0.44235936214E+03  0.45581313881E+03  0.00000000000E+00 0. -1.
        -14    1    3    3    0    0  0.17523709990E+03 -0.12972785628E+03 -0.61636685960E+03  0.65379313509E+03  0.00000000000E+00 0.  1.
        -13    1    4    4    0    0 -0.66316554206E+02  0.12393368144E+03 -0.10404344337E+03  0.17487847456E+03  0.00000000000E+00 0. -1.
         13    1    4    4    0    0 -0.13447323144E+03  0.84121448387E+02 -0.62433629934E+02  0.17046238939E+03  0.00000000000E+00 0.  1.
          2    1    1    2  501    0 -0.30468828267E+02  0.16252862905E+02 -0.19351700615E+03  0.19657399807E+03  0.00000000000E+00 0. -1.
<scales pt_clust_5="13000.00000" pt_clust_6="13000.00000" pt_clust_7="13000.00000" pt_clust_8="13000.00000" pt_clust_9="34.53268"></scales>
<clustering>
<clus scale="   34.533">  1  9  2 -1</clus>
<clus scale="   80.810">  5  6 -1 -1</clus>
<clus scale="   89.119">  7  8 -1 -1</clus>
<clus scale="  325.035">  2  5  1 -1</clus>
<clus scale="   34.533">  1  5  2 -1</clus>
</clustering>
</event>
<event>
 9    1  0.8429841E-005  0.1640058E+03  0.7546771E-02  0.1185933E+00
         21   -1    0    0  501  502  0.00000000000E+00  0.00000000000E+00  0.14525886014E+03  0.14525886014E+03  0.00000000000E+00 0.  1.
          1   -1    0    0  502    0 -0.00000000000E+00 -0.00000000000E+00 -0.62009548615E+03  0.62009548615E+03  0.00000000000E+00 0. -1.
         23    2    1    2    0    0 -0.11235848821E+03 -0.67182075223E+02 -0.37060406911E+03  0.40346526392E+03  0.91098748838E+02 0.  0.
        -24    2    1    2    0    0  0.16733081625E+03  0.65515097805E+02  0.46014012691E+02  0.20189293449E+03  0.79697161358E+02 0.  0.
         11    1    4    4    0    0  0.56278917153E+02 -0.16049906412E+02  0.89099606934E+01  0.59197157122E+02  0.00000000000E+00 0. -1.
        -12    1    4    4    0    0  0.11105189909E+03  0.81565004217E+02  0.37104051997E+02  0.14269577737E+03  0.00000000000E+00 0.  1.
        -13    1    3    3    0    0 -0.98631507119E+02 -0.83572976599E+01 -0.22319485862E+03  0.24415970907E+03  0.00000000000E+00 0. -1.
         13    1    3    3    0    0 -0.13726981087E+02 -0.58824777563E+02 -0.14740921049E+03  0.15930555484E+03  0.00000000000E+00 0.  1.
          2    1    1    2  501    0 -0.54972328040E+02  0.16669774174E+01 -0.15024656959E+03  0.15999614788E+03  0.00000000000E+00 0. -1.
<scales pt_clust_5="13000.00000" pt_clust_6="13000.00000" pt_clust_7="13000.00000" pt_clust_8="13000.00000" pt_clust_9="54.99762"></scales>
<clustering>
<clus scale="   54.998">  1  9  2 -1</clus>
<clus scale="   79.697">  5  6 -1 -1</clus>
<clus scale="   91.099">  7  8 -1 -1</clus>
<clus scale="  157.957">  1  5  2 -1</clus>
<clus scale="   54.998">  1  5  2 -1</clus>
</clustering>
</event>
<event>
 9    1  0.8429841E-005  0.1306321E+03  0.7546771E-02  0.1243958E+00
         21   -1    0    0  501  502  0.00000000000E+00  0.00000000000E+00  0.62043277678E+02  0.62043277678E+02  0.00000000000E+00 0. -1.
          1   -1    0    0  502    0 -0.00000000000E+00 -0.00000000000E+00 -0.59437203299E+03  0.59437203299E+03  0.00000000000E+00 0. -1.
        -24    2    1    2    0    0  0.43425923258E+02 -0.14975715240E+02 -0.35701593109E+03  0.36853429456E+03  0.79038397977E+02 0.  0.
         23    2    1    2    0    0  0.59539634822E+02  0.45996404149E+02 -0.11165070938E+03  0.16291280352E+03  0.91728203603E+02 0.  0.
         11    1    3    3    0    0  0.66527914454E+02 -0.11795963093E+02 -0.28177427730E+03  0.28976171503E+03  0.00000000000E+00 0. -1.
        -12    1    3    3    0    0 -0.23101991196E+02 -0.31797521470E+01 -0.75241653791E+02  0.78772579532E+02  0.00000000000E+00 0.  1.
        -11    1    4    4    0    0  0.17748572312E+02 -0.28117071412E+02 -0.36725648426E+02  0.49541445036E+02  0.00000000000E+00 0.  1.
         11    1    4    4    0    0  0.41791062510E+02  0.74113475562E+02 -0.74925060957E+02  0.11337135849E+03  0.00000000000E+00 0. -1.
          2    1    1    2  501    0 -0.10296555808E+03 -0.31020688910E+02 -0.63662114832E+02  0.12496821258E+03  0.00000000000E+00 0. -1.
<scales pt_clust_5="13000.00000" pt_clust_6="13000.00000" pt_clust_7="13000.00000" pt_clust_8="13000.00000" pt_clust_9="93.00899"></scales>
<clustering>
<clus scale="   79.038">  5  6 -1 -1</clus>
<clus scale="   91.417">  2  5  1 -1</clus>
<clus scale="   91.728">  7  8 -1 -1</clus>
<clus scale="   93.009">  1  9  2 -1</clus>
<clus scale="   93.009">  1  5  2 -1</clus>
</clustering>
</event>
<event>
 9    1  0.8429841E-005  0.9695993E+02  0.7546771E-02  0.1293324E+00
         -4   -1    0    0    0  501 -0.00000000000E+00  0.00000000000E+00  0.63845360544E+03  0.63845360544E+03  0.00000000000E+00 0.  1.
         21   -1    0    0  501  502  0.00000000000E+00 -0.00000000000E+00 -0.40196572288E+02  0.40196572288E+02  0.00000000000E+00 0.  1.
        -24    2    1    2    0    0  0.35059169571E+02 -0.48921657702E+01  0.49746513245E+03  0.50521784792E+03  0.80749224112E+02 0.  0.
         23    2    1    2    0    0  0.11749587384E+02 -0.26031504146E+01  0.60005501866E+02  0.11089618168E+03  0.92479585111E+02 0.  0.
         11    1    3    3    0    0  0.39545361428E+01  0.32829268487E+02  0.11562406896E+03  0.12025940523E+03  0.00000000000E+00 0. -1.
        -12    1    3    3    0    0  0.31104633428E+02 -0.37721434257E+02  0.38184106350E+03  0.38495844269E+03  0.00000000000E+00 0.  1.
        -13    1    4    4    0    0  0.89882548109E+01 -0.37796669714E+02  0.64512828496E+02  0.75307914634E+02  0.00000000000E+00 0.  1.
         13    1    4    4    0    0  0.27613325733E+01  0.35193519300E+02 -0.45073266300E+01  0.35588267050E+02  0.00000000000E+00 0. -1.
         -3    1    1    2    0  502 -0.46808756955E+02  0.74953161848E+01  0.40786398835E+02  0.62536148125E+02  0.00000000000E+00 0.  1.
<scales pt_clust_5="13000.00000" pt_clust_6="13000.00000" pt_clust_7="13000.00000" pt_clust_8="13000.00000" pt_clust_9="47.40506"></scales>
<clustering>
<clus scale="   47.405">  2  9  1 -1</clus>
<clus scale="   80.749">  5  6 -1 -1</clus>
<clus scale="   85.844">  1  5  2 -1</clus>
<clus scale="   92.480">  7  8 -1 -1</clus>
<clus scale="   47.405">  2  5  1 -1</clus>
</clustering>
</event>
<event>
 9    1  0.8429841E-005  0.1548902E+03  0.7546771E-02  0.1215443E+00
          1   -1    0    0  502    0 -0.00000000000E+00  0.00000000000E+00  0.18255937653E+03  0.18255937653E+03  0.00000000000E+00 0. -1.
         21   -1    0    0  501  502  0.00000000000E+00 -0.00000000000E+00 -0.20961255556E+03  0.20961255556E+03  0.00000000000E+00 0. -1.
        -24    2    1    2    0    0 -0.29042349370E+02 -0.18567221984E+02  0.31700860450E+02  0.10380863656E+03  0.92644960365E+02 0.  0.
         23    2    1    2    0    0 -0.10922600887E+03  0.86022510416E+01 -0.30978427911E+02  0.14698110382E+03  0.92948707071E+02 0.  0.
         13    1    3    3    0    0 -0.47749124684E+02 -0.27437121934E+02  0.51327251420E+02  0.75281214831E+02  0.00000000000E+00 0. -1.
        -14    1    3    3    0    0  0.18706775314E+02  0.88698999501E+01 -0.19626390970E+02  0.28527421725E+02  0.00000000000E+00 0.  1.
        -11    1    4    4    0    0 -0.10702432877E+03 -0.18154690672E+02 -0.35663170002E+01  0.10861177818E+03  0.00000000000E+00 0. -1.
         11    1    4    4    0    0 -0.22016800983E+01  0.26756941713E+02 -0.27412110910E+02  0.38369325635E+02  0.00000000000E+00 0.  1.
          2    1    1    2  501    0  0.13826835824E+03  0.99649709419E+01 -0.27775611574E+02  0.14138219172E+03  0.00000000000E+00 0. -1.
<scales pt_clust_5="13000.00000" pt_clust_6="13000.00000" pt_clust_7="13000.00000" pt_clust_8="13000.00000" pt_clust_9="123.90123"></scales>
<clustering>
<clus scale="   92.645">  5  6 -1 -1</clus>
<clus scale="   92.949">  7  8 -1 -1</clus>
<clus scale="   98.850">  1  5  2 -1</clus>
<clus scale="  123.901">  2  9  1 -1</clus>
<clus scale="  123.901">  2  5  1 -1</clus>
</clustering>
</event>
<event>
 9    1  0.8429841E-005  0.9115410E+02  0.7546771E-02  0.1306621E+00
          1   -1    0    0  502    0 -0.00000000000E+00  0.00000000000E+00  0.95756338725E+02  0.95756338725E+02  0.00000000000E+00 0. -1.
         21   -1    0    0  501  502  0.00000000000E+00 -0.00000000000E+00 -0.24267221905E+03  0.24267221905E+03  0.00000000000E+00 0. -1.
        -24    2    1    2    0    0  0.74740930295E+01  0.10225855866E+02  0.51619226763E+02  0.96465142803E+02  0.80501857181E+02 0.  0.
         23    2    1    2    0    0  0.16142430505E+02  0.11292217177E+02 -0.92176978074E+02  0.13091018783E+03  0.90844866446E+02 0.  0.
         11    1    3    3    0    0  0.27477816416E+02 -0.26153262085E+02  0.13985358222E+02  0.40430356878E+02  0.00000000000E+00 0. -1.
        -12    1    3    3    0    0 -0.20003723387E+02  0.36379117951E+02  0.37633868541E+02  0.56034785925E+02  0.00000000000E+00 0.  1.
        -13    1    4    4    0    0 -0.34528291973E+02  0.27324277418E+01 -0.62797442040E+02  0.71716022162E+02  0.00000000000E+00 0.  1.
         13    1    4    4    0    0  0.50670722478E+02  0.85597894348E+01 -0.29379536034E+02  0.59194165669E+02  0.00000000000E+00 0. -1.
          2    1    1    2  501    0 -0.23616523535E+02 -0.21518073043E+02 -0.10635812901E+03  0.11105322714E+03  0.00000000000E+00 0. -1.
<scales pt_clust_5="13000.00000" pt_clust_6="13000.00000" pt_clust_7="13000.00000" pt_clust_8="13000.00000" pt_clust_9="31.94945"></scales>
<clustering>
<clus scale="   31.949">  2  9  1 -1</clus>
<clus scale="   80.502">  5  6 -1 -1</clus>
<clus scale="   80.851">  1  5  2 -1</clus>
<clus scale="   90.845">  7  8 -1 -1</clus>
<clus scale="   31.949">  2  5  1 -1</clus>
</clustering>
</event>
<event>
 9    1  0.8429841E-005  0.9981936E+02  0.7546771E-02  0.1285213E+00
         21   -1    0    0  501  502  0.00000000000E+00  0.00000000000E+00  0.26637826441E+03  0.26637826441E+03  0.00000000000E+00 0.  1.
          1   -1    0    0  502    0 -0.00000000000E+00 -0.00000000000E+00 -0.70952997261E+02  0.70952997261E+02  0.00000000000E+00 0. -1.
        -24    2    1    2    0    0 -0.50190358539E+01  0.48807873196E+02 -0.43709333328E+01  0.94870662817E+02  0.81079827320E+02 0.  0.
         23    2    1    2    0    0  0.84519908884E-01 -0.27092787715E+02  0.89598570882E+02  0.13003545952E+03  0.90262342859E+02 0.  0.
         13    1    3    3    0    0 -0.31767646170E+02  0.50400718878E+02 -0.21190466394E+02  0.63233311416E+02  0.00000000000E+00 0. -1.
        -14    1    3    3    0    0  0.26748610316E+02 -0.15928456824E+01  0.16819533062E+02  0.31637351400E+02  0.00000000000E+00 0.  1.
        -13    1    4    4    0    0  0.26663452104E+02  0.97098577423E+01  0.78257594178E+02  0.83243450565E+02  0.00000000000E+00 0.  1.
         13    1    4    4    0    0 -0.26578932195E+02 -0.36802645458E+02  0.11340976704E+02  0.46792008954E+02  0.00000000000E+00 0. -1.
          2    1    1    2  501    0  0.49345159450E+01 -0.21715085481E+02  0.11019762960E+03  0.11242513933E+03  0.00000000000E+00 0. -1.
<scales pt_clust_5="13000.00000" pt_clust_6="13000.00000" pt_clust_7="13000.00000" pt_clust_8="13000.00000" pt_clust_9="22.26869"></scales>
<clustering>
<clus scale="   22.269">  1  9  2 -1</clus>
<clus scale="   81.080">  5  6 -1 -1</clus>
<clus scale="   90.262">  7  8 -1 -1</clus>
<clus scale="   91.600">  2  5  1 -1</clus>
<clus scale="   22.269">  1  5  2 -1</clus>
</clustering>
</event>
<event>
 9    1  0.8429841E-005  0.9082423E+02  0.7546771E-02  0.1303923E+00
         21   -1    0    0  501  502  0.00000000000E+00  0.00000000000E+00  0.11726048226E+03  0.11726048226E+03  0.00000000000E+00 0. -1.
          1   -1    0    0  502    0 -0.00000000000E+00 -0.00000000000E+00 -0.43918611446E+03  0.43918611446E+03  0.00000000000E+00 0. -1.
        -24    2    1    2    0    0 -0.28410098002E+02 -0.37888148373E+01 -0.32945615016E+03  0.34115072213E+03  0.83791237869E+02 0.  0.
         23    2    1    2    0    0 -0.23173097378E+02  0.14746179761E+02 -0.73548439044E+02  0.11857624288E+03  0.88862310515E+02 0.  0.
         11    1    3    3    0    0 -0.43977777365E+02  0.27061579530E+02 -0.23407467602E+03  0.23970258226E+03  0.00000000000E+00 0. -1.
        -12    1    3    3    0    0  0.15567679362E+02 -0.30850394368E+02 -0.95381474142E+02  0.10144813987E+03  0.00000000000E+00 0.  1.
        -13    1    4    4    0    0 -0.93884392320E+01  0.47153598769E+02 -0.15202082428E+02  0.50425271226E+02  0.00000000000E+00 0.  1.
         13    1    4    4    0    0 -0.13784658147E+02 -0.32407419008E+02 -0.58346356616E+02  0.68150971654E+02  0.00000000000E+00 0. -1.
          2    1    1    2  501    0  0.51583195381E+02 -0.10957364923E+02  0.81078956997E+02  0.96719631717E+02  0.00000000000E+00 0. -1.
<scales pt_clust_5="13000.00000" pt_clust_6="13000.00000" pt_clust_7="13000.00000" pt_clust_8="13000.00000" pt_clust_9="52.73414"></scales>
<clustering>
<clus scale="   52.734">  1  9  2 -1</clus>
<clus scale="   83.791">  5  6 -1 -1</clus>
<clus scale="   85.869">  2  5  1 -1</clus>
<clus scale="   88.862">  7  8 -1 -1</clus>
<clus scale="   52.734">  1  5  2 -1</clus>
</clustering>
</event>
<event>
 9    1  0.8429841E-005  0.9929318E+02  0.7546771E-02  0.1288018E+00
          1   -1    0    0  502    0 -0.00000000000E+00  0.00000000000E+00  0.13473885740E+03  0.13473885740E+03  0.00000000000E+00 0. -1.
         21   -1    0    0  501  502  0.00000000000E+00 -0.00000000000E+00 -0.18623910995E+03  0.18623910995E+03  0.00000000000E+00 0. -1.
         23    2    1    2    0    0 -0.44484931893E+02 -0.16752828976E+02  0.80135066041E+02  0.13146087943E+03  0.92740323303E+02 0.  0.
        -24    2    1    2    0    0 -0.25258327988E+01  0.80830573485E+01 -0.51541185244E+02  0.96241972632E+02  0.80835065858E+02 0.  0.
         13    1    4    4    0    0 -0.27475773792E+02  0.25960038888E+02 -0.53476915546E+02  0.65487573332E+02  0.00000000000E+00 0. -1.
        -14    1    4    4    0    0  0.24949940993E+02 -0.17876981540E+02  0.19357303023E+01  0.30754399300E+02  0.00000000000E+00 0.  1.
        -11    1    3    3    0    0 -0.25236451949E+02 -0.53828047021E+02  0.62070649072E+02  0.85948255534E+02  0.00000000000E+00 0. -1.
         11    1    3    3    0    0 -0.19248479944E+02  0.37075218046E+02  0.18064416969E+02  0.45512623894E+02  0.00000000000E+00 0.  1.
          2    1    1    2  501    0  0.47010764692E+02  0.86697716272E+01 -0.80094133341E+02  0.93275115292E+02  0.00000000000E+00 0. -1.
<scales pt_clust_5="13000.00000" pt_clust_6="13000.00000" pt_clust_7="13000.00000" pt_clust_8="13000.00000" pt_clust_9="47.80352"></scales>
<clustering>
<clus scale="   47.804">  2  9  1 -1</clus>
<clus scale="   80.835">  5  6 -1 -1</clus>
<clus scale="   88.276">  2  5  1 -1</clus>
<clus scale="   92.740">  7  8 -1 -1</clus>
<clus scale="   47.804">  2  5  1 -1</clus>
</clustering>
</event>
<event>
 9    1  0.8429841E-005  0.1385054E+03  0.7546771E-02  0.1216891E+00
         21   -1    0    0  501  502  0.00000000000E+00  0.00000000000E+00  0.48482665751E+03  0.48482665751E+03  0.00000000000E+00 0. -1.
          1   -1    0    0  502    0 -0.00000000000E+00 -0.00000000000E+00 -0.12027855594E+03  0.12027855594E+03  0.00000000000E+00 0. -1.
        -24    2    1    2    0    0  0.42881677562E+01  0.13062259995E+03 -0.15904745950E+02  0.15474751581E+03  0.81321465221E+02 0.  0.
         23    2    1    2    0    0 -0.42727839148E+01 -0.71557669296E+02  0.68487383369E+02  0.13285003303E+03  0.88429932022E+02 0.  0.
         13    1    3    3    0    0 -0.36226058481E+02  0.84186042178E+02 -0.16477709351E+02  0.93118912773E+02  0.00000000000E+00 0. -1.
        -14    1    3    3    0    0  0.40514226237E+02  0.46436557767E+02  0.57296340074E+00  0.61628603034E+02  0.00000000000E+00 0.  1.
        -13    1    4    4    0    0  0.15886437245E+02 -0.74101427775E+02  0.79419799971E+02  0.10977661460E+03  0.00000000000E+00 0.  1.
         13    1    4    4    0    0 -0.20159221159E+02  0.25437584789E+01 -0.10932416603E+02  0.23073418423E+02  0.00000000000E+00 0. -1.
          2    1    1    2  501    0 -0.15383841354E-01 -0.59064930649E+02  0.31196546415E+03  0.31750766462E+03  0.00000000000E+00 0. -1.
<scales pt_clust_5="13000.00000" pt_clust_6="13000.00000" pt_clust_7="13000.00000" pt_clust_8="13000.00000" pt_clust_9="59.06493"></scales>
<clustering>
<clus scale="   59.065">  1  9  2 -1</clus>
<clus scale="   81.321">  5  6 -1 -1</clus>
<clus scale="   88.430">  7  8 -1 -1</clus>
<clus scale="  134.079">  2  5  1 -1</clus>
<clus scale="   59.065">  1  5  2 -1</clus>
</clustering>
</event>
<event>
 9    1  0.8429841E-005  0.1143859E+03  0.7546771E-02  0.1256043E+00
         -4   -1    0    0    0  501 -0.00000000000E+00  0.00000000000E+00  0.15852154082E+03  0.15852154082E+03  0.00000000000E+00 0.  1.
         21   -1    0    0  501  502  0.00000000000E+00 -0.00000000000E+00 -0.24097835566E+03  0.24097835566E+03  0.00000000000E+00 0. -1.
        -24    2    1    2    0    0  0.44820173461E+01 -0.60411828939E+02  0.42496828243E+02  0.11071904410E+03  0.82359266395E+02 0.  0.
         23    2    1    2    0    0 -0.91063511437E+02  0.88214966713E+02 -0.12084507407E+03  0.19775201119E+03  0.91803499578E+02 0.  0.
         11    1    3    3    0    0 -0.36397812585E+02 -0.44015049313E+02  0.31887991949E+02  0.65413831546E+02  0.00000000000E+00 0. -1.
        -12    1    3    3    0    0  0.40879829932E+02 -0.16396779627E+02  0.10608836294E+02  0.45305212557E+02  0.00000000000E+00 0.  1.
        -13    1    4    4    0    0 -0.13348629961E+02  0.65749823672E+02 -0.23289413507E+02  0.71018462502E+02  0.00000000000E+00 0.  1.
         13    1    4    4    0    0 -0.77714881476E+02  0.22465143041E+02 -0.97555660563E+02  0.12673354869E+03  0.00000000000E+00 0. -1.
         -3    1    1    2    0  502  0.86581494091E+02 -0.27803137774E+02 -0.41085690061E+01  0.91028841190E+02  0.00000000000E+00 0.  1.
<scales pt_clust_5="13000.00000" pt_clust_6="13000.00000" pt_clust_7="13000.00000" pt_clust_8="13000.00000" pt_clust_9="90.93612"></scales>
<clustering>
<clus scale="   82.359">  5  6 -1 -1</clus>
<clus scale="   90.936">  2  9  1 -1</clus>
<clus scale="   91.803">  7  8 -1 -1</clus>
<clus scale="  106.955">  1  5  2 -1</clus>
<clus scale="   90.936">  2  5  1 -1</clus>
</clustering>
</event>
<event>
 9    1  0.8429841E-005  0.1924472E+03  0.7546771E-02  0.1157490E+00
         -2   -1    0    0    0  501 -0.00000000000E+00  0.00000000000E+00  0.27782139544E+03  0.27782139544E+03  0.00000000000E+00 0.  1.
         21   -1    0    0  501  502  0.00000000000E+00 -0.00000000000E+00 -0.35320329621E+03  0.35320329621E+03  0.00000000000E+00 0.  1.
         23    2    1    2    0    0 -0.54935166934E+02 -0.16351356192E+03  0.19534272828E+03  0.27564372123E+03  0.89811592015E+02 0.  0.
        -24    2    1    2    0    0  0.77356578219E+02  0.13556444409E+03 -0.26768142649E+03  0.31942079866E+03  0.77553477274E+02 0.  0.
         11    1    4    4    0    0  0.49103285702E+02  0.39519345615E+02 -0.52281591555E+02  0.81891856495E+02  0.00000000000E+00 0. -1.
        -12    1    4    4    0    0  0.28253292517E+02  0.96045098474E+02 -0.21539983493E+03  0.23752894217E+03  0.00000000000E+00 0.  1.
        -13    1    3    3    0    0  0.47498822990E+01 -0.11584627139E+03  0.13732069803E+03  0.17972171289E+03  0.00000000000E+00 0. -1.
         13    1    3    3    0    0 -0.59685049233E+02 -0.47667290530E+02  0.58022030254E+02  0.95922008336E+02  0.00000000000E+00 0.  1.
         -1    1    1    2    0  502 -0.22421411285E+02  0.27949117830E+02 -0.30432025684E+01  0.35960171765E+02  0.00000000000E+00 0.  1.
<scales pt_clust_5="13000.00000" pt_clust_6="13000.00000" pt_clust_7="13000.00000" pt_clust_8="13000.00000" pt_clust_9="35.83119"></scales>
<clustering>
<clus scale="   35.831">  2  9  1 -1</clus>
<clus scale="   77.553">  5  6 -1 -1</clus>
<clus scale="   89.812">  7  8 -1 -1</clus>
<clus scale="  187.041">  2  5  1 -1</clus>
<clus scale="   35.831">  2  5  1 -1</clus>
</clustering>
</event>
<event>
 9    1  0.8429841E-005  0.1063649E+03  0.7546771E-02  0.1267571E+00
          1   -1    0    0  502    0 -0.00000000000E+00  0.00000000000E+00  0.92184594660E+02  0.92184594660E+02  0.00000000000E+00 0. -1.
         21   -1    0    0  501  502  0.00000000000E+00 -0.00000000000E+00 -0.42719346675E+03  0.42719346675E+03  0.00000000000E+00 0.  1.
        -24    2    1    2    0    0 -0.55193760527E+02 -0.23211073195E+02 -0.36810399329E+02  0.11445948032E+03  0.90337489537E+02 0.  0.
         23    2    1    2    0    0  0.52523331354E+02 -0.33760738958E+02 -0.32421350732E+03  0.34223125705E+03  0.90051913566E+02 0.  0.
         13    1    3    3    0    0  0.11818196320E+02 -0.28677622912E+02  0.99373114482E+01  0.32570323593E+02  0.00000000000E+00 0. -1.
        -14    1    3    3    0    0 -0.67011956846E+02  0.54665497169E+01 -0.46747710777E+02  0.81889156725E+02  0.00000000000E+00 0.  1.
        -11    1    4    4    0    0  0.32051943472E+02  0.29036548390E+02 -0.11646770835E+03  0.12423838099E+03  0.00000000000E+00 0.  1.
         11    1    4    4    0    0  0.20471387882E+02 -0.62797287348E+02 -0.20774579897E+03  0.21799287606E+03  0.00000000000E+00 0. -1.
          2    1    1    2  501    0  0.26704291727E+01  0.56971812153E+02  0.26015034566E+02  0.62687324042E+02  0.00000000000E+00 0. -1.
<scales pt_clust_5="13000.00000" pt_clust_6="13000.00000" pt_clust_7="13000.00000" pt_clust_8="13000.00000" pt_clust_9="57.03439"></scales>
<clustering>
<clus scale="   57.034">  2  9  1 -1</clus>
<clus scale="   90.052">  7  8 -1 -1</clus>
<clus scale="   90.337">  5  6 -1 -1</clus>
<clus scale="  106.122">  2  7  1 -1</clus>
<clus scale="   57.034">  2  5  1 -1</clus>
</clustering>
</event>
<event>
 9    1  0.8429841E-005  0.1080221E+03  0.7546771E-02  0.1267750E+00
          1   -1    0    0  502    0 -0.00000000000E+00  0.00000000000E+00  0.85859831583E+03  0.85859831583E+03  0.00000000000E+00 0. -1.
         21   -1    0    0  501  502  0.00000000000E+00 -0.00000000000E+00 -0.26984850635E+02  0.26984850635E+02  0.00000000000E+00 0.  1.
        -24    2    1    2    0    0 -0.14908711454E+02  0.72120752140E+02  0.35156373155E+03  0.36866931660E+03  0.83044175561E+02 0.  0.
         23    2    1    2    0    0  0.63929197684E+02 -0.96532835913E+01  0.29427325997E+03  0.31487897448E+03  0.91498026433E+02 0.  0.
         11    1    3    3    0    0  0.15454087565E+02  0.61504806899E+02  0.30832256985E+03  0.31477686887E+03  0.00000000000E+00 0. -1.
        -12    1    3    3    0    0 -0.30362799019E+02  0.10615945241E+02  0.43241161701E+02  0.53892447735E+02  0.00000000000E+00 0.  1.
        -13    1    4    4    0    0  0.25602093986E+02 -0.32798563533E+02  0.43711226643E+02  0.60348026653E+02  0.00000000000E+00 0. -1.
         13    1    4    4    0    0  0.38327103698E+02  0.23145279941E+02  0.25056203332E+03  0.25453094783E+03  0.00000000000E+00 0.  1.
          2    1    1    2  501    0 -0.49020486230E+02 -0.62467468549E+02  0.18577647368E+03  0.20203487538E+03  0.00000000000E+00 0. -1.
<scales pt_clust_5="13000.00000" pt_clust_6="13000.00000" pt_clust_7="13000.00000" pt_clust_8="13000.00000" pt_clust_9="79.40524"></scales>
<clustering>
<clus scale="   79.405">  2  9  1 -1</clus>
<clus scale="   83.044">  5  6 -1 -1</clus>
<clus scale="   91.498">  7  8 -1 -1</clus>
<clus scale="  100.962">  1  5  2 -1</clus>
<clus scale="   79.405">  2  5  1 -1</clus>
</clustering>
</event>
<event>
 9    1  0.8429841E-005  0.1012878E+03  0.7546771E-02  0.1282701E+00
         -2   -1    0    0    0  501 -0.00000000000E+00  0.00000000000E+00  0.53399407056E+02  0.53399407056E+02  0.00000000000E+00 0.  1.
         21   -1    0    0  501  502  0.00000000000E+00 -0.00000000000E+00 -0.48166376951E+03  0.48166376951E+03  0.00000000000E+00 0. -1.
         23    2    1    2    0    0 -0.26272069294E+02  0.33571285923E+02 -0.47829188697E+02  0.11029810000E+03  0.89781884084E+02 0.  0.
        -24    2    1    2    0    0  0.41157799104E+02 -0.54136598157E+02 -0.38508045496E+03  0.39895624751E+03  0.79084732756E+02 0.  0.
         13    1    4    4    0    0  0.23490707580E+02 -0.73365296304E+02 -0.25964901677E+03  0.27083554412E+03  0.00000000000E+00 0. -1.
        -14    1    4    4    0    0  0.17667091524E+02  0.19228698147E+02 -0.12543143818E+03  0.12812070340E+03  0.00000000000E+00 0.  1.
        -13    1    3    3    0    0 -0.57006572839E+02  0.25229161819E+02 -0.14109054883E+02  0.63916550147E+02  0.00000000000E+00 0.  1.
         13    1    3    3    0    0  0.30734503545E+02  0.83421241038E+01 -0.33720133814E+02  0.46381549857E+02  0.00000000000E+00 0. -1.
         -1    1    1    2    0  502 -0.14885729809E+02  0.20565312234E+02  0.46452812013E+01  0.25808829045E+02  0.00000000000E+00 0.  1.
<scales pt_clust_5="13000.00000" pt_clust_6="13000.00000" pt_clust_7="13000.00000" pt_clust_8="13000.00000" pt_clust_9="25.38735"></scales>
<clustering>
<clus scale="   25.387">  2  9  1 -1</clus>
<clus scale="   79.085">  5  6 -1 -1</clus>
<clus scale="   89.782">  7  8 -1 -1</clus>
<clus scale="   91.939">  2  5  1 -1</clus>
<clus scale="   25.387">  2  5  1 -1</clus>
</clustering>
</event>
<event>
 9    1  0.8429841E-005  0.1253094E+03  0.7546771E-02  0.1256643E+00
          1   -1    0    0  502    0 -0.00000000000E+00  0.00000000000E+00  0.68756717366E+03  0.68756717366E+03  0.00000000000E+00 0. -1.
         21   -1    0    0  501  502  0.00000000000E+00 -0.00000000000E+00 -0.43871128876E+02  0.43871128876E+02  0.00000000000E+00 0. -1.
        -24    2    1    2    0    0 -0.47807712558E+01  0.10447409163E+02  0.39708972573E+03  0.40514578513E+03  0.79566656315E+02 0.  0.
         23    2    1    2    0    0  0.59909400963E+02 -0.70416191520E+02  0.12511982009E+03  0.18002430451E+03  0.90588103443E+02 0.  0.
         11    1    3    3    0    0 -0.39108580850E+02  0.80078951981E+00  0.13216512181E+03  0.13783229586E+03  0.00000000000E+00 0. -1.
        -12    1    3    3    0    0  0.34327809595E+02  0.96466196437E+01  0.26492460393E+03  0.26731348928E+03  0.00000000000E+00 0.  1.
        -11    1    4    4    0    0 -0.23164089203E+02 -0.26644178627E+02  0.39081773465E+02  0.52667564027E+02  0.00000000000E+00 0.  1.
         11    1    4    4    0    0  0.83073490166E+02 -0.43772012893E+02  0.86038046620E+02  0.12735674049E+03  0.00000000000E+00 0. -1.
          2    1    1    2  501    0 -0.55128629707E+02  0.59968782357E+02  0.12148649897E+03  0.14626821289E+03  0.00000000000E+00 0. -1.
<scales pt_clust_5="13000.00000" pt_clust_6="13000.00000" pt_clust_7="13000.00000" pt_clust_8="13000.00000" pt_clust_9="86.58088"></scales>
<clustering>
<clus scale="   79.567">  5  6 -1 -1</clus>
<clus scale="   80.392">  1  5  2 -1</clus>
<clus scale="   86.581">  2  9  1 -1</clus>
<clus scale="   90.588">  7  8 -1 -1</clus>
<clus scale="   86.581">  2  5  1 -1</clus>
</clustering>
</event>
<event>
 9    1  0.8429841E-005  0.1797743E+03  0.7546771E-02  0.1170110E+00
          3   -1    0    0  502    0 -0.00000000000E+00  0.00000000000E+00  0.12944712512E+03  0.12944712512E+03  0.00000000000E+00 0. -1.
         21   -1    0    0  501  502  0.00000000000E+00 -0.00000000000E+00 -0.93623546297E+03  0.93623546297E+03  0.00000000000E+00 0.  1.
        -24    2    1    2    0    0 -0.89917453370E+02  0.12254098049E+03  0.52447041863E+02  0.18010075925E+03  0.81142781333E+02 0.  0.
         23    2    1    2    0    0  0.10857791385E+03 -0.94408524502E+02 -0.61802254165E+03  0.64201811826E+03  0.97638462270E+02 0.  0.
         11    1    3    3    0    0 -0.66895099678E+02  0.32087256425E+02  0.44291241601E+02  0.86407525531E+02  0.00000000000E+00 0. -1.
        -12    1    3    3    0    0 -0.23022353692E+02  0.90453724070E+02  0.81558002622E+01  0.93693233723E+02  0.00000000000E+00 0.  1.
        -11    1    4    4    0    0  0.24257677254E+02 -0.11465217850E+02 -0.22956275059E+02  0.35311141170E+02  0.00000000000E+00 0. -1.
         11    1    4    4    0    0  0.84320236593E+02 -0.82943306651E+02 -0.59506626659E+03  0.60670697709E+03  0.00000000000E+00 0.  1.
          4    1    1    2  501    0 -0.18660460478E+02 -0.28132455993E+02 -0.24121283806E+03  0.24356371058E+03  0.00000000000E+00 0. -1.
<scales pt_clust_5="13000.00000" pt_clust_6="13000.00000" pt_clust_7="13000.00000" pt_clust_8="13000.00000" pt_clust_9="33.75867"></scales>
<clustering>
<clus scale="   33.759">  2  9  1 -1</clus>
<clus scale="   81.143">  5  6 -1 -1</clus>
<clus scale="   97.638">  7  8 -1 -1</clus>
<clus scale="  171.376">  1  5  2 -1</clus>
<clus scale="   33.759">  2  5  1 -1</clus>
</clustering>
</event>
<event>
 9    1  0.8429841E-005  0.9577201E+02  0.7546771E-02  0.1294276E+00
         21   -1    0    0  501  502  0.00000000000E+00  0.00000000000E+00  0.40078844590E+03  0.40078844590E+03  0.00000000000E+00 0.  1.
         -2   -1    0    0    0  501 -0.00000000000E+00 -0.00000000000E+00 -0.53586495715E+02  0.53586495715E+02  0.00000000000E+00 0.  1.
         23    2    1    2    0    0 -0.48035694140E+02 -0.33529123644E+02  0.55228216451E+02  0.12141876296E+03  0.90888558479E+02 0.  0.
        -24    2    1    2    0    0 -0.16426216645E+01 -0.76002636073E+01  0.95690638160E+02  0.12634878487E+03  0.82139241505E+02 0.  0.
         11    1    4    4    0    0 -0.19551436795E+02  0.24106509459E+02  0.89943633290E+01  0.32315337701E+02  0.00000000000E+00 0. -1.
        -12    1    4    4    0    0  0.17908815130E+02 -0.31706773067E+02  0.86696274831E+02  0.94033447173E+02  0.00000000000E+00 0.  1.
        -13    1    3    3    0    0  0.24421033046E+02 -0.25241486249E+01  0.29790507559E+02  0.38603529915E+02  0.00000000000E+00 0. -1.
         13    1    3    3    0    0 -0.72456727186E+02 -0.31004975019E+02  0.25437708892E+02  0.82815233044E+02  0.00000000000E+00 0.  1.
         -1    1    1    2    0  502  0.49678315805E+02  0.41129387252E+02  0.19628309557E+03  0.20660739378E+03  0.00000000000E+00 0.  1.
<scales pt_clust_5="13000.00000" pt_clust_6="13000.00000" pt_clust_7="13000.00000" pt_clust_8="13000.00000" pt_clust_9="64.49466"></scales>
<clustering>
<clus scale="   64.495">  1  9  2 -1</clus>
<clus scale="   82.139">  5  6 -1 -1</clus>
<clus scale="   87.512">  1  5  2 -1</clus>
<clus scale="   90.889">  7  8 -1 -1</clus>
<clus scale="   64.495">  1  5  2 -1</clus>
</clustering>
</event>
<event>
 9    1  0.8429841E-005  0.1076952E+03  0.7546771E-02  0.1266746E+00
         21   -1    0    0  501  502  0.00000000000E+00  0.00000000000E+00  0.61947195530E+03  0.61947195530E+03  0.00000000000E+00 0.  1.
          1   -1    0    0  502    0 -0.00000000000E+00 -0.00000000000E+00 -0.61034926169E+02  0.61034926169E+02  0.00000000000E+00 0. -1.
        -24    2    1    2    0    0 -0.12595854232E+02  0.54212705687E+02  0.69128533075E+02  0.12594034296E+03  0.89356269499E+02 0.  0.
         23    2    1    2    0    0  0.84771168886E+02 -0.10848024604E+02  0.43791595182E+03  0.45592088369E+03  0.93753083238E+02 0.  0.
         11    1    3    3    0    0  0.37952008246E+02  0.13250849065E+02  0.27331525165E+02  0.48610206734E+02  0.00000000000E+00 0. -1.
        -12    1    3    3    0    0 -0.50547862478E+02  0.40961856622E+02  0.41797007910E+02  0.77330136229E+02  0.00000000000E+00 0.  1.
        -13    1    4    4    0    0 -0.14533296261E+02 -0.21901859770E+02  0.11139749147E+03  0.11445658245E+03  0.00000000000E+00 0.  1.
         13    1    4    4    0    0  0.99304465147E+02  0.11053835166E+02  0.32651846035E+03  0.34146430124E+03  0.00000000000E+00 0. -1.
          2    1    1    2  501    0 -0.72175314654E+02 -0.43364681083E+02  0.51392544239E+02  0.98645654817E+02  0.00000000000E+00 0. -1.
<scales pt_clust_5="13000.00000" pt_clust_6="13000.00000" pt_clust_7="13000.00000" pt_clust_8="13000.00000" pt_clust_9="84.20082"></scales>
<clustering>
<clus scale="   84.201">  1  9  2 -1</clus>
<clus scale="   89.356">  5  6 -1 -1</clus>
<clus scale="   93.753">  7  8 -1 -1</clus>
<clus scale="  103.890">  2  5  1 -1</clus>
<clus scale="   84.201">  1  5  2 -1</clus>
</clustering>
</event>
<event>
 9    1  0.8429841E-005  0.2331520E+03  0.7546771E-02  0.1142237E+00
         21   -1    0    0  501  502  0.00000000000E+00  0.00000000000E+00  0.77683657992E+03  0.77683657992E+03  0.00000000000E+00 0. -1.
          3   -1    0    0  502    0 -0.00000000000E+00 -0.00000000000E+00 -0.17210547592E+03  0.17210547592E+03  0.00000000000E+00 0. -1.
         23    2    1    2    0    0  0.11656308654E+03  0.30024964536E+02  0.65037901520E+02  0.16440440539E+03  0.91161550223E+02 0.  0.
        -24    2    1    2    0    0  0.11634750630E+03 -0.17317415274E+03  0.43995903633E+03  0.49352916563E+03  0.80504995362E+02 0.  0.
         11    1    4    4    0    0  0.12758468726E+03 -0.15569898177E+03  0.41344755176E+03  0.45984660856E+03  0.00000000000E+00 0. -1.
        -12    1    4    4    0    0 -0.11237180965E+02 -0.17475170975E+02  0.26511484570E+02  0.33682557070E+02  0.00000000000E+00 0.  1.
        -11    1    3    3    0    0  0.19890481086E+02 -0.81812713753E+01 -0.20555867420E+02  0.29750766789E+02  0.00000000000E+00 0.  1.
         11    1    3    3    0    0  0.96672605457E+02  0.38206235911E+02  0.85593768940E+02  0.13465363860E+03  0.00000000000E+00 0. -1.
          4    1    1    2  501    0 -0.23291059284E+03  0.14314918821E+03  0.99734166156E+02  0.29100848483E+03  0.00000000000E+00 0. -1.
<scales pt_clust_5="13000.00000" pt_clust_6="13000.00000" pt_clust_7="13000.00000" pt_clust_8="13000.00000" pt_clust_9="218.81236"></scales>
<clustering>
<clus scale="   80.505">  5  6 -1 -1</clus>
<clus scale="   91.162">  7  8 -1 -1</clus>
<clus scale="  150.993">  2  7  1 -1</clus>
<clus scale="  218.812">  1  9  2 -1</clus>
<clus scale="  218.812">  1  5  2 -1</clus>
</clustering>
</event>
<event>
 9    1  0.8429841E-005  0.1118814E+03  0.7546771E-02  0.1261416E+00
          1   -1    0    0  502    0 -0.00000000000E+00  0.00000000000E+00  0.24987126242E+03  0.24987126242E+03  0.00000000000E+00 0. -1.
         21   -1    0    0  501  502  0.00000000000E+00 -0.00000000000E+00 -0.25130554615E+03  0.25130554615E+03  0.00000000000E+00 0. -1.
         23    2    1    2    0    0  0.25425323649E+02 -0.59200167463E+02  0.20303398277E+03  0.23146197882E+03  0.90557951442E+02 0.  0.
        -24    2    1    2    0    0 -0.49703352988E+02  0.59048994268E+02 -0.65126883558E+02  0.12827414762E+03  0.79091965232E+02 0.  0.
         11    1    4    4    0    0 -0.65818197036E+02  0.29319038690E+02 -0.26100138147E+02  0.76634576414E+02  0.00000000000E+00 0. -1.
        -12    1    4    4    0    0  0.16114844048E+02  0.29729955579E+02 -0.39026745411E+02  0.51639571210E+02  0.00000000000E+00 0.  1.
        -13    1    3    3    0    0 -0.78907516741E+01 -0.73340582650E+02  0.15131517918E+03  0.16833712744E+03  0.00000000000E+00 0. -1.
         13    1    3    3    0    0  0.33316075323E+02  0.14140415187E+02  0.51718803593E+02  0.63124851379E+02  0.00000000000E+00 0.  1.
          2    1    1    2  501    0  0.24278029339E+02  0.15117319496E+00 -0.13934138294E+03  0.14144068213E+03  0.00000000000E+00 0. -1.
<scales pt_clust_5="13000.00000" pt_clust_6="13000.00000" pt_clust_7="13000.00000" pt_clust_8="13000.00000" pt_clust_9="24.27850"></scales>
<clustering>
<clus scale="   24.278">  2  9  1 -1</clus>
<clus scale="   79.092">  5  6 -1 -1</clus>
<clus scale="   90.558">  7  8 -1 -1</clus>
<clus scale="  102.821">  2  5  1 -1</clus>
<clus scale="   24.278">  2  5  1 -1</clus>
</clustering>
</event>
<event>
 9    1  0.8429841E-005  0.1892439E+03  0.7546771E-02  0.1160823E+00
          1   -1    0    0  502    0 -0.00000000000E+00  0.00000000000E+00  0.20017695324E+03  0.20017695324E+03  0.00000000000E+00 0. -1.
         21   -1    0    0  501  502  0.00000000000E+00 -0.00000000000E+00 -0.37806360625E+03  0.37806360625E+03  0.00000000000E+00 0. -1.
        -24    2    1    2    0    0  0.41386328424E+02  0.16720136160E+03 -0.12919433488E+03  0.23029600437E+03  0.81706486650E+02 0.  0.
         23    2    1    2    0    0 -0.10485676189E+03 -0.14136237450E+03 -0.14013857896E+03  0.23367046446E+03  0.63125297691E+02 0.  0.
         13    1    3    3    0    0  0.34275093512E+02  0.13245394929E+03 -0.53871913625E+02  0.14704085757E+03  0.00000000000E+00 0. -1.
        -14    1    3    3    0    0  0.71112349129E+01  0.34747412311E+02 -0.75322421253E+02  0.83255146794E+02  0.00000000000E+00 0.  1.
        -11    1    4    4    0    0 -0.63419412395E+01 -0.54629302379E+02 -0.32166674254E+02  0.63712446427E+02  0.00000000000E+00 0. -1.
         11    1    4    4    0    0 -0.98514820650E+02 -0.86733072125E+02 -0.10797190470E+03  0.16995801803E+03  0.00000000000E+00 0.  1.
          2    1    1    2  501    0  0.63470433465E+02 -0.25838987097E+02  0.91446260829E+02  0.11427409067E+03  0.00000000000E+00 0. -1.
<scales pt_clust_5="13000.00000" pt_clust_6="13000.00000" pt_clust_7="13000.00000" pt_clust_8="13000.00000" pt_clust_9="68.52849"></scales>
<clustering>
<clus scale="   63.125">  7  8 -1 -1</clus>
<clus scale="   68.528">  2  9  1 -1</clus>
<clus scale="   81.706">  5  6 -1 -1</clus>
<clus scale="  181.995">  2  7  1 -1</clus>
<clus scale="   68.528">  2  5  1 -1</clus>
</clustering>
</event>
<event>
 9    1  0.8429841E-005  0.1226705E+03  0.7546771E-02  0.1259670E+00
         -2   -1    0    0    0  501 -0.00000000000E+00  0.00000000000E+00  0.18535844295E+03  0.18535844295E+03  0.00000000000E+00 0.  1.
         21   -1    0    0  501  502  0.00000000000E+00 -0.00000000000E+00 -0.14882002618E+03  0.14882002618E+03  0.00000000000E+00 0.  1.
        -24    2    1    2    0    0 -0.23288699152E+01  0.51669691805E+01  0.90483117491E+02  0.12126218112E+03  0.80530744522E+02 0.  0.
         23    2    1    2    0    0  0.26589232566E+01 -0.86261678517E+02 -0.35721864230E+02  0.12979870512E+03  0.90130489916E+02 0.  0.
         11    1    3    3    0    0  0.18854232446E+02  0.37002260698E+02  0.56388662432E+02  0.70030926231E+02  0.00000000000E+00 0. -1.
        -12    1    3    3    0    0 -0.21183102361E+02 -0.31835291518E+02  0.34094455058E+02  0.51231254888E+02  0.00000000000E+00 0.  1.
        -13    1    4    4    0    0 -0.25903135280E+02 -0.91649783754E+02 -0.22471676524E+02  0.97855155844E+02  0.00000000000E+00 0.  1.
         13    1    4    4    0    0  0.28562058537E+02  0.53881052365E+01 -0.13250187706E+02  0.31943549273E+02  0.00000000000E+00 0. -1.
         -1    1    1    2    0  502 -0.33005334137E+00  0.81094709337E+02 -0.18222836492E+02  0.83117582902E+02  0.00000000000E+00 0.  1.
<scales pt_clust_5="13000.00000" pt_clust_6="13000.00000" pt_clust_7="13000.00000" pt_clust_8="13000.00000" pt_clust_9="83.21385"></scales>
<clustering>
<clus scale="   80.531">  5  6 -1 -1</clus>
<clus scale="   80.730">  1  5  2 -1</clus>
<clus scale="   83.214">  2  9  1 -1</clus>
<clus scale="   90.130">  7  8 -1 -1</clus>
<clus scale="   83.214">  2  5  1 -1</clus>
</clustering>
</event>
<event>
 9    1  0.8429841E-005  0.1400002E+03  0.7546771E-02  0.1229004E+00
         21   -1    0    0  501  502  0.00000000000E+00  0.00000000000E+00  0.80559756559E+02  0.80559756559E+02  0.00000000000E+00 0.  1.
          3   -1    0    0  502    0 -0.00000000000E+00 -0.00000000000E+00 -0.65939263521E+03  0.65939263521E+03  0.00000000000E+00 0. -1.
        -24    2    1    2    0    0 -0.19638541172E+02 -0.53972105253E+02 -0.44151129669E+03  0.45287192172E+03  0.82837744628E+02 0.  0.
         23    2    1    2    0    0  0.78643670687E+02 -0.49280139009E+02 -0.91211250263E+02  0.15953128759E+03  0.92289655468E+02 0.  0.
         13    1    3    3    0    0  0.31170879398E+02 -0.30841089389E+02 -0.16133635323E+03  0.16718916050E+03  0.00000000000E+00 0. -1.
        -14    1    3    3    0    0 -0.50809420570E+02 -0.23131015863E+02 -0.28017494346E+03  0.28568276122E+03  0.00000000000E+00 0.  1.
        -11    1    4    4    0    0  0.98854302677E+02 -0.30920595036E+02 -0.72584782445E+02  0.12647848433E+03  0.00000000000E+00 0.  1.
         11    1    4    4    0    0 -0.20210631989E+02 -0.18359543973E+02 -0.18626467819E+02  0.33052803266E+02  0.00000000000E+00 0. -1.
          4    1    1    2  501    0 -0.59005129516E+02  0.10325224426E+03 -0.46110331693E+02  0.12754918245E+03  0.00000000000E+00 0. -1.
<scales pt_clust_5="13000.00000" pt_clust_6="13000.00000" pt_clust_7="13000.00000" pt_clust_8="13000.00000" pt_clust_9="105.27425"></scales>
<clustering>
<clus scale="   82.838">  5  6 -1 -1</clus>
<clus scale="   92.290">  7  8 -1 -1</clus>
<clus scale="  100.801">  2  5  1 -1</clus>
<clus scale="  105.274">  1  9  2 -1</clus>
<clus scale="  105.274">  1  5  2 -1</clus>
</clustering>
</event>
<event>
 9    1  0.8429841E-005  0.1038032E+03  0.7546771E-02  0.1275322E+00
          1   -1    0    0  502    0 -0.00000000000E+00  0.00000000000E+00  0.69055760079E+03  0.69055760079E+03  0.00000000000E+00 0. -1.
         21   -1    0    0  501  502  0.00000000000E+00 -0.00000000000E+00 -0.45245858904E+02  0.45245858904E+02  0.00000000000E+00 0.  1.
         23    2    1    2    0    0  0.44136744100E+02  0.60756323817E+01  0.32198252761E+03  0.33658519051E+03  0.87360614119E+02 0.  0.
        -24    2    1    2    0    0 -0.65889924445E+02  0.66942444110E+02  0.29134643589E+03  0.31658813870E+03  0.80762187270E+02 0.  0.
         11    1    4    4    0    0 -0.68947133373E+02  0.13442917514E+02  0.16107886169E+03  0.17572939115E+03  0.00000000000E+00 0. -1.
        -12    1    4    4    0    0  0.30572089277E+01  0.53499526596E+02  0.13026757420E+03  0.14085874755E+03  0.00000000000E+00 0.  1.
        -11    1    3    3    0    0  0.27539782487E+02  0.45847181395E+02  0.14875197036E+03  0.15807451517E+03  0.00000000000E+00 0.  1.
         11    1    3    3    0    0  0.16596961613E+02 -0.39771549014E+02  0.17323055725E+03  0.17851067534E+03  0.00000000000E+00 0. -1.
          2    1    1    2  501    0  0.21753180346E+02 -0.73018076492E+02  0.31982778388E+02  0.82630130480E+02  0.00000000000E+00 0. -1.
<scales pt_clust_5="13000.00000" pt_clust_6="13000.00000" pt_clust_7="13000.00000" pt_clust_8="13000.00000" pt_clust_9="76.18950"></scales>
<clustering>
<clus scale="   76.190">  2  9  1 -1</clus>
<clus scale="   80.762">  5  6 -1 -1</clus>
<clus scale="   87.361">  7  8 -1 -1</clus>
<clus scale="   98.315">  2  5  1 -1</clus>
<clus scale="   76.190">  2  5  1 -1</clus>
</clustering>
</event>
<event>
 9    1  0.8429841E-005  0.1495378E+03  0.7546771E-02  0.1223828E+00
         21   -1    0    0  501  502  0.00000000000E+00  0.00000000000E+00  0.38674664388E+03  0.38674664388E+03  0.00000000000E+00 0.  1.
          1   -1    0    0  502    0 -0.00000000000E+00 -0.00000000000E+00 -0.10910392321E+03  0.10910392321E+03  0.00000000000E+00 0. -1.
        -24    2    1    2    0    0 -0.45723348400E+02  0.44599614019E+01  0.14265274639E+02  0.93205544341E+02  0.79832697504E+02 0.  0.
         23    2    1    2    0    0 -0.79483764342E+02  0.25995181720E+02  0.17387703386E+02  0.12494862321E+03  0.91194341642E+02 0.  0.
         11    1    3    3    0    0 -0.14514309117E+02 -0.34701257785E+02 -0.79135067801E+01  0.38437820576E+02  0.00000000000E+00 0. -1.
        -12    1    3    3    0    0 -0.31209039283E+02  0.39161219187E+02  0.22178781420E+02  0.54767723765E+02  0.00000000000E+00 0.  1.
        -11    1    4    4    0    0 -0.53304913565E+02 -0.25639401931E+02  0.29041656324E+02  0.65895451616E+02  0.00000000000E+00 0. -1.
         11    1    4    4    0    0 -0.26178850776E+02  0.51634583651E+02 -0.11653952938E+02  0.59053171599E+02  0.00000000000E+00 0.  1.
          2    1    1    2  501    0  0.12520711274E+03 -0.30455143122E+02  0.24598974265E+03  0.27769639953E+03  0.00000000000E+00 0. -1.
<scales pt_clust_5="13000.00000" pt_clust_6="13000.00000" pt_clust_7="13000.00000" pt_clust_8="13000.00000" pt_clust_9="118.51221"></scales>
<clustering>
<clus scale="   79.833">  5  6 -1 -1</clus>
<clus scale="   91.194">  7  8 -1 -1</clus>
<clus scale="   92.107">  2  5  1 -1</clus>
<clus scale="  118.512">  1  9  2 -1</clus>
<clus scale="  118.512">  1  5  2 -1</clus>
</clustering>
</event>
<event>
 9    1  0.8429841E-005  0.1842180E+03  0.7546771E-02  0.1189704E+00
         21   -1    0    0  501  502  0.00000000000E+00  0.00000000000E+00  0.69113231335E+02  0.69113231335E+02  0.00000000000E+00 0. -1.
          1   -1    0    0  502    0 -0.00000000000E+00 -0.00000000000E+00 -0.86749000437E+03  0.86749000437E+03  0.00000000000E+00 0. -1.
         23    2    1    2    0    0  0.19785026311E+02 -0.44046042771E+02 -0.62181199987E+02  0.11990219435E+03  0.90435244386E+02 0.  0.
        -24    2    1    2    0    0 -0.15414425936E+03 -0.57160615370E+02 -0.42244828994E+03  0.46070588856E+03  0.82216600747E+02 0.  0.
         11    1    4    4    0    0 -0.12925050836E+03 -0.76893980556E+02 -0.36986030256E+03  0.39926810738E+03  0.00000000000E+00 0. -1.
        -12    1    4    4    0    0 -0.24893751001E+02  0.19733365185E+02 -0.52587987380E+02  0.61437781186E+02  0.00000000000E+00 0.  1.
        -11    1    3    3    0    0 -0.35841341259E+02 -0.15254431590E+02 -0.16134099291E+02  0.42161695723E+02  0.00000000000E+00 0.  1.
         11    1    3    3    0    0  0.55626367570E+02 -0.28791611181E+02 -0.46047100696E+02  0.77740498622E+02  0.00000000000E+00 0. -1.
          2    1    1    2  501    0  0.13435923305E+03  0.10120665814E+03 -0.31374728310E+03  0.35599515280E+03  0.00000000000E+00 0. -1.
<scales pt_clust_5="13000.00000" pt_clust_6="13000.00000" pt_clust_7="13000.00000" pt_clust_8="13000.00000" pt_clust_9="164.85361"></scales>
<clustering>
<clus scale="   82.217">  5  6 -1 -1</clus>
<clus scale="   90.435">  7  8 -1 -1</clus>
<clus scale="  102.519">  2  7  1 -1</clus>
<clus scale="  164.854">  1  9  2 -1</clus>
<clus scale="  164.854">  1  5  2 -1</clus>
</clustering>
</event>
<event>
 9    1  0.8429841E-005  0.9252304E+02  0.7546771E-02  0.1297025E+00
         21   -1    0    0  501  502  0.00000000000E+00  0.00000000000E+00  0.25370673243E+03  0.25370673243E+03  0.00000000000E+00 0. -1.
          1   -1    0    0  502    0 -0.00000000000E+00 -0.00000000000E+00 -0.27227129358E+03  0.27227129358E+03  0.00000000000E+00 0. -1.
         23    2    1    2    0    0  0.57675196986E+01 -0.31320273558E+02 -0.23333378173E+03  0.25074425757E+03  0.86103456304E+02 0.  0.
        -24    2    1    2    0    0 -0.40361417555E+02  0.56317541540E+02  0.20252003864E+03  0.23083057448E+03  0.86415730918E+02 0.  0.
         13    1    4    4    0    0 -0.94839713839E+01 -0.18499377467E+02  0.89096535796E+02  0.91489700899E+02  0.00000000000E+00 0. -1.
        -14    1    4    4    0    0 -0.30877446171E+02  0.74816919006E+02  0.11342350285E+03  0.13934087358E+03  0.00000000000E+00 0.  1.
        -13    1    3    3    0    0  0.38742388890E+02 -0.41961407531E+02 -0.14146176656E+03  0.15255544506E+03  0.00000000000E+00 0. -1.
         13    1    3    3    0    0 -0.32974869192E+02  0.10641133973E+02 -0.91872015168E+02  0.98188812507E+02  0.00000000000E+00 0.  1.
          2    1    1    2  501    0  0.34593897857E+02 -0.24997267982E+02  0.12249181939E+02  0.44403193958E+02  0.00000000000E+00 0. -1.
<scales pt_clust_5="13000.00000" pt_clust_6="13000.00000" pt_clust_7="13000.00000" pt_clust_8="13000.00000" pt_clust_9="42.68022"></scales>
<clustering>
<clus scale="   42.680">  1  9  2 -1</clus>
<clus scale="   86.103">  7  8 -1 -1</clus>
<clus scale="   86.416">  5  6 -1 -1</clus>
<clus scale="   92.231">  2  7  1 -1</clus>
<clus scale="   42.680">  1  5  2 -1</clus>
</clustering>
</event>
<event>
 9    1  0.8429841E-005  0.1196206E+03  0.7546771E-02  0.1247256E+00
         21   -1    0    0  501  502  0.00000000000E+00  0.00000000000E+00  0.45563272348E+03  0.45563272348E+03  0.00000000000E+00 0. -1.
         -2   -1    0    0    0  501 -0.00000000000E+00 -0.00000000000E+00 -0.41334454195E+02  0.41334454195E+02  0.00000000000E+00 0.  1.
         23    2    1    2    0    0  0.30948514688E+02  0.71239609689E+02  0.13343706230E+03  0.17913102593E+03  0.90827211257E+02 0.  0.
        -24    2    1    2    0    0 -0.58421809276E+02 -0.56794779019E+02  0.18725317345E+03  0.21921617917E+03  0.79707135946E+02 0.  0.
         11    1    4    4    0    0 -0.33648365635E+02  0.15621801029E+02  0.69355809907E+02  0.78654189622E+02  0.00000000000E+00 0. -1.
        -12    1    4    4    0    0 -0.24773443641E+02 -0.72416580049E+02  0.11789736354E+03  0.14056198955E+03  0.00000000000E+00 0.  1.
        -13    1    3    3    0    0 -0.20741335645E+02  0.31362956860E+02  0.90837873202E+01  0.38682725595E+02  0.00000000000E+00 0.  1.
         13    1    3    3    0    0  0.51689850333E+02  0.39876652829E+02  0.12435327498E+03  0.14044830033E+03  0.00000000000E+00 0. -1.
         -1    1    1    2    0  502  0.27473294588E+02 -0.14444830669E+02  0.93608033532E+02  0.98619972573E+02  0.00000000000E+00 0.  1.
<scales pt_clust_5="13000.00000" pt_clust_6="13000.00000" pt_clust_7="13000.00000" pt_clust_8="13000.00000" pt_clust_9="31.03925"></scales>
<clustering>
<clus scale="   31.039">  1  9  2 -1</clus>
<clus scale="   79.707">  5  6 -1 -1</clus>
<clus scale="   90.827">  7  8 -1 -1</clus>
<clus scale="  111.412">  1  5  2 -1</clus>
<clus scale="   31.039">  1  5  2 -1</clus>
</clustering>
</event>
<event>
 9    1  0.8429841E-005  0.2423341E+03  0.7546771E-02  0.1118886E+00
          1   -1    0    0  502    0 -0.00000000000E+00  0.00000000000E+00  0.15605378641E+04  0.15605378641E+04  0.00000000000E+00 0. -1.
         21   -1    0    0  501  502  0.00000000000E+00 -0.00000000000E+00 -0.55096624037E+02  0.55096624037E+02  0.00000000000E+00 0. -1.
         23    2    1    2    0    0 -0.12043915841E+03 -0.15943447236E+03  0.51700463486E+03  0.56138935913E+03  0.89102627460E+02 0.  0.
        -24    2    1    2    0    0  0.99771169241E+02  0.24172236468E+03  0.64244505687E+03  0.69800277538E+03  0.78027146193E+02 0.  0.
         13    1    4    4    0    0  0.18114750261E+02  0.14437587684E+03  0.32582769204E+03  0.35684201391E+03  0.00000000000E+00 0. -1.
        -14    1    4    4    0    0  0.81656418980E+02  0.97346487839E+02  0.31661736483E+03  0.34116076147E+03  0.00000000000E+00 0.  1.
        -13    1    3    3    0    0 -0.12886176182E+03 -0.12389506379E+03  0.38591318899E+03  0.42530498460E+03  0.00000000000E+00 0. -1.
         13    1    3    3    0    0  0.84226034113E+01 -0.35539408576E+02  0.13109144587E+03  0.13608437453E+03  0.00000000000E+00 0.  1.
          2    1    1    2  501    0  0.20667989170E+02 -0.82287892319E+02  0.34599154828E+03  0.35624235358E+03  0.00000000000E+00 0. -1.
<scales pt_clust_5="13000.00000" pt_clust_6="13000.00000" pt_clust_7="13000.00000" pt_clust_8="13000.00000" pt_clust_9="84.84380"></scales>
<clustering>
<clus scale="   78.027">  5  6 -1 -1</clus>
<clus scale="   84.844">  2  9  1 -1</clus>
<clus scale="   89.103">  7  8 -1 -1</clus>
<clus scale="  238.484">  2  5  1 -1</clus>
<clus scale="   84.844">  2  5  1 -1</clus>
</clustering>
</event>
<event>
 9    1  0.8429841E-005  0.1084547E+03  0.7546771E-02  0.1267853E+00
          1   -1    0    0  502    0 -0.00000000000E+00  0.00000000000E+00  0.38831880372E+03  0.38831880372E+03  0.00000000000E+00 0. -1.
         21   -1    0    0  501  502  0.00000000000E+00 -0.00000000000E+00 -0.64060984533E+02  0.64060984533E+02  0.00000000000E+00 0.  1.
        -24    2    1    2    0    0  0.58589059216E+02  0.17741373439E+02  0.95135524048E+02  0.14040318237E+03  0.83155586062E+02 0.  0.
         23    2    1    2    0    0 -0.45975186870E+02  0.76350893420E+01  0.27179143424E+02  0.10805477977E+03  0.93622204616E+02 0.  0.
         13    1    3    3    0    0  0.67207889312E+01 -0.30852872965E+02  0.36498516169E+02  0.48261894457E+02  0.00000000000E+00 0. -1.
        -14    1    3    3    0    0  0.51868270284E+02  0.48594246403E+02  0.58637007879E+02  0.92141287916E+02  0.00000000000E+00 0.  1.
        -11    1    4    4    0    0 -0.12239637147E+02 -0.42275490456E+02  0.72721218794E+01  0.44608402431E+02  0.00000000000E+00 0. -1.
         11    1    4    4    0    0 -0.33735549723E+02  0.49910579798E+02  0.19907021545E+02  0.63446377341E+02  0.00000000000E+00 0.  1.
          2    1    1    2  501    0 -0.12613872345E+02 -0.25376462781E+02  0.20194315172E+03  0.20392182611E+03  0.00000000000E+00 0. -1.
<scales pt_clust_5="13000.00000" pt_clust_6="13000.00000" pt_clust_7="13000.00000" pt_clust_8="13000.00000" pt_clust_9="28.33859"></scales>
<clustering>
<clus scale="   28.339">  2  9  1 -1</clus>
<clus scale="   83.156">  5  6 -1 -1</clus>
<clus scale="   93.622">  7  8 -1 -1</clus>
<clus scale="   99.560">  1  5  2 -1</clus>
<clus scale="   28.339">  2  5  1 -1</clus>
</clustering>
</event>
<event>
 9    1  0.8429841E-005  0.1932477E+03  0.7546771E-02  0.1156662E+00
         21   -1    0    0  501  502  0.00000000000E+00  0.00000000000E+00  0.40068806371E+03  0.40068806371E+03  0.00000000000E+00 0. -1.
          1   -1    0    0  502    0 -0.00000000000E+00 -0.00000000000E+00 -0.23625104164E+03  0.23625104164E+03  0.00000000000E+00 0. -1.
        -24    2    1    2    0    0  0.13059751335E+03  0.87265144760E+02 -0.45457205291E+02  0.18315635280E+03  0.82516520013E+02 0.  0.
         23    2    1    2    0    0 -0.14365829372E+03 -0.11752600709E+03 -0.31579673121E+02  0.21006991254E+03  0.93177383007E+02 0.  0.
         13    1    3    3    0    0  0.82596148895E+02  0.47468378265E+02 -0.67792182234E+02  0.11692369614E+03  0.00000000000E+00 0. -1.
        -14    1    3    3    0    0  0.48001364459E+02  0.39796766495E+02  0.22334976943E+02  0.66232656661E+02  0.00000000000E+00 0.  1.
        -11    1    4    4    0    0 -0.13176377351E+03 -0.81295517209E+02  0.81010681906E+01  0.15503638422E+03  0.00000000000E+00 0. -1.
         11    1    4    4    0    0 -0.11894520210E+02 -0.36230489877E+02 -0.39680741312E+02  0.55033528315E+02  0.00000000000E+00 0.  1.
          2    1    1    2  501    0  0.13060780362E+02  0.30260862326E+02  0.24147390048E+03  0.24371284001E+03  0.00000000000E+00 0. -1.
<scales pt_clust_5="13000.00000" pt_clust_6="13000.00000" pt_clust_7="13000.00000" pt_clust_8="13000.00000" pt_clust_9="32.95912"></scales>
<clustering>
<clus scale="   32.959">  1  9  2 -1</clus>
<clus scale="   82.517">  5  6 -1 -1</clus>
<clus scale="   93.177">  7  8 -1 -1</clus>
<clus scale="  188.339">  2  5  1 -1</clus>
<clus scale="   32.959">  1  5  2 -1</clus>
</clustering>
</event>
<event>
 9    1  0.8429841E-005  0.1004179E+03  0.7546771E-02  0.1281421E+00
         21   -1    0    0  501  502  0.00000000000E+00  0.00000000000E+00  0.28489249856E+03  0.28489249856E+03  0.00000000000E+00 0.  1.
         -4   -1    0    0    0  501 -0.00000000000E+00 -0.00000000000E+00 -0.75430808495E+02  0.75430808495E+02  0.00000000000E+00 0.  1.
        -24    2    1    2    0    0 -0.34963155098E+02 -0.28878108731E+02 -0.19080935720E+02  0.98685563516E+02  0.85547594707E+02 0.  0.
         23    2    1    2    0    0  0.48399067012E+02  0.76784402344E+01  0.18330836258E+03  0.20990682202E+03  0.89763522701E+02 0.  0.
         11    1    3    3    0    0  0.24902187923E+02 -0.94485650671E+01  0.11135628210E+02  0.28868608571E+02  0.00000000000E+00 0. -1.
        -12    1    3    3    0    0 -0.59865343021E+02 -0.19429543664E+02 -0.30216563930E+02  0.69816954945E+02  0.00000000000E+00 0.  1.
        -13    1    4    4    0    0  0.62212525845E+02 -0.24800765335E+02  0.11972379287E+03  0.13718331864E+03  0.00000000000E+00 0.  1.
         13    1    4    4    0    0 -0.13813458833E+02  0.32479205569E+02  0.63584569708E+02  0.72723503383E+02  0.00000000000E+00 0. -1.
         -3    1    1    2    0  502 -0.13435911914E+02  0.21199668497E+02  0.45234263208E+02  0.51730921520E+02  0.00000000000E+00 0.  1.
<scales pt_clust_5="13000.00000" pt_clust_6="13000.00000" pt_clust_7="13000.00000" pt_clust_8="13000.00000" pt_clust_9="25.09880"></scales>
<clustering>
<clus scale="   25.099">  1  9  2 -1</clus>
<clus scale="   85.548">  5  6 -1 -1</clus>
<clus scale="   89.764">  7  8 -1 -1</clus>
<clus scale="   96.668">  2  5  1 -1</clus>
<clus scale="   25.099">  1  5  2 -1</clus>
</clustering>
</event>
<event>
 9    1  0.8429841E-005  0.1931643E+03  0.7546771E-02  0.1170345E+00
         21   -1    0    0  501  502  0.00000000000E+00  0.00000000000E+00  0.37205873805E+03  0.37205873805E+03  0.00000000000E+00 0. -1.
          3   -1    0    0  502    0 -0.00000000000E+00 -0.00000000000E+00 -0.20604228527E+03  0.20604228527E+03  0.00000000000E+00 0. -1.
         23    2    1    2    0    0  0.93728324191E+02 -0.39422498081E+02 -0.28042102623E+02  0.14024169215E+03  0.92424242421E+02 0.  0.
        -24    2    1    2    0    0 -0.40662551489E+02 -0.14865303783E+03  0.18903982558E+02  0.17543313616E+03  0.81659389869E+02 0.  0.
         11    1    4    4    0    0 -0.37249596128E+02 -0.14144141094E+03 -0.88729710283E+01  0.14653305004E+03  0.00000000000E+00 0. -1.
        -12    1    4    4    0    0 -0.34129553609E+01 -0.72116268955E+01  0.27776953586E+02  0.28900086112E+02  0.00000000000E+00 0.  1.
        -11    1    3    3    0    0  0.37602592211E+02  0.29318170294E+02 -0.18638265741E+01  0.47717752460E+02  0.00000000000E+00 0.  1.
         11    1    3    3    0    0  0.56125731980E+02 -0.68740668375E+02 -0.26178276049E+02  0.92523939690E+02  0.00000000000E+00 0. -1.
          4    1    1    2  501    0 -0.53065772702E+02  0.18807553592E+03  0.17515457285E+03  0.26242619502E+03  0.00000000000E+00 0. -1.
<scales pt_clust_5="13000.00000" pt_clust_6="13000.00000" pt_clust_7="13000.00000" pt_clust_8="13000.00000" pt_clust_9="175.05485"></scales>
<clustering>
<clus scale="   81.659">  5  6 -1 -1</clus>
<clus scale="   92.424">  7  8 -1 -1</clus>
<clus scale="  137.410">  2  7  1 -1</clus>
<clus scale="  175.055">  1  9  2 -1</clus>
<clus scale="  175.055">  1  5  2 -1</clus>
</clustering>
</event>
<event>
 9    1  0.8429841E-005  0.9824822E+02  0.7546771E-02  0.1292353E+00
         21   -1    0    0  501  502  0.00000000000E+00  0.00000000000E+00  0.62070743389E+02  0.62070743389E+02  0.00000000000E+00 0. -1.
          1   -1    0    0  502    0 -0.00000000000E+00 -0.00000000000E+00 -0.55706355323E+03  0.55706355323E+03  0.00000000000E+00 0. -1.
        -24    2    1    2    0    0 -0.23762971425E+00  0.19224773920E+02 -0.20777360642E+03  0.22385872993E+03  0.81075341743E+02 0.  0.
         23    2    1    2    0    0 -0.61320800101E+02 -0.28157868339E+02 -0.17446381286E+02  0.11842431418E+03  0.95743594533E+02 0.  0.
         13    1    3    3    0    0  0.33573898625E+02  0.29425407886E+02 -0.14632823463E+03  0.15298697182E+03  0.00000000000E+00 0. -1.
        -14    1    3    3    0    0 -0.33811528339E+02 -0.10200633966E+02 -0.61445371798E+02  0.70871758108E+02  0.00000000000E+00 0.  1.
        -11    1    4    4    0    0 -0.64986234557E+01 -0.23183078364E+02  0.34941088455E+02  0.42433087228E+02  0.00000000000E+00 0. -1.
         11    1    4    4    0    0 -0.54822176645E+02 -0.49747899752E+01 -0.52387469741E+02  0.75991226950E+02  0.00000000000E+00 0.  1.
          2    1    1    2  501    0  0.61558429815E+02  0.89330944191E+01 -0.26977282213E+03  0.27685125251E+03  0.00000000000E+00 0. -1.
<scales pt_clust_5="13000.00000" pt_clust_6="13000.00000" pt_clust_7="13000.00000" pt_clust_8="13000.00000" pt_clust_9="62.20325"></scales>
<clustering>
<clus scale="   62.203">  1  9  2 -1</clus>
<clus scale="   81.075">  5  6 -1 -1</clus>
<clus scale="   84.018">  2  5  1 -1</clus>
<clus scale="   95.744">  7  8 -1 -1</clus>
<clus scale="   62.203">  1  5  2 -1</clus>
</clustering>
</event>
<event>
 9    1  0.8429841E-005  0.1032244E+03  0.7546771E-02  0.1276263E+00
         21   -1    0    0  501  502  0.00000000000E+00  0.00000000000E+00  0.19261500791E+03  0.19261500791E+03  0.00000000000E+00 0. -1.
          1   -1    0    0  502    0 -0.00000000000E+00 -0.00000000000E+00 -0.13589334102E+03  0.13589334102E+03  0.00000000000E+00 0. -1.
         23    2    1    2    0    0 -0.55857405049E+02 -0.16485569677E+02 -0.89984030729E+02  0.13735860132E+03  0.85897822225E+02 0.  0.
        -24    2    1    2    0    0  0.41955060208E+02  0.37221482272E+02  0.11897943202E+03  0.15384024391E+03  0.79781260845E+02 0.  0.
         11    1    4    4    0    0 -0.15857998658E+02 -0.12886087669E+02  0.32365523433E+02  0.38276030149E+02  0.00000000000E+00 0. -1.
        -12    1    4    4    0    0  0.57813058866E+02  0.50107569941E+02  0.86613908587E+02  0.11556421376E+03  0.00000000000E+00 0.  1.
        -13    1    3    3    0    0 -0.16108410084E+02  0.29361802313E+02 -0.62152375397E+02  0.70601091195E+02  0.00000000000E+00 0.  1.
         13    1    3    3    0    0 -0.39748994964E+02 -0.45847371990E+02 -0.27831655332E+02  0.66757510121E+02  0.00000000000E+00 0. -1.
          2    1    1    2  501    0  0.13902344841E+02 -0.20735912596E+02  0.27726265595E+02  0.37309503710E+02  0.00000000000E+00 0. -1.
<scales pt_clust_5="13000.00000" pt_clust_6="13000.00000" pt_clust_7="13000.00000" pt_clust_8="13000.00000" pt_clust_9="24.96504"></scales>
<clustering>
<clus scale="   24.965">  1  9  2 -1</clus>
<clus scale="   79.781">  5  6 -1 -1</clus>
<clus scale="   85.898">  7  8 -1 -1</clus>
<clus scale="   98.193">  1  5  2 -1</clus>
<clus scale="   24.965">  1  5  2 -1</clus>
</clustering>
</event>
<event>
 9    1  0.8429841E-005  0.5535259E+03  0.7546771E-02  0.1000771E+00
          1   -1    0    0  502    0 -0.00000000000E+00  0.00000000000E+00  0.18911035246E+04  0.18911035246E+04  0.00000000000E+00 0. -1.
         21   -1    0    0  501  502  0.00000000000E+00 -0.00000000000E+00 -0.25166534661E+03  0.25166534661E+03  0.00000000000E+00 0. -1.
        -24    2    1    2    0    0 -0.36236092916E+03  0.43701605573E+03  0.12346822631E+04  0.13614064755E+04  0.81846349471E+02 0.  0.
         23    2    1    2    0    0  0.37438564802E+03 -0.34349565059E+03  0.44230956304E+03  0.67986886620E+03  0.91815305139E+02 0.  0.
         13    1    3    3    0    0 -0.28469445327E+03  0.34936694286E+03  0.10512212403E+04  0.11437544703E+04  0.00000000000E+00 0. -1.
        -14    1    3    3    0    0 -0.77666475895E+02  0.87649112872E+02  0.18346102280E+03  0.21765200516E+03  0.00000000000E+00 0.  1.
        -11    1    4    4    0    0  0.32079510436E+03 -0.25399850392E+03  0.37968957397E+03  0.55820149727E+03  0.00000000000E+00 0. -1.
         11    1    4    4    0    0  0.53590543660E+02 -0.89497146665E+02  0.62619989070E+02  0.12166736893E+03  0.00000000000E+00 0.  1.
          2    1    1    2  501    0 -0.12024718859E+02 -0.93520405141E+02 -0.37553648114E+02  0.10149352949E+03  0.00000000000E+00 0. -1.
<scales pt_clust_5="13000.00000" pt_clust_6="13000.00000" pt_clust_7="13000.00000" pt_clust_8="13000.00000" pt_clust_9="94.29030"></scales>
<clustering>
<clus scale="   81.846">  5  6 -1 -1</clus>
<clus scale="   91.815">  7  8 -1 -1</clus>
<clus scale="   94.290">  2  9  1 -1</clus>
<clus scale="  551.960">  1  5  2 -1</clus>
<clus scale="   94.290">  2  5  1 -1</clus>
</clustering>
</event>
<event>
 9    1  0.8429841E-005  0.1106310E+03  0.7546771E-02  0.1263629E+00
         21   -1    0    0  501  502  0.00000000000E+00  0.00000000000E+00  0.64872619574E+02  0.64872619574E+02  0.00000000000E+00 0.  1.
          1   -1    0    0  502    0 -0.00000000000E+00 -0.00000000000E+00 -0.30165895008E+03  0.30165895008E+03  0.00000000000E+00 0. -1.
        -24    2    1    2    0    0 -0.20062649297E+02 -0.60027232650E+02 -0.12701096315E+03  0.16189394114E+03  0.77923583474E+02 0.  0.
         23    2    1    2    0    0  0.51712074723E+02  0.55692854052E+02 -0.33296394648E+02  0.12175514403E+03  0.89105737955E+02 0.  0.
         13    1    3    3    0    0 -0.29827622862E+02 -0.24501896653E+02 -0.11773471041E+03  0.12390113825E+03  0.00000000000E+00 0. -1.
        -14    1    3    3    0    0  0.97649735653E+01 -0.35525335998E+02 -0.92762527424E+01  0.37992802890E+02  0.00000000000E+00 0.  1.
        -11    1    4    4    0    0  0.48821265944E+02  0.28376364322E+02  0.21528663560E+02  0.60433578540E+02  0.00000000000E+00 0.  1.
         11    1    4    4    0    0  0.28908087787E+01  0.27316489730E+02 -0.54825058208E+02  0.61321565489E+02  0.00000000000E+00 0. -1.
          2    1    1    2  501    0 -0.31649425426E+02  0.43343785979E+01 -0.76478972712E+02  0.82882484487E+02  0.00000000000E+00 0. -1.
<scales pt_clust_5="13000.00000" pt_clust_6="13000.00000" pt_clust_7="13000.00000" pt_clust_8="13000.00000" pt_clust_9="31.94486"></scales>
<clustering>
<clus scale="   31.945">  1  9  2 -1</clus>
<clus scale="   77.924">  5  6 -1 -1</clus>
<clus scale="   89.106">  7  8 -1 -1</clus>
<clus scale="  101.840">  2  5  1 -1</clus>
<clus scale="   31.945">  1  5  2 -1</clus>
</clustering>
</event>
<event>
 9    1  0.8429841E-005  0.1039607E+03  0.7546771E-02  0.1278570E+00
         21   -1    0    0  501  502  0.00000000000E+00  0.00000000000E+00  0.42340732110E+03  0.42340732110E+03  0.00000000000E+00 0. -1.
         -4   -1    0    0    0  501 -0.00000000000E+00 -0.00000000000E+00 -0.62884226711E+02  0.62884226711E+02  0.00000000000E+00 0.  1.
         23    2    1    2    0    0  0.25270433826E+02  0.40093954690E+02  0.64132991317E+01  0.10629057364E+03  0.94923314364E+02 0.  0.
        -24    2    1    2    0    0  0.93626721339E+01 -0.22245632803E+02  0.30844726536E+03  0.31997530251E+03  0.81620774907E+02 0.  0.
         13    1    4    4    0    0  0.11230415080E+02 -0.41905339006E+02  0.82907475795E+02  0.93572587881E+02  0.00000000000E+00 0. -1.
        -14    1    4    4    0    0 -0.18677429459E+01  0.19659706203E+02  0.22553978957E+03  0.22640271463E+03  0.00000000000E+00 0.  1.
        -11    1    3    3    0    0 -0.15677777544E+02 -0.24596327141E+02 -0.21771013454E+01  0.29249133112E+02  0.00000000000E+00 0. -1.
         11    1    3    3    0    0  0.40948211370E+02  0.64690281831E+02  0.85904004771E+01  0.77041440525E+02  0.00000000000E+00 0.  1.
         -3    1    1    2    0  502 -0.34633105960E+02 -0.17848321887E+02  0.45662529893E+02  0.60025671665E+02  0.00000000000E+00 0.  1.
<scales pt_clust_5="13000.00000" pt_clust_6="13000.00000" pt_clust_7="13000.00000" pt_clust_8="13000.00000" pt_clust_9="38.96171"></scales>
<clustering>
<clus scale="   38.962">  1  9  2 -1</clus>
<clus scale="   81.621">  5  6 -1 -1</clus>
<clus scale="   91.975">  1  5  2 -1</clus>
<clus scale="   94.923">  7  8 -1 -1</clus>
<clus scale="   38.962">  1  5  2 -1</clus>
</clustering>
</event>
<event>
 9    1  0.8429841E-005  0.1261455E+03  0.7546771E-02  0.1236149E+00
          1   -1    0    0  502    0 -0.00000000000E+00  0.00000000000E+00  0.84165665085E+03  0.84165665085E+03  0.00000000000E+00 0. -1.
         21   -1    0    0  501  502  0.00000000000E+00 -0.00000000000E+00 -0.62981888898E+02  0.62981888898E+02  0.00000000000E+00 0.  1.
         23    2    1    2    0    0 -0.31241671274E+02  0.82921082881E+02  0.58210463728E+03  0.59590393314E+03  0.91671919275E+02 0.  0.
        -24    2    1    2    0    0  0.59016757841E+02 -0.53086201459E+02  0.60916062978E+01  0.11394332973E+03  0.81515963048E+02 0.  0.
         11    1    4    4    0    0 -0.18981057968E+01 -0.49309230563E+02  0.16498042590E+02  0.52030648983E+02  0.00000000000E+00 0. -1.
        -12    1    4    4    0    0  0.60914863638E+02 -0.37769708959E+01 -0.10406436292E+02  0.61912680748E+02  0.00000000000E+00 0.  1.
        -11    1    3    3    0    0 -0.58497684852E+02  0.80997364587E+02  0.44074595514E+03  0.45192869922E+03  0.00000000000E+00 0. -1.
         11    1    3    3    0    0  0.27256013578E+02  0.19237182942E+01  0.14135868213E+03  0.14397523392E+03  0.00000000000E+00 0.  1.
          2    1    1    2  501    0 -0.27775086567E+02 -0.29834881422E+02  0.19047851838E+03  0.19479127687E+03  0.00000000000E+00 0. -1.
<scales pt_clust_5="13000.00000" pt_clust_6="13000.00000" pt_clust_7="13000.00000" pt_clust_8="13000.00000" pt_clust_9="40.76245"></scales>
<clustering>
<clus scale="   40.762">  2  9  1 -1</clus>
<clus scale="   81.516">  5  6 -1 -1</clus>
<clus scale="   91.672">  7  8 -1 -1</clus>
<clus scale="  118.970">  2  5  1 -1</clus>
<clus scale="   40.762">  2  5  1 -1</clus>
</clustering>
</event>
<event>
 9    1  0.8429841E-005  0.1165978E+03  0.7546771E-02  0.1253811E+00
         -2   -1    0    0    0  501 -0.00000000000E+00  0.00000000000E+00  0.73988988714E+02  0.73988988714E+02  0.00000000000E+00 0.  1.
         21   -1    0    0  501  502  0.00000000000E+00 -0.00000000000E+00 -0.28523157251E+03  0.28523157251E+03  0.00000000000E+00 0.  1.
         23    2    1    2    0    0  0.61464904636E+02 -0.19170852615E+02 -0.59155604699E+02  0.12838852443E+03  0.94014741107E+02 0.  0.
        -24    2    1    2    0    0 -0.80645484773E+02 -0.33866015569E+01 -0.16351816388E+03  0.19909238686E+03  0.79902598839E+02 0.  0.
         13    1    4    4    0    0 -0.51918870654E+02  0.36071503567E+02 -0.10824626268E+03  0.12535539830E+03  0.00000000000E+00 0. -1.
        -14    1    4    4    0    0 -0.28726614119E+02 -0.39458105124E+02 -0.55271901202E+02  0.73736988555E+02  0.00000000000E+00 0.  1.
        -13    1    3    3    0    0 -0.16237565065E+02 -0.15068744754E+02  0.99839794058E+01  0.24298259865E+02  0.00000000000E+00 0. -1.
         13    1    3    3    0    0  0.77702469701E+02 -0.41021078617E+01 -0.69139584104E+02  0.10409026456E+03  0.00000000000E+00 0.  1.
         -1    1    1    2    0  502  0.19180580137E+02  0.22557454172E+02  0.11431184778E+02  0.31739649944E+02  0.00000000000E+00 0.  1.
<scales pt_clust_5="13000.00000" pt_clust_6="13000.00000" pt_clust_7="13000.00000" pt_clust_8="13000.00000" pt_clust_9="29.60970"></scales>
<clustering>
<clus scale="   29.610">  2  9  1 -1</clus>
<clus scale="   79.903">  5  6 -1 -1</clus>
<clus scale="   94.015">  7  8 -1 -1</clus>
<clus scale="  105.550">  2  5  1 -1</clus>
<clus scale="   29.610">  2  5  1 -1</clus>
</clustering>
</event>
<event>
 9    1  0.8429841E-005  0.1169359E+03  0.7546771E-02  0.1256154E+00
         -2   -1    0    0    0  501 -0.00000000000E+00  0.00000000000E+00  0.94890347072E+02  0.94890347072E+02  0.00000000000E+00 0.  1.
         21   -1    0    0  501  502  0.00000000000E+00 -0.00000000000E+00 -0.42664929888E+03  0.42664929888E+03  0.00000000000E+00 0.  1.
        -24    2    1    2    0    0 -0.54896969130E+01  0.82619324657E+02  0.53004530897E+01  0.10727818522E+03  0.68003122300E+02 0.  0.
         23    2    1    2    0    0  0.39930342006E+02 -0.83838013823E+01 -0.31359187435E+03  0.32912747257E+03  0.91215728920E+02 0.  0.
         13    1    3    3    0    0  0.27021281999E+02  0.19807541869E+02 -0.99015040771E+01  0.34936058432E+02  0.00000000000E+00 0. -1.
        -14    1    3    3    0    0 -0.32510978912E+02  0.62811782788E+02  0.15201957167E+02  0.72342126790E+02  0.00000000000E+00 0.  1.
        -11    1    4    4    0    0 -0.26968206713E+02  0.48011985587E+01 -0.51741741324E+02  0.58545225904E+02  0.00000000000E+00 0. -1.
         11    1    4    4    0    0  0.66898548719E+02 -0.13184999941E+02 -0.26185013303E+03  0.27058224666E+03  0.00000000000E+00 0.  1.
         -1    1    1    2    0  502 -0.34440645093E+02 -0.74235523274E+02 -0.23467530546E+02  0.85133988161E+02  0.00000000000E+00 0.  1.
<scales pt_clust_5="13000.00000" pt_clust_6="13000.00000" pt_clust_7="13000.00000" pt_clust_8="13000.00000" pt_clust_9="81.83567"></scales>
<clustering>
<clus scale="   68.003">  5  6 -1 -1</clus>
<clus scale="   81.836">  2  9  1 -1</clus>
<clus scale="   91.216">  7  8 -1 -1</clus>
<clus scale="   99.891">  1  5  2 -1</clus>
<clus scale="   81.836">  2  5  1 -1</clus>
</clustering>
</event>
<event>
 9    1  0.8429841E-005  0.9870543E+02  0.7546771E-02  0.1290179E+00
         21   -1    0    0  501  502  0.00000000000E+00  0.00000000000E+00  0.50662511413E+02  0.50662511413E+02  0.00000000000E+00 0. -1.
          1   -1    0    0  502    0 -0.00000000000E+00 -0.00000000000E+00 -0.43332573096E+03  0.43332573096E+03  0.00000000000E+00 0. -1.
        -24    2    1    2    0    0 -0.15535889088E+02  0.53570097858E+01 -0.17301661873E+03  0.19199724564E+03  0.81597368670E+02 0.  0.
         23    2    1    2    0    0  0.85195441517E+01 -0.81298599331E+02 -0.11025981915E+03  0.16671495557E+03  0.94628768383E+02 0.  0.
         11    1    3    3    0    0  0.29950589198E+02 -0.10894263890E+02 -0.95353380874E+02  0.10053850020E+03  0.00000000000E+00 0. -1.
        -12    1    3    3    0    0 -0.45486478286E+02  0.16251273676E+02 -0.77663237851E+02  0.91458745434E+02  0.00000000000E+00 0.  1.
        -13    1    4    4    0    0  0.29399465309E+02 -0.89031890148E+02 -0.10987973760E+03  0.14444570869E+03  0.00000000000E+00 0.  1.
         13    1    4    4    0    0 -0.20879921158E+02  0.77332908174E+01 -0.38008154434E+00  0.22269246875E+02  0.00000000000E+00 0. -1.
          2    1    1    2  501    0  0.70163449361E+01  0.75941589545E+02 -0.99386781673E+02  0.12527604117E+03  0.00000000000E+00 0. -1.
<scales pt_clust_5="13000.00000" pt_clust_6="13000.00000" pt_clust_7="13000.00000" pt_clust_8="13000.00000" pt_clust_9="76.26506"></scales>
<clustering>
<clus scale="   76.265">  1  9  2 -1</clus>
<clus scale="   81.597">  5  6 -1 -1</clus>
<clus scale="   86.292">  2  5  1 -1</clus>
<clus scale="   94.629">  7  8 -1 -1</clus>
<clus scale="   76.265">  1  5  2 -1</clus>
</clustering>
</event>
<event>
 9    1  0.8429841E-005  0.9920444E+02  0.7546771E-02  0.1287405E+00
          1   -1    0    0  502    0 -0.00000000000E+00  0.00000000000E+00  0.78422543395E+03  0.78422543395E+03  0.00000000000E+00 0. -1.
         21   -1    0    0  501  502  0.00000000000E+00 -0.00000000000E+00 -0.15854307740E+02  0.15854307740E+02  0.00000000000E+00 0. -1.
        -24    2    1    2    0    0  0.31725106510E+02 -0.39471383607E+01  0.27418221237E+03  0.28769252553E+03  0.81049622953E+02 0.  0.
         23    2    1    2    0    0 -0.40318769426E+02  0.25441156410E+02  0.31003922664E+03  0.32678831759E+03  0.91615647414E+02 0.  0.
         11    1    3    3    0    0  0.35072028847E+02  0.78042014362E+01  0.42347912578E+02  0.55536460701E+02  0.00000000000E+00 0. -1.
        -12    1    3    3    0    0 -0.33469223373E+01 -0.11751339797E+02  0.23183429979E+03  0.23215606483E+03  0.00000000000E+00 0.  1.
        -11    1    4    4    0    0  0.20237609853E+02  0.36399610984E+02  0.13189864567E+03  0.13831755225E+03  0.00000000000E+00 0.  1.
         11    1    4    4    0    0 -0.60556379279E+02 -0.10958454574E+02  0.17814058097E+03  0.18847076534E+03  0.00000000000E+00 0. -1.
          2    1    1    2  501    0  0.85936629160E+01 -0.21494018050E+02  0.18414968720E+03  0.18559889857E+03  0.00000000000E+00 0. -1.
<scales pt_clust_5="13000.00000" pt_clust_6="13000.00000" pt_clust_7="13000.00000" pt_clust_8="13000.00000" pt_clust_9="23.14831"></scales>
<clustering>
<clus scale="   23.148">  2  9  1 -1</clus>
<clus scale="   81.050">  5  6 -1 -1</clus>
<clus scale="   89.538">  1  5  2 -1</clus>
<clus scale="   91.616">  7  8 -1 -1</clus>
<clus scale="   23.148">  2  5  1 -1</clus>
</clustering>
</event>
<event>
 9    1  0.8429841E-005  0.1216329E+03  0.7546771E-02  0.1243915E+00
          1   -1    0    0  502    0 -0.00000000000E+00  0.00000000000E+00  0.77766426110E+03  0.77766426110E+03  0.00000000000E+00 0. -1.
         21   -1    0    0  501  502  0.00000000000E+00 -0.00000000000E+00 -0.45310870079E+02  0.45310870079E+02  0.00000000000E+00 0.  1.
        -24    2    1    2    0    0 -0.64403435563E+02  0.64087154036E+02  0.61916627141E+03  0.63085669006E+03  0.79739111545E+02 0.  0.
         23    2    1    2    0    0  0.31790250149E+02 -0.17372819419E+02  0.66971558341E+02  0.11875818605E+03  0.91136613209E+02 0.  0.
         11    1    3    3    0    0 -0.74627380442E+02  0.74793272234E+02  0.55887396925E+03  0.56877358675E+03  0.00000000000E+00 0. -1.
        -12    1    3    3    0    0  0.10223944879E+02 -0.10706118197E+02  0.60292302164E+02  0.62083103305E+02  0.00000000000E+00 0.  1.
        -13    1    4    4    0    0 -0.43016783093E+01  0.33938953661E+02  0.15264223229E+02  0.37461360396E+02  0.00000000000E+00 0. -1.
         13    1    4    4    0    0  0.36091928458E+02 -0.51311773080E+02  0.51707335112E+02  0.81296825650E+02  0.00000000000E+00 0.  1.
          2    1    1    2  501    0  0.32613185414E+02 -0.46714334617E+02  0.46215561266E+02  0.73360255075E+02  0.00000000000E+00 0. -1.
<scales pt_clust_5="13000.00000" pt_clust_6="13000.00000" pt_clust_7="13000.00000" pt_clust_8="13000.00000" pt_clust_9="56.97235"></scales>
<clustering>
<clus scale="   56.972">  2  9  1 -1</clus>
<clus scale="   79.739">  5  6 -1 -1</clus>
<clus scale="   91.137">  7  8 -1 -1</clus>
<clus scale="  113.345">  1  5  2 -1</clus>
<clus scale="   56.972">  2  5  1 -1</clus>
</clustering>
</event>
<event>
 9    1  0.8429841E-005  0.1121823E+03  0.7546771E-02  0.1260513E+00
         -2   -1    0    0    0  501 -0.00000000000E+00  0.00000000000E+00  0.54114400394E+03  0.54114400394E+03  0.00000000000E+00 0.  1.
         21   -1    0    0  501  502  0.00000000000E+00 -0.00000000000E+00 -0.85654512129E+02  0.85654512129E+02  0.00000000000E+00 0.  1.
        -24    2    1    2    0    0 -0.16389607920E+02  0.46322624824E+02  0.25475352649E+03  0.27185589900E+03  0.81190305713E+02 0.  0.
         23    2    1    2    0    0 -0.85851944897E+01 -0.10150793704E+03  0.24445541630E+03  0.28023953926E+03  0.91641595147E+02 0.  0.
         13    1    3    3    0    0  0.28036197115E+02  0.31829034845E+02  0.75370129706E+02  0.86485676616E+02  0.00000000000E+00 0. -1.
        -14    1    3    3    0    0 -0.44425805036E+02  0.14493589978E+02  0.17938339679E+03  0.18537022238E+03  0.00000000000E+00 0.  1.
        -13    1    4    4    0    0 -0.48144811753E+02 -0.74770990630E+02  0.16837044668E+03  0.19041331691E+03  0.00000000000E+00 0.  1.
         13    1    4    4    0    0  0.39559617263E+02 -0.26736946409E+02  0.76084969615E+02  0.89826222355E+02  0.00000000000E+00 0. -1.
         -1    1    1    2    0  502  0.24974802410E+02  0.55185312216E+02 -0.43719450982E+02  0.74703077808E+02  0.00000000000E+00 0.  1.
<scales pt_clust_5="13000.00000" pt_clust_6="13000.00000" pt_clust_7="13000.00000" pt_clust_8="13000.00000" pt_clust_9="60.57359"></scales>
<clustering>
<clus scale="   60.574">  2  9  1 -1</clus>
<clus scale="   81.190">  5  6 -1 -1</clus>
<clus scale="   91.642">  7  8 -1 -1</clus>
<clus scale="  103.820">  1  5  2 -1</clus>
<clus scale="   60.574">  2  5  1 -1</clus>
</clustering>
</event>
<event>
 9    1  0.8429841E-005  0.9060803E+02  0.7546771E-02  0.1308094E+00
         21   -1    0    0  501  502  0.00000000000E+00  0.00000000000E+00  0.20058319364E+03  0.20058319364E+03  0.00000000000E+00 0.  1.
         -2   -1    0    0    0  501 -0.00000000000E+00 -0.00000000000E+00 -0.70047226895E+02  0.70047226895E+02  0.00000000000E+00 0.  1.
        -24    2    1    2    0    0 -0.19141235401E+02 -0.35977753777E-01  0.28091512463E+02  0.86770292784E+02  0.79834594321E+02 0.  0.
         23    2    1    2    0    0 -0.20300088279E+02 -0.50695495800E+01  0.10947925367E+03  0.14347234710E+03  0.90337220913E+02 0.  0.
         11    1    3    3    0    0  0.10581133733E+02 -0.31774367260E+02 -0.25332180829E+01  0.33585532595E+02  0.00000000000E+00 0. -1.
        -12    1    3    3    0    0 -0.29722369135E+02  0.31738389506E+02  0.30624730546E+02  0.53184760189E+02  0.00000000000E+00 0.  1.
        -11    1    4    4    0    0 -0.18603625756E+02 -0.39136812971E+02  0.98547286120E+02  0.10765385559E+03  0.00000000000E+00 0.  1.
         11    1    4    4    0    0 -0.16964625220E+01  0.34067263391E+02  0.10931967548E+02  0.35818491517E+02  0.00000000000E+00 0. -1.
         -1    1    1    2    0  502  0.39441323680E+02  0.51055273337E+01 -0.70347993891E+01  0.40387780645E+02  0.00000000000E+00 0.  1.
<scales pt_clust_5="13000.00000" pt_clust_6="13000.00000" pt_clust_7="13000.00000" pt_clust_8="13000.00000" pt_clust_9="39.77042"></scales>
<clustering>
<clus scale="   39.770">  1  9  2 -1</clus>
<clus scale="   79.835">  5  6 -1 -1</clus>
<clus scale="   80.141">  2  5  1 -1</clus>
<clus scale="   90.337">  7  8 -1 -1</clus>
<clus scale="   39.770">  1  5  2 -1</clus>
</clustering>
</event>
<event>
 9    1  0.8429841E-005  0.1111825E+03  0.7546771E-02  0.1262104E+00
         21   -1    0    0  501  502  0.00000000000E+00  0.00000000000E+00  0.14643503926E+03  0.14643503926E+03  0.00000000000E+00 0. -1.
         -2   -1    0    0    0  501 -0.00000000000E+00 -0.00000000000E+00 -0.17103460029E+03  0.17103460029E+03  0.00000000000E+00 0.  1.
         23    2    1    2    0    0 -0.66105807827E+02 -0.16289276259E+02 -0.81557023666E+02  0.14047092599E+03  0.91897848674E+02 0.  0.
        -24    2    1    2    0    0  0.27240209922E+02  0.62320826838E+02  0.43499949221E+02  0.11526911761E+03  0.82272774336E+02 0.  0.
         11    1    4    4    0    0 -0.18288939431E+02  0.25035876417E+02  0.47013439545E+02  0.56316462169E+02  0.00000000000E+00 0. -1.
        -12    1    4    4    0    0  0.45529149353E+02  0.37284950422E+02 -0.35134903234E+01  0.58952655436E+02  0.00000000000E+00 0.  1.
        -13    1    3    3    0    0 -0.11034166588E+02 -0.22708252613E+02 -0.81190362641E+02  0.85025246573E+02  0.00000000000E+00 0.  1.
         13    1    3    3    0    0 -0.55071641238E+02  0.64189763543E+01 -0.36666102476E+00  0.55445679421E+02  0.00000000000E+00 0. -1.
         -1    1    1    2    0  502  0.38865597904E+02 -0.46031550579E+02  0.13457513417E+02  0.61729595953E+02  0.00000000000E+00 0.  1.
<scales pt_clust_5="13000.00000" pt_clust_6="13000.00000" pt_clust_7="13000.00000" pt_clust_8="13000.00000" pt_clust_9="60.24482"></scales>
<clustering>
<clus scale="   60.245">  1  9  2 -1</clus>
<clus scale="   82.273">  5  6 -1 -1</clus>
<clus scale="   91.898">  7  8 -1 -1</clus>
<clus scale="  103.369">  1  5  2 -1</clus>
<clus scale="   60.245">  1  5  2 -1</clus>
</clustering>
</event>
<event>
 9    1  0.8429841E-005  0.1811920E+03  0.7546771E-02  0.1168048E+00
         21   -1    0    0  501  502  0.00000000000E+00  0.00000000000E+00  0.31451527968E+02  0.31451527968E+02  0.00000000000E+00 0.  1.
          1   -1    0    0  502    0 -0.00000000000E+00 -0.00000000000E+00 -0.15305690041E+04  0.15305690041E+04  0.00000000000E+00 0. -1.
        -24    2    1    2    0    0 -0.12937607353E+03 -0.11139054276E+03 -0.81414092466E+03  0.83572697439E+03  0.80424555287E+02 0.  0.
         23    2    1    2    0    0  0.12913674164E+03  0.48194440322E+02 -0.37644933263E+03  0.41136047048E+03  0.92218948825E+02 0.  0.
         13    1    3    3    0    0 -0.72845663669E+02 -0.15470748063E+02 -0.25710312322E+03  0.26767116156E+03  0.00000000000E+00 0. -1.
        -14    1    3    3    0    0 -0.56530409859E+02 -0.95919794698E+02 -0.55703780145E+03  0.56805581284E+03  0.00000000000E+00 0.  1.
        -13    1    4    4    0    0  0.92052390350E+02  0.62947903134E+02 -0.18678602283E+03  0.21754332765E+03  0.00000000000E+00 0.  1.
         13    1    4    4    0    0  0.37084351293E+02 -0.14753462813E+02 -0.18966330979E+03  0.19381714284E+03  0.00000000000E+00 0. -1.
          2    1    1    2  501    0  0.23933188382E+00  0.63196102439E+02 -0.30852721886E+03  0.31493308721E+03  0.00000000000E+00 0. -1.
<scales pt_clust_5="13000.00000" pt_clust_6="13000.00000" pt_clust_7="13000.00000" pt_clust_8="13000.00000" pt_clust_9="63.19659"></scales>
<clustering>
<clus scale="   63.197">  1  9  2 -1</clus>
<clus scale="   80.425">  5  6 -1 -1</clus>
<clus scale="   92.219">  7  8 -1 -1</clus>
<clus scale="  175.483">  2  5  1 -1</clus>
<clus scale="   63.197">  1  5  2 -1</clus>
</clustering>
</event>
<event>
 9    1  0.8429841E-005  0.1914450E+03  0.7546771E-02  0.1190592E+00
          1   -1    0    0  502    0 -0.00000000000E+00  0.00000000000E+00  0.13062396024E+03  0.13062396024E+03  0.00000000000E+00 0. -1.
         21   -1    0    0  501  502  0.00000000000E+00 -0.00000000000E+00 -0.74127426908E+03  0.74127426908E+03  0.00000000000E+00 0.  1.
        -24    2    1    2    0    0  0.24299544570E+02 -0.29594633350E+02 -0.10977917290E+03  0.14168195321E+03  0.80969122978E+02 0.  0.
         23    2    1    2    0    0  0.16421593547E+03 -0.52874581815E+01 -0.50453285373E+03  0.53846577492E+03  0.91636016916E+02 0.  0.
         11    1    3    3    0    0  0.10664963153E+02  0.28081896209E+02 -0.31910080100E+02  0.43824508505E+02  0.00000000000E+00 0. -1.
        -12    1    3    3    0    0  0.13634581417E+02 -0.57676529559E+02 -0.77869092795E+02  0.97857444710E+02  0.00000000000E+00 0.  1.
        -13    1    4    4    0    0  0.14644275824E+03  0.27402231904E+02 -0.36963445170E+03  0.39852978765E+03  0.00000000000E+00 0.  1.
         13    1    4    4    0    0  0.17773177232E+02 -0.32689690086E+02 -0.13489840202E+03  0.13993598728E+03  0.00000000000E+00 0. -1.
          2    1    1    2  501    0 -0.18851548004E+03  0.34882091532E+02  0.36617177867E+01  0.19175050118E+03  0.00000000000E+00 0. -1.
<scales pt_clust_5="13000.00000" pt_clust_6="13000.00000" pt_clust_7="13000.00000" pt_clust_8="13000.00000" pt_clust_9="168.08944"></scales>
<clustering>
<clus scale="   80.969">  5  6 -1 -1</clus>
<clus scale="   89.567">  1  5  2 -1</clus>
<clus scale="   91.636">  7  8 -1 -1</clus>
<clus scale="  168.089">  2  9  1 -1</clus>
<clus scale="  168.089">  2  5  1 -1</clus>
</clustering>
</event>
<event>
 9    1  0.8429841E-005  0.9830681E+02  0.7546771E-02  0.1288659E+00
         21   -1    0    0  501  502  0.00000000000E+00  0.00000000000E+00  0.20427805996E+03  0.20427805996E+03  0.00000000000E+00 0. -1.
          3   -1    0    0  502    0 -0.00000000000E+00 -0.00000000000E+00 -0.26525636514E+03  0.26525636514E+03  0.00000000000E+00 0. -1.
        -24    2    1    2    0    0 -0.33751082361E+00  0.38109819418E+02 -0.23614637396E+03  0.25277080019E+03  0.81703703967E+02 0.  0.
         23    2    1    2    0    0  0.23925357326E+02 -0.26084208219E+02  0.11354337499E+03  0.14969198625E+03  0.90899857547E+02 0.  0.
         11    1    3    3    0    0  0.30865106401E+02  0.32325082204E+02 -0.19880150793E+03  0.20376360148E+03  0.00000000000E+00 0. -1.
        -12    1    3    3    0    0 -0.31202617224E+02  0.57847372139E+01 -0.37344866037E+02  0.49007198712E+02  0.00000000000E+00 0.  1.
        -11    1    4    4    0    0 -0.25178141586E+02 -0.28904952186E+02  0.18253501561E+02  0.42457336161E+02  0.00000000000E+00 0.  1.
         11    1    4    4    0    0  0.49103498912E+02  0.28207439676E+01  0.95289873426E+02  0.10723465009E+03  0.00000000000E+00 0. -1.
          4    1    1    2  501    0 -0.23587846502E+02 -0.12025611199E+02  0.61624693800E+02  0.67071638665E+02  0.00000000000E+00 0. -1.
<scales pt_clust_5="13000.00000" pt_clust_6="13000.00000" pt_clust_7="13000.00000" pt_clust_8="13000.00000" pt_clust_9="26.47644"></scales>
<clustering>
<clus scale="   26.476">  1  9  2 -1</clus>
<clus scale="   81.704">  5  6 -1 -1</clus>
<clus scale="   89.872">  2  5  1 -1</clus>
<clus scale="   90.900">  7  8 -1 -1</clus>
<clus scale="   26.476">  1  5  2 -1</clus>
</clustering>
</event>
<event>
 9    1  0.8429841E-005  0.1126639E+03  0.7546771E-02  0.1260376E+00
         21   -1    0    0  501  502  0.00000000000E+00  0.00000000000E+00  0.18436269876E+03  0.18436269876E+03  0.00000000000E+00 0. -1.
         -4   -1    0    0    0  501 -0.00000000000E+00 -0.00000000000E+00 -0.98253483444E+02  0.98253483444E+02  0.00000000000E+00 0.  1.
        -24    2    1    2    0    0 -0.57334403689E+02  0.66421391516E+01  0.51473318200E+01  0.97831986137E+02  0.78824175401E+02 0.  0.
         23    2    1    2    0    0  0.81869962835E+02 -0.26657461036E+02  0.86757737502E+02  0.15259415574E+03  0.91349659576E+02 0.  0.
         11    1    3    3    0    0 -0.47701596576E+01 -0.31135500291E+02  0.96510265688E+01  0.32944136282E+02  0.00000000000E+00 0. -1.
        -12    1    3    3    0    0 -0.52564244032E+02  0.37777639442E+02 -0.45036947488E+01  0.64887849855E+02  0.00000000000E+00 0.  1.
        -13    1    4    4    0    0  0.22616899109E+02  0.43869410769E+01 -0.17355015064E+02  0.28843819532E+02  0.00000000000E+00 0.  1.
         13    1    4    4    0    0  0.59253063726E+02 -0.31044402113E+02  0.10411275257E+03  0.12375033620E+03  0.00000000000E+00 0. -1.
         -3    1    1    2    0  502 -0.24535559146E+02  0.20015321884E+02 -0.57958540084E+01  0.32190040329E+02  0.00000000000E+00 0.  1.
<scales pt_clust_5="13000.00000" pt_clust_6="13000.00000" pt_clust_7="13000.00000" pt_clust_8="13000.00000" pt_clust_9="31.66398"></scales>
<clustering>
<clus scale="   31.664">  1  9  2 -1</clus>
<clus scale="   78.824">  5  6 -1 -1</clus>
<clus scale="   91.350">  7  8 -1 -1</clus>
<clus scale="  102.770">  2  5  1 -1</clus>
<clus scale="   31.664">  1  5  2 -1</clus>
</clustering>
</event>
<event>
 9    1  0.8429841E-005  0.9558339E+02  0.7546771E-02  0.1294971E+00
          3   -1    0    0  502    0 -0.00000000000E+00  0.00000000000E+00  0.36533349133E+03  0.36533349133E+03  0.00000000000E+00 0. -1.
         21   -1    0    0  501  502  0.00000000000E+00 -0.00000000000E+00 -0.10138158708E+03  0.10138158708E+03  0.00000000000E+00 0. -1.
         23    2    1    2    0    0 -0.68404618652E+01 -0.22543561398E+02  0.24956283691E+03  0.26632194554E+03  0.89948679975E+02 0.  0.
        -24    2    1    2    0    0  0.12865809623E+02  0.55712166954E+02  0.79633599010E+02  0.12695397353E+03  0.80662424337E+02 0.  0.
         11    1    4    4    0    0  0.27109997054E+02  0.69399858476E+02  0.44884869387E+02  0.86982433840E+02  0.00000000000E+00 0. -1.
        -12    1    4    4    0    0 -0.14244187431E+02 -0.13687691523E+02  0.34748729623E+02  0.39971539690E+02  0.00000000000E+00 0.  1.
        -13    1    3    3    0    0 -0.44234369412E+02 -0.16462358185E+02  0.82778155285E+02  0.95288570493E+02  0.00000000000E+00 0.  1.
         13    1    3    3    0    0  0.37393907547E+02 -0.60812032136E+01  0.16678468163E+03  0.17103337505E+03  0.00000000000E+00 0. -1.
          4    1    1    2  501    0 -0.60253477580E+01 -0.33168605556E+02 -0.65244531674E+02  0.73439159332E+02  0.00000000000E+00 0. -1.
<scales pt_clust_5="13000.00000" pt_clust_6="13000.00000" pt_clust_7="13000.00000" pt_clust_8="13000.00000" pt_clust_9="33.71144"></scales>
<clustering>
<clus scale="   33.711">  2  9  1 -1</clus>
<clus scale="   80.662">  5  6 -1 -1</clus>
<clus scale="   86.901">  2  5  1 -1</clus>
<clus scale="   89.949">  7  8 -1 -1</clus>
<clus scale="   33.711">  2  5  1 -1</clus>
</clustering>
</event>
<event>
 9    1  0.8429841E-005  0.2434632E+03  0.7546771E-02  0.1149214E+00
         21   -1    0    0  501  502  0.00000000000E+00  0.00000000000E+00  0.30588786778E+03  0.30588786778E+03  0.00000000000E+00 0. -1.
          1   -1    0    0  502    0 -0.00000000000E+00 -0.00000000000E+00 -0.58218105725E+03  0.58218105725E+03  0.00000000000E+00 0. -1.
         23    2    1    2    0    0 -0.33851115092E+02 -0.54980490218E+02  0.14434584751E+03  0.18286076481E+03  0.91834543154E+02 0.  0.
        -24    2    1    2    0    0  0.25138597564E+03  0.29113577715E+02 -0.40380673629E+03  0.48549507671E+03  0.92752790138E+02 0.  0.
         13    1    4    4    0    0  0.24957140159E+03  0.36071741103E+02 -0.40603577976E+03  0.47796664051E+03  0.00000000000E+00 0. -1.
        -14    1    4    4    0    0  0.18145740562E+01 -0.69581633880E+01  0.22290434734E+01  0.75284361952E+01  0.00000000000E+00 0.  1.
        -11    1    3    3    0    0 -0.17995342480E+02  0.17872219200E+02  0.81480582305E+02  0.85336591582E+02  0.00000000000E+00 0. -1.
         11    1    3    3    0    0 -0.15855772612E+02 -0.72852709418E+02  0.62865265202E+02  0.97524173227E+02  0.00000000000E+00 0.  1.
          2    1    1    2  501    0 -0.21753486055E+03  0.25866912503E+02 -0.16832300689E+02  0.21971308351E+03  0.00000000000E+00 0. -1.
<scales pt_clust_5="13000.00000" pt_clust_6="13000.00000" pt_clust_7="13000.00000" pt_clust_8="13000.00000" pt_clust_9="225.10277"></scales>
<clustering>
<clus scale="   91.835">  7  8 -1 -1</clus>
<clus scale="   92.753">  5  6 -1 -1</clus>
<clus scale="  112.260">  2  7  1 -1</clus>
<clus scale="  225.103">  1  9  2 -1</clus>
<clus scale="  225.103">  1  5  2 -1</clus>
</clustering>
</event>
<event>
 9    1  0.8429841E-005  0.1281577E+03  0.7546771E-02  0.1230373E+00
          1   -1    0    0  502    0 -0.00000000000E+00  0.00000000000E+00  0.47446516184E+02  0.47446516184E+02  0.00000000000E+00 0. -1.
         21   -1    0    0  501  502  0.00000000000E+00 -0.00000000000E+00 -0.49371816871E+03  0.49371816871E+03  0.00000000000E+00 0. -1.
         23    2    1    2    0    0  0.14396269138E+02 -0.88230483097E+02 -0.11869959579E+03  0.17316094328E+03  0.88900211047E+02 0.  0.
        -24    2    1    2    0    0 -0.44621176623E+02  0.89070157547E+02 -0.29248640717E+03  0.32168686681E+03  0.89496366037E+02 0.  0.
         13    1    4    4    0    0 -0.62291715516E+02  0.51414519793E+02 -0.24782773140E+03  0.26065742867E+03  0.00000000000E+00 0. -1.
        -14    1    4    4    0    0  0.17670538893E+02  0.37655637754E+02 -0.44658675769E+02  0.61029438149E+02  0.00000000000E+00 0.  1.
        -13    1    3    3    0    0 -0.20694370838E+02  0.28457773631E+01 -0.48880746078E+02  0.53157151638E+02  0.00000000000E+00 0.  1.
         13    1    3    3    0    0  0.35090639976E+02 -0.91076260460E+02 -0.69818849716E+02  0.12000379164E+03  0.00000000000E+00 0. -1.
          2    1    1    2  501    0  0.30224907485E+02 -0.83967445036E+00 -0.35085649567E+02  0.46316874800E+02  0.00000000000E+00 0. -1.
<scales pt_clust_5="13000.00000" pt_clust_6="13000.00000" pt_clust_7="13000.00000" pt_clust_8="13000.00000" pt_clust_9="30.23658"></scales>
<clustering>
<clus scale="   30.237">  2  9  1 -1</clus>
<clus scale="   88.900">  7  8 -1 -1</clus>
<clus scale="   89.496">  5  6 -1 -1</clus>
<clus scale="  127.742">  1  7  2 -1</clus>
<clus scale="   30.237">  2  5  1 -1</clus>
</clustering>
</event>
<event>
 9    1  0.8429841E-005  0.1569946E+03  0.7546771E-02  0.1205390E+00
          1   -1    0    0  502    0 -0.00000000000E+00  0.00000000000E+00  0.11036172208E+04  0.11036172208E+04  0.00000000000E+00 0. -1.
         21   -1    0    0  501  502  0.00000000000E+00 -0.00000000000E+00 -0.43870993368E+02  0.43870993368E+02  0.00000000000E+00 0. -1.
         23    2    1    2    0    0 -0.49730075961E+02  0.45684377441E+02  0.47842255306E+03  0.49267422631E+03  0.96330738593E+02 0.  0.
        -24    2    1    2    0    0  0.12002694631E+03  0.75397760141E+02  0.30766025205E+03  0.34741489427E+03  0.77142647059E+02 0.  0.
         13    1    4    4    0    0  0.10130870446E+03  0.51017902480E+02  0.15722114651E+03  0.19386791607E+03  0.00000000000E+00 0. -1.
        -14    1    4    4    0    0  0.18718241846E+02  0.24379857661E+02  0.15043910554E+03  0.15354697819E+03  0.00000000000E+00 0.  1.
        -13    1    3    3    0    0  0.26830721465E+02  0.25505302344E+02  0.19051862083E+03  0.19408182023E+03  0.00000000000E+00 0. -1.
         13    1    3    3    0    0 -0.76560797426E+02  0.20179075097E+02  0.28790393224E+03  0.29859240608E+03  0.00000000000E+00 0.  1.
          2    1    1    2  501    0 -0.70296870349E+02 -0.12108213758E+03  0.27366342235E+03  0.30739909362E+03  0.00000000000E+00 0. -1.
<scales pt_clust_5="13000.00000" pt_clust_6="13000.00000" pt_clust_7="13000.00000" pt_clust_8="13000.00000" pt_clust_9="136.73460"></scales>
<clustering>
<clus scale="   77.143">  5  6 -1 -1</clus>
<clus scale="   96.331">  7  8 -1 -1</clus>
<clus scale="  117.642">  1  7  2 -1</clus>
<clus scale="  136.735">  2  9  1 -1</clus>
<clus scale="  136.735">  2  5  1 -1</clus>
</clustering>
</event>
<event>
 9    1  0.8429841E-005  0.1389466E+03  0.7546771E-02  0.1215138E+00
         21   -1    0    0  501  502  0.00000000000E+00  0.00000000000E+00  0.23419034545E+02  0.23419034545E+02  0.00000000000E+00 0. -1.
          1   -1    0    0  502    0 -0.00000000000E+00 -0.00000000000E+00 -0.14450110073E+04  0.14450110073E+04  0.00000000000E+00 0. -1.
        -24    2    1    2    0    0 -0.25982875399E+02  0.12192365223E+03 -0.88399805158E+03  0.89664031580E+03  0.83491400404E+02 0.  0.
         23    2    1    2    0    0  0.14374448517E+02 -0.90838968636E+02 -0.51859130332E+03  0.53355214488E+03  0.85338200359E+02 0.  0.
         11    1    3    3    0    0 -0.60675266925E+01  0.11237708183E+03 -0.52319981793E+03  0.53516677110E+03  0.00000000000E+00 0. -1.
        -12    1    3    3    0    0 -0.19915348706E+02  0.95465703953E+01 -0.36079823364E+03  0.36147354470E+03  0.00000000000E+00 0.  1.
        -13    1    4    4    0    0  0.35212652256E+02 -0.33909121189E+01 -0.16003489138E+03  0.16389812575E+03  0.00000000000E+00 0.  1.
         13    1    4    4    0    0 -0.20838203738E+02 -0.87448056517E+02 -0.35855641193E+03  0.36965401914E+03  0.00000000000E+00 0. -1.
          2    1    1    2  501    0  0.11608426882E+02 -0.31084683590E+02 -0.19002617888E+02  0.38237581189E+02  0.00000000000E+00 0. -1.
<scales pt_clust_5="13000.00000" pt_clust_6="13000.00000" pt_clust_7="13000.00000" pt_clust_8="13000.00000" pt_clust_9="33.18152"></scales>
<clustering>
<clus scale="   33.182">  1  9  2 -1</clus>
<clus scale="   83.491">  5  6 -1 -1</clus>
<clus scale="   85.338">  7  8 -1 -1</clus>
<clus scale="  137.820">  2  5  1 -1</clus>
<clus scale="   33.182">  1  5  2 -1</clus>
</clustering>
</event>
<event>
 9    1  0.8429841E-005  0.9376939E+02  0.7546771E-02  0.1302488E+00
         21   -1    0    0  501  502  0.00000000000E+00  0.00000000000E+00  0.52333746035E+03  0.52333746035E+03  0.00000000000E+00 0.  1.
          3   -1    0    0  502    0 -0.00000000000E+00 -0.00000000000E+00 -0.52236030890E+02  0.52236030890E+02  0.00000000000E+00 0. -1.
         23    2    1    2    0    0 -0.10508143660E+02 -0.83011089955E+01  0.23935635242E+02  0.95513728843E+02  0.91491137655E+02 0.  0.
        -24    2    1    2    0    0  0.67614409438E+02 -0.28538122084E+02  0.27301017653E+03  0.29311476056E+03  0.77431089340E+02 0.  0.
         11    1    4    4    0    0  0.34522985706E+02  0.22620587316E+02  0.71095063535E+02  0.82207272012E+02  0.00000000000E+00 0. -1.
        -12    1    4    4    0    0  0.33091423732E+02 -0.51158709400E+02  0.20191511299E+03  0.21090748855E+03  0.00000000000E+00 0.  1.
        -13    1    3    3    0    0  0.25129139608E+02 -0.10785230417E+02  0.46007887459E+02  0.53521215989E+02  0.00000000000E+00 0. -1.
         13    1    3    3    0    0 -0.35637283267E+02  0.24841214211E+01 -0.22072252216E+02  0.41992512854E+02  0.00000000000E+00 0.  1.
          4    1    1    2  501    0 -0.57106265778E+02  0.36839231080E+02  0.17415561768E+03  0.18694500183E+03  0.00000000000E+00 0. -1.
<scales pt_clust_5="13000.00000" pt_clust_6="13000.00000" pt_clust_7="13000.00000" pt_clust_8="13000.00000" pt_clust_9="67.95774"></scales>
<clustering>
<clus scale="   67.958">  1  9  2 -1</clus>
<clus scale="   77.431">  5  6 -1 -1</clus>
<clus scale="   80.110">  1  5  2 -1</clus>
<clus scale="   91.491">  7  8 -1 -1</clus>
<clus scale="   67.958">  1  5  2 -1</clus>
</clustering>
</event>
<event>
 9    1  0.8429841E-005  0.1233872E+03  0.7546771E-02  0.1252634E+00
          1   -1    0    0  502    0 -0.00000000000E+00  0.00000000000E+00  0.11862948575E+03  0.11862948575E+03  0.00000000000E+00 0. -1.
         21   -1    0    0  501  502  0.00000000000E+00 -0.00000000000E+00 -0.22113449757E+03  0.22113449757E+03  0.00000000000E+00 0. -1.
         23    2    1    2    0    0 -0.16054979607E+02  0.33685097693E+02  0.74841940408E+01  0.91481261988E+02  0.83188700902E+02 0.  0.
        -24    2    1    2    0    0 -0.85382840386E+02 -0.41410830030E+01 -0.62904034955E+02  0.13261296103E+03  0.79510388118E+02 0.  0.
         11    1    4    4    0    0 -0.10081747330E+03 -0.68709252440E+01 -0.53633992175E+02  0.11440269950E+03  0.00000000000E+00 0. -1.
        -12    1    4    4    0    0  0.15434632914E+02  0.27298422410E+01 -0.92700427795E+01  0.18210261530E+02  0.00000000000E+00 0.  1.
        -13    1    3    3    0    0 -0.11118785132E+02 -0.24242826350E+02 -0.13218973101E+02  0.29767150722E+02  0.00000000000E+00 0. -1.
         13    1    3    3    0    0 -0.49361944746E+01  0.57927924042E+02  0.20703167142E+02  0.61714111267E+02  0.00000000000E+00 0.  1.
          2    1    1    2  501    0  0.10143781999E+03 -0.29544014690E+02 -0.47085170908E+02  0.11566976030E+03  0.00000000000E+00 0. -1.
<scales pt_clust_5="13000.00000" pt_clust_6="13000.00000" pt_clust_7="13000.00000" pt_clust_8="13000.00000" pt_clust_9="94.35317"></scales>
<clustering>
<clus scale="   79.510">  5  6 -1 -1</clus>
<clus scale="   83.189">  7  8 -1 -1</clus>
<clus scale="   91.175">  1  7  2 -1</clus>
<clus scale="   94.353">  2  9  1 -1</clus>
<clus scale="   94.353">  2  5  1 -1</clus>
</clustering>
</event>
<event>
 9    1  0.8429841E-005  0.1203859E+03  0.7546771E-02  0.1244867E+00
          1   -1    0    0  502    0 -0.00000000000E+00  0.00000000000E+00  0.36336098897E+03  0.36336098897E+03  0.00000000000E+00 0. -1.
         21   -1    0    0  501  502  0.00000000000E+00 -0.00000000000E+00 -0.74518663843E+02  0.74518663843E+02  0.00000000000E+00 0. -1.
        -24    2    1    2    0    0  0.16531611321E+02  0.38659409151E+02  0.62583828754E+02  0.11194714742E+03  0.82750130545E+02 0.  0.
         23    2    1    2    0    0 -0.49825270215E+02 -0.10767372475E+03  0.18878652797E+03  0.24063542516E+03  0.90492354064E+02 0.  0.
         13    1    3    3    0    0  0.36314923272E+02  0.20729423288E+02  0.72311258173E+02  0.83530836825E+02  0.00000000000E+00 0. -1.
        -14    1    3    3    0    0 -0.19783311951E+02  0.17929985862E+02 -0.97274294184E+01  0.28416310596E+02  0.00000000000E+00 0.  1.
        -11    1    4    4    0    0 -0.56844009415E+02 -0.52267967373E+02  0.16032430613E+03  0.17795242329E+03  0.00000000000E+00 0. -1.
         11    1    4    4    0    0  0.70187392003E+01 -0.55405757380E+02  0.28462221840E+02  0.62683001865E+02  0.00000000000E+00 0.  1.
          2    1    1    2  501    0  0.33293658893E+02  0.69014315602E+02  0.37471968401E+02  0.85297080234E+02  0.00000000000E+00 0. -1.
<scales pt_clust_5="13000.00000" pt_clust_6="13000.00000" pt_clust_7="13000.00000" pt_clust_8="13000.00000" pt_clust_9="76.62534"></scales>
<clustering>
<clus scale="   76.625">  2  9  1 -1</clus>
<clus scale="   82.750">  5  6 -1 -1</clus>
<clus scale="   90.492">  7  8 -1 -1</clus>
<clus scale="  114.680">  1  5  2 -1</clus>
<clus scale="   76.625">  2  5  1 -1</clus>
</clustering>
</event>
<event>
 9    1  0.8429841E-005  0.1005552E+03  0.7546771E-02  0.1284637E+00
         21   -1    0    0  501  502  0.00000000000E+00  0.00000000000E+00  0.23549496725E+03  0.23549496725E+03  0.00000000000E+00 0. -1.
         -4   -1    0    0    0  501 -0.00000000000E+00 -0.00000000000E+00 -0.12314231874E+03  0.12314231874E+03  0.00000000000E+00 0.  1.
         23    2    1    2    0    0 -0.63673096597E+01  0.38173163351E+02 -0.67541935425E+02  0.12109873868E+03  0.92764532216E+02 0.  0.
        -24    2    1    2    0    0 -0.40026435853E+02 -0.42829476594E+02  0.15460474565E+03  0.18449482199E+03  0.81848838291E+02 0.  0.
         13    1    4    4    0    0 -0.99736431290E+01 -0.36313236038E+02  0.14842650108E+03  0.15312919674E+03  0.00000000000E+00 0. -1.
        -14    1    4    4    0    0 -0.30052792724E+02 -0.65162405554E+01  0.61782445679E+01  0.31365625252E+02  0.00000000000E+00 0.  1.
        -13    1    3    3    0    0  0.17823476441E+02  0.50578386749E+02 -0.75649770700E+02  0.92729376820E+02  0.00000000000E+00 0.  1.
         13    1    3    3    0    0 -0.24190786100E+02 -0.12405223397E+02  0.81078352747E+01  0.28369361863E+02  0.00000000000E+00 0. -1.
         -3    1    1    2    0  502  0.46393745513E+02  0.46563132425E+01  0.25289838275E+02  0.53043725319E+02  0.00000000000E+00 0.  1.
<scales pt_clust_5="13000.00000" pt_clust_6="13000.00000" pt_clust_7="13000.00000" pt_clust_8="13000.00000" pt_clust_9="46.62683"></scales>
<clustering>
<clus scale="   46.627">  1  9  2 -1</clus>
<clus scale="   81.849">  5  6 -1 -1</clus>
<clus scale="   90.583">  1  5  2 -1</clus>
<clus scale="   92.765">  7  8 -1 -1</clus>
<clus scale="   46.627">  1  5  2 -1</clus>
</clustering>
</event>
<event>
 9    1  0.8429841E-005  0.1239222E+03  0.7546771E-02  0.1239341E+00
          1   -1    0    0  502    0 -0.00000000000E+00  0.00000000000E+00  0.51714495975E+03  0.51714495975E+03  0.00000000000E+00 0. -1.
         21   -1    0    0  501  502  0.00000000000E+00 -0.00000000000E+00 -0.47975411812E+02  0.47975411812E+02  0.00000000000E+00 0.  1.
        -24    2    1    2    0    0  0.97730028889E+01 -0.81573389575E+02  0.25517396966E+03  0.28002377253E+03  0.80931013309E+02 0.  0.
         23    2    1    2    0    0 -0.45109488990E+02  0.82184757334E+02  0.21331649869E+03  0.24974830106E+03  0.89894854882E+02 0.  0.
         13    1    3    3    0    0  0.41389630830E+02 -0.28998123192E+02  0.82202805601E+02  0.96495046182E+02  0.00000000000E+00 0. -1.
        -14    1    3    3    0    0 -0.31616627941E+02 -0.52575266383E+02  0.17297116406E+03  0.18352872635E+03  0.00000000000E+00 0.  1.
        -11    1    4    4    0    0 -0.59105007719E+02  0.43374884253E+02  0.18688693153E+03  0.20075235415E+03  0.00000000000E+00 0. -1.
         11    1    4    4    0    0  0.13995518729E+02  0.38809873081E+02  0.26429567159E+02  0.48995946907E+02  0.00000000000E+00 0.  1.
          2    1    1    2  501    0  0.35336486101E+02 -0.61136775846E+00  0.67907958522E+00  0.35348297973E+02  0.00000000000E+00 0. -1.
<scales pt_clust_5="13000.00000" pt_clust_6="13000.00000" pt_clust_7="13000.00000" pt_clust_8="13000.00000" pt_clust_9="35.34177"></scales>
<clustering>
<clus scale="   35.342">  2  9  1 -1</clus>
<clus scale="   80.931">  5  6 -1 -1</clus>
<clus scale="   89.895">  7  8 -1 -1</clus>
<clus scale="  117.582">  1  5  2 -1</clus>
<clus scale="   35.342">  2  5  1 -1</clus>
</clustering>
</event>
<event>
 9    1  0.8429841E-005  0.2621583E+03  0.7546771E-02  0.1106281E+00
         21   -1    0    0  501  502  0.00000000000E+00  0.00000000000E+00  0.30753373135E+03  0.30753373135E+03  0.00000000000E+00 0. -1.
          1   -1    0    0  502    0 -0.00000000000E+00 -0.00000000000E+00 -0.81563488468E+03  0.81563488468E+03  0.00000000000E+00 0. -1.
        -24    2    1    2    0    0 -0.10488708770E+03 -0.23122603060E+03 -0.39476611838E+03  0.47633206721E+03  0.81149070459E+02 0.  0.
         23    2    1    2    0    0  0.35102013616E+02  0.24045751358E+03 -0.32969272432E+03  0.41931550234E+03  0.89867852079E+02 0.  0.
         13    1    3    3    0    0 -0.16144214713E+01 -0.30698274370E+02 -0.10333009896E+03  0.10780584287E+03  0.00000000000E+00 0. -1.
        -14    1    3    3    0    0 -0.10327266623E+03 -0.20052775623E+03 -0.29143601942E+03  0.36852622434E+03  0.00000000000E+00 0.  1.
        -13    1    4    4    0    0 -0.29461420323E+02  0.79457529963E+02 -0.12485387562E+03  0.15089719883E+03  0.00000000000E+00 0. -1.
         13    1    4    4    0    0  0.64563433939E+02  0.16099998362E+03 -0.20483884869E+03  0.26841830351E+03  0.00000000000E+00 0.  1.
          2    1    1    2  501    0  0.69785074087E+02 -0.92314829802E+01  0.21635768937E+03  0.22752104649E+03  0.00000000000E+00 0. -1.
<scales pt_clust_5="13000.00000" pt_clust_6="13000.00000" pt_clust_7="13000.00000" pt_clust_8="13000.00000" pt_clust_9="70.39302"></scales>
<clustering>
<clus scale="   70.393">  1  9  2 -1</clus>
<clus scale="   81.149">  5  6 -1 -1</clus>
<clus scale="   89.868">  7  8 -1 -1</clus>
<clus scale="  259.299">  2  5  1 -1</clus>
<clus scale="   70.393">  1  5  2 -1</clus>
</clustering>
</event>
<event>
 9    1  0.8429841E-005  0.1413421E+03  0.7546771E-02  0.1214097E+00
         21   -1    0    0  501  502  0.00000000000E+00  0.00000000000E+00  0.87247805885E+03  0.87247805885E+03  0.00000000000E+00 0. -1.
          1   -1    0    0  502    0 -0.00000000000E+00 -0.00000000000E+00 -0.57647987096E+02  0.57647987096E+02  0.00000000000E+00 0. -1.
         23    2    1    2    0    0  0.10475356271E+03 -0.13903767510E+02  0.15993229427E+03  0.21312947268E+03  0.93162276296E+02 0.  0.
        -24    2    1    2    0    0 -0.99977853852E+02  0.56854012548E+02  0.65871792945E+03  0.67361311438E+03  0.81347202079E+02 0.  0.
         11    1    4    4    0    0 -0.90973610590E+02  0.89606228234E+01  0.39606269041E+03  0.40647527025E+03  0.00000000000E+00 0. -1.
        -12    1    4    4    0    0 -0.90042432621E+01  0.47893389725E+02  0.26265523904E+03  0.26713784414E+03  0.00000000000E+00 0.  1.
        -11    1    3    3    0    0  0.77955042467E+02  0.20184063068E+02  0.14745394057E+03  0.16800907605E+03  0.00000000000E+00 0. -1.
         11    1    3    3    0    0  0.26798520239E+02 -0.34087830578E+02  0.12478353699E+02  0.45120396625E+02  0.00000000000E+00 0.  1.
          2    1    1    2  501    0 -0.47757088535E+01 -0.42950245038E+02 -0.38201519610E+01  0.43383458886E+02  0.00000000000E+00 0. -1.
<scales pt_clust_5="13000.00000" pt_clust_6="13000.00000" pt_clust_7="13000.00000" pt_clust_8="13000.00000" pt_clust_9="43.21496"></scales>
<clustering>
<clus scale="   43.215">  1  9  2 -1</clus>
<clus scale="   81.347">  5  6 -1 -1</clus>
<clus scale="   93.162">  7  8 -1 -1</clus>
<clus scale="  133.850">  1  5  2 -1</clus>
<clus scale="   43.215">  1  5  2 -1</clus>
</clustering>
</event>
<event>
 9    1  0.8429841E-005  0.1122257E+03  0.7546771E-02  0.1260227E+00
          1   -1    0    0  502    0 -0.00000000000E+00  0.00000000000E+00  0.41467298881E+03  0.41467298881E+03  0.00000000000E+00 0. -1.
         21   -1    0    0  501  502  0.00000000000E+00 -0.00000000000E+00 -0.99885977289E+02  0.99885977289E+02  0.00000000000E+00 0.  1.
         23    2    1    2    0    0 -0.62050657894E+02  0.60008502970E+01  0.62539185170E+02  0.12639678371E+03  0.90436181378E+02 0.  0.
        -24    2    1    2    0    0  0.60291700814E+02 -0.64276627788E+02 -0.98302408896E+01  0.11967740907E+03  0.80370856280E+02 0.  0.
         13    1    4    4    0    0  0.43639473766E+02 -0.75727095209E+02  0.13908939280E+02  0.88501159378E+02  0.00000000000E+00 0. -1.
        -14    1    4    4    0    0  0.16652227048E+02  0.11450467421E+02 -0.23739180170E+02  0.31176249693E+02  0.00000000000E+00 0.  1.
        -11    1    3    3    0    0 -0.38510269044E+02 -0.41626204669E+02  0.32940353550E+02  0.65580855659E+02  0.00000000000E+00 0.  1.
         11    1    3    3    0    0 -0.23540388849E+02  0.47627054966E+02  0.29598831620E+02  0.60815928055E+02  0.00000000000E+00 0. -1.
          2    1    1    2  501    0  0.17589570800E+01  0.58275777491E+02  0.26207806724E+03  0.26848477331E+03  0.00000000000E+00 0. -1.
<scales pt_clust_5="13000.00000" pt_clust_6="13000.00000" pt_clust_7="13000.00000" pt_clust_8="13000.00000" pt_clust_9="58.30235"></scales>
<clustering>
<clus scale="   58.302">  2  9  1 -1</clus>
<clus scale="   80.371">  5  6 -1 -1</clus>
<clus scale="   90.436">  7  8 -1 -1</clus>
<clus scale="  104.285">  2  5  1 -1</clus>
<clus scale="   58.302">  2  5  1 -1</clus>
</clustering>
</event>
<event>
 9    1  0.8429841E-005  0.9738192E+02  0.7546771E-02  0.1289155E+00
         21   -1    0    0  501  502  0.00000000000E+00  0.00000000000E+00  0.15725549420E+03  0.15725549420E+03  0.00000000000E+00 0.  1.
          1   -1    0    0  502    0 -0.00000000000E+00 -0.00000000000E+00 -0.12320692241E+03  0.12320692241E+03  0.00000000000E+00 0. -1.
         23    2    1    2    0    0 -0.16776123293E+02 -0.52982501225E+01 -0.57241602697E+02  0.11163309866E+03  0.94211665257E+02 0.  0.
        -24    2    1    2    0    0  0.39578704352E+02  0.12458889754E+02  0.28391888621E+02  0.10154316166E+03  0.88222540022E+02 0.  0.
         11    1    4    4    0    0  0.53124065897E+01  0.45095425262E+02 -0.17438088647E+01  0.45440729667E+02  0.00000000000E+00 0. -1.
        -12    1    4    4    0    0  0.34266297763E+02 -0.32636535508E+02  0.30135697486E+02  0.56102431990E+02  0.00000000000E+00 0.  1.
        -11    1    3    3    0    0 -0.18956383868E+01 -0.49216649280E+02 -0.25733931457E+02  0.55570740858E+02  0.00000000000E+00 0.  1.
         11    1    3    3    0    0 -0.14880484906E+02  0.43918399158E+02 -0.31507671240E+02  0.56062357804E+02  0.00000000000E+00 0. -1.
          2    1    1    2  501    0 -0.22802581060E+02 -0.71606396319E+01  0.62898285864E+02  0.67286156284E+02  0.00000000000E+00 0. -1.
<scales pt_clust_5="13000.00000" pt_clust_6="13000.00000" pt_clust_7="13000.00000" pt_clust_8="13000.00000" pt_clust_9="23.90047"></scales>
<clustering>
<clus scale="   23.900">  1  9  2 -1</clus>
<clus scale="   88.223">  5  6 -1 -1</clus>
<clus scale="   91.600">  1  5  2 -1</clus>
<clus scale="   94.212">  7  8 -1 -1</clus>
<clus scale="   23.900">  1  5  2 -1</clus>
</clustering>
</event>
<event>
 9    1  0.8429841E-005  0.1089498E+03  0.7546771E-02  0.1278339E+00
         21   -1    0    0  501  502  0.00000000000E+00  0.00000000000E+00  0.13032637839E+04  0.13032637839E+04  0.00000000000E+00 0.  1.
          3   -1    0    0  502    0 -0.00000000000E+00 -0.00000000000E+00 -0.12435492557E+02  0.12435492557E+02  0.00000000000E+00 0. -1.
         23    2    1    2    0    0 -0.95883629547E+01 -0.65633687727E+01  0.32228267866E+03  0.34033437296E+03  0.10874900432E+03 0.  0.
        -24    2    1    2    0    0 -0.14003304518E+01 -0.14843415296E+02  0.87496391032E+03  0.87873914708E+03  0.79989726436E+02 0.  0.
         11    1    4    4    0    0 -0.26965829080E+02  0.10416873456E+02  0.14295839728E+03  0.14585187877E+03  0.00000000000E+00 0. -1.
        -12    1    4    4    0    0  0.25565498628E+02 -0.25260288752E+02  0.73200551305E+03  0.73288726830E+03  0.00000000000E+00 0.  1.
        -11    1    3    3    0    0 -0.17554155087E+02 -0.52517591755E+02  0.11199218215E+03  0.12493396123E+03  0.00000000000E+00 0.  1.
         11    1    3    3    0    0  0.79657921328E+01  0.45954222983E+02  0.21029049650E+03  0.21540041173E+03  0.00000000000E+00 0. -1.
          4    1    1    2  501    0  0.10988693406E+02  0.21406784069E+02  0.93581702412E+02  0.96625756469E+02  0.00000000000E+00 0. -1.
<scales pt_clust_5="13000.00000" pt_clust_6="13000.00000" pt_clust_7="13000.00000" pt_clust_8="13000.00000" pt_clust_9="24.06247"></scales>
<clustering>
<clus scale="   24.062">  1  9  2 -1</clus>
<clus scale="   79.990">  5  6 -1 -1</clus>
<clus scale="   80.262">  1  5  2 -1</clus>
<clus scale="  108.749">  7  8 -1 -1</clus>
<clus scale="   24.062">  1  5  2 -1</clus>
</clustering>
</event>
<event>
 9    1  0.8429841E-005  0.1069146E+03  0.7546771E-02  0.1267167E+00
          1   -1    0    0  502    0 -0.00000000000E+00  0.00000000000E+00  0.25191310748E+03  0.25191310748E+03  0.00000000000E+00 0. -1.
         21   -1    0    0  501  502  0.00000000000E+00 -0.00000000000E+00 -0.11178735760E+03  0.11178735760E+03  0.00000000000E+00 0. -1.
         23    2    1    2    0    0  0.73998601494E+02  0.31225018489E+02  0.53244895453E+02  0.13257772867E+03  0.91055150568E+02 0.  0.
        -24    2    1    2    0    0 -0.32886203050E+02  0.65736461213E+02  0.42534611249E+02  0.11684961124E+03  0.80261160030E+02 0.  0.
         13    1    4    4    0    0  0.19731528363E+02  0.49955710040E+02  0.17591626255E+02  0.56518771143E+02  0.00000000000E+00 0. -1.
        -14    1    4    4    0    0 -0.52617731413E+02  0.15780751172E+02  0.24942984994E+02  0.60330840099E+02  0.00000000000E+00 0.  1.
        -11    1    3    3    0    0  0.65404054408E+02 -0.91214307895E+01  0.10446915194E+01  0.66045304247E+02  0.00000000000E+00 0.  1.
         11    1    3    3    0    0  0.85945470855E+01  0.40346449278E+02  0.52200203933E+02  0.66532424423E+02  0.00000000000E+00 0. -1.
          2    1    1    2  501    0 -0.41112398444E+02 -0.96961479702E+02  0.44346243183E+02  0.11427312517E+03  0.00000000000E+00 0. -1.
<scales pt_clust_5="13000.00000" pt_clust_6="13000.00000" pt_clust_7="13000.00000" pt_clust_8="13000.00000" pt_clust_9="105.31747"></scales>
<clustering>
<clus scale="   80.261">  5  6 -1 -1</clus>
<clus scale="   91.055">  7  8 -1 -1</clus>
<clus scale="  105.317">  2  9  1 -1</clus>
<clus scale="  105.317">  2  5  1 -1</clus>
<clus scale="  105.317">  2  5  1 -1</clus>
</clustering>
</event>
<event>
 9    1  0.8429841E-005  0.1458622E+03  0.7546771E-02  0.1222209E+00
          1   -1    0    0  502    0 -0.00000000000E+00  0.00000000000E+00  0.51308893012E+03  0.51308893012E+03  0.00000000000E+00 0. -1.
         21   -1    0    0  501  502  0.00000000000E+00 -0.00000000000E+00 -0.22609617796E+03  0.22609617796E+03  0.00000000000E+00 0. -1.
         23    2    1    2    0    0 -0.14322453903E+02  0.45162741067E+02  0.24820431382E+03  0.26859710148E+03  0.91072584572E+02 0.  0.
        -24    2    1    2    0    0 -0.94752165008E+02 -0.91384442995E+02  0.21031046082E+03  0.26213292172E+03  0.84581851033E+02 0.  0.
         11    1    4    4    0    0 -0.86123483947E+02 -0.28382393450E+02  0.14468029491E+03  0.17074894577E+03  0.00000000000E+00 0. -1.
        -12    1    4    4    0    0 -0.86286810616E+01 -0.63002049545E+02  0.65630165905E+02  0.91383975950E+02  0.00000000000E+00 0.  1.
        -11    1    3    3    0    0 -0.36186129895E+02  0.57265436438E+02  0.22317093240E+03  0.23322528009E+03  0.00000000000E+00 0. -1.
         11    1    3    3    0    0  0.21863675992E+02 -0.12102695370E+02  0.25033381422E+02  0.35371821391E+02  0.00000000000E+00 0.  1.
          2    1    1    2  501    0  0.10907461891E+03  0.46221701927E+02 -0.17152202247E+03  0.20845508488E+03  0.00000000000E+00 0. -1.
<scales pt_clust_5="13000.00000" pt_clust_6="13000.00000" pt_clust_7="13000.00000" pt_clust_8="13000.00000" pt_clust_9="118.83473"></scales>
<clustering>
<clus scale="   84.582">  5  6 -1 -1</clus>
<clus scale="   91.073">  7  8 -1 -1</clus>
<clus scale="  102.660">  1  7  2 -1</clus>
<clus scale="  118.835">  2  9  1 -1</clus>
<clus scale="  118.835">  2  5  1 -1</clus>
</clustering>
</event>
<event>
 9    1  0.8429841E-005  0.2030754E+03  0.7546771E-02  0.1152452E+00
         21   -1    0    0  501  502  0.00000000000E+00  0.00000000000E+00  0.99503076280E+02  0.99503076280E+02  0.00000000000E+00 0. -1.
          1   -1    0    0  502    0 -0.00000000000E+00 -0.00000000000E+00 -0.10320050011E+04  0.10320050011E+04  0.00000000000E+00 0. -1.
        -24    2    1    2    0    0  0.15978590921E+03  0.16940932827E+02 -0.12737315622E+03  0.21983799468E+03  0.79286133687E+02 0.  0.
         23    2    1    2    0    0 -0.58433848152E+02 -0.18763930197E+03 -0.31221594758E+03  0.38028206755E+03  0.92263918876E+02 0.  0.
         13    1    3    3    0    0  0.15841692458E+03 -0.31079220777E+01 -0.10681129405E+03  0.19108697943E+03  0.00000000000E+00 0. -1.
        -14    1    3    3    0    0  0.13689846264E+01  0.20048854905E+02 -0.20561862174E+02  0.28751015251E+02  0.00000000000E+00 0.  1.
        -11    1    4    4    0    0  0.25378249168E+02 -0.42555364827E+02 -0.72537121621E+02  0.87844456965E+02  0.00000000000E+00 0.  1.
         11    1    4    4    0    0 -0.83812097320E+02 -0.14508393715E+03 -0.23967882596E+03  0.29243761059E+03  0.00000000000E+00 0. -1.
          2    1    1    2  501    0 -0.10135206105E+03  0.17069836915E+03 -0.49291282098E+03  0.53138801511E+03  0.00000000000E+00 0. -1.
<scales pt_clust_5="13000.00000" pt_clust_6="13000.00000" pt_clust_7="13000.00000" pt_clust_8="13000.00000" pt_clust_9="180.90613"></scales>
<clustering>
<clus scale="   79.286">  5  6 -1 -1</clus>
<clus scale="   92.264">  7  8 -1 -1</clus>
<clus scale="  179.178">  2  5  1 -1</clus>
<clus scale="  180.906">  1  9  2 -1</clus>
<clus scale="  180.906">  1  5  2 -1</clus>
</clustering>
</event>
<event>
 9    1  0.8429841E-005  0.9130318E+02  0.7546771E-02  0.1304569E+00
         21   -1    0    0  501  502  0.00000000000E+00  0.00000000000E+00  0.25055258224E+03  0.25055258224E+03  0.00000000000E+00 0.  1.
          1   -1    0    0  502    0 -0.00000000000E+00 -0.00000000000E+00 -0.80145585726E+02  0.80145585726E+02  0.00000000000E+00 0. -1.
        -24    2    1    2    0    0 -0.14861935746E+02  0.75846472544E+01 -0.28670388507E+02  0.88691878032E+02  0.82254811675E+02 0.  0.
         23    2    1    2    0    0 -0.93340418331E+01 -0.14867752419E+02  0.19613319715E+03  0.21656700547E+03  0.90138018812E+02 0.  0.
         13    1    3    3    0    0 -0.41702825384E+02  0.26926603095E+02 -0.97795940492E+01  0.50594545743E+02  0.00000000000E+00 0. -1.
        -14    1    3    3    0    0  0.26840889638E+02 -0.19341955840E+02 -0.18890794458E+02  0.38097332289E+02  0.00000000000E+00 0.  1.
        -11    1    4    4    0    0  0.17026630758E+01 -0.48960800191E+02  0.69987626301E+02  0.85430245534E+02  0.00000000000E+00 0. -1.
         11    1    4    4    0    0 -0.11036704909E+02  0.34093047772E+02  0.12614557085E+03  0.13113675994E+03  0.00000000000E+00 0.  1.
          2    1    1    2  501    0  0.24195977579E+02  0.72831051647E+01  0.29441878716E+01  0.25439284465E+02  0.00000000000E+00 0. -1.
<scales pt_clust_5="13000.00000" pt_clust_6="13000.00000" pt_clust_7="13000.00000" pt_clust_8="13000.00000" pt_clust_9="25.26835"></scales>
<clustering>
<clus scale="   25.268">  1  9  2 -1</clus>
<clus scale="   82.255">  5  6 -1 -1</clus>
<clus scale="   83.530">  2  5  1 -1</clus>
<clus scale="   90.138">  7  8 -1 -1</clus>
<clus scale="   25.268">  1  5  2 -1</clus>
</clustering>
</event>
<event>
 9    1  0.8429841E-005  0.9670073E+02  0.7546771E-02  0.1294594E+00
         -4   -1    0    0    0  501 -0.00000000000E+00  0.00000000000E+00  0.10783094036E+03  0.10783094036E+03  0.00000000000E+00 0.  1.
         21   -1    0    0  501  502  0.00000000000E+00 -0.00000000000E+00 -0.19313071680E+03  0.19313071680E+03  0.00000000000E+00 0. -1.
        -24    2    1    2    0    0  0.23076345966E+02 -0.92291994480E+01  0.60424768070E+02  0.10321756032E+03  0.79906296975E+02 0.  0.
         23    2    1    2    0    0 -0.32810274367E+02  0.36086756770E+02 -0.12017205087E+03  0.15941646088E+03  0.92701230150E+02 0.  0.
         13    1    3    3    0    0  0.10171148599E+02  0.34441121415E+02  0.15064918418E+02  0.38943483088E+02  0.00000000000E+00 0. -1.
        -14    1    3    3    0    0  0.12905197368E+02 -0.43670320863E+02  0.45359849652E+02  0.64274077231E+02  0.00000000000E+00 0.  1.
        -11    1    4    4    0    0 -0.23707068260E+02  0.15389785789E+01  0.89924803228E+01  0.25401933842E+02  0.00000000000E+00 0.  1.
         11    1    4    4    0    0 -0.91032061064E+01  0.34547778191E+02 -0.12916453119E+03  0.13401452704E+03  0.00000000000E+00 0. -1.
         -3    1    1    2    0  502  0.97339284002E+01 -0.26857557322E+02 -0.25552493641E+02  0.38327635965E+02  0.00000000000E+00 0.  1.
<scales pt_clust_5="13000.00000" pt_clust_6="13000.00000" pt_clust_7="13000.00000" pt_clust_8="13000.00000" pt_clust_9="28.56707"></scales>
<clustering>
<clus scale="   28.567">  2  9  1 -1</clus>
<clus scale="   79.906">  5  6 -1 -1</clus>
<clus scale="   84.513">  1  5  2 -1</clus>
<clus scale="   92.701">  7  8 -1 -1</clus>
<clus scale="   28.567">  2  5  1 -1</clus>
</clustering>
</event>
<event>
 9    1  0.8429841E-005  0.1317610E+03  0.7546771E-02  0.1227683E+00
          1   -1    0    0  502    0 -0.00000000000E+00  0.00000000000E+00  0.38309844755E+03  0.38309844755E+03  0.00000000000E+00 0. -1.
         21   -1    0    0  501  502  0.00000000000E+00 -0.00000000000E+00 -0.17757206100E+03  0.17757206100E+03  0.00000000000E+00 0. -1.
        -24    2    1    2    0    0 -0.97710415164E+02  0.29563229196E+02  0.91652917240E+02  0.15885783655E+03  0.80088983278E+02 0.  0.
         23    2    1    2    0    0  0.48506460218E+02 -0.59426399868E+02 -0.11509534069E+03  0.16572041441E+03  0.91279486298E+02 0.  0.
         13    1    3    3    0    0 -0.10178112493E+03  0.30112009529E+02  0.10231849679E+03  0.14742864476E+03  0.00000000000E+00 0. -1.
        -14    1    3    3    0    0  0.40707097676E+01 -0.54878033377E+00 -0.10665579549E+02  0.11429191790E+02  0.00000000000E+00 0.  1.
        -11    1    4    4    0    0  0.28886527415E+02  0.97947913943E+01 -0.61459228912E+00  0.30508148554E+02  0.00000000000E+00 0.  1.
         11    1    4    4    0    0  0.19619932804E+02 -0.69221191263E+02 -0.11448074840E+03  0.13521226585E+03  0.00000000000E+00 0. -1.
          2    1    1    2  501    0  0.49203954946E+02  0.29863170673E+02  0.22896880999E+03  0.23609225759E+03  0.00000000000E+00 0. -1.
<scales pt_clust_5="13000.00000" pt_clust_6="13000.00000" pt_clust_7="13000.00000" pt_clust_8="13000.00000" pt_clust_9="57.55729"></scales>
<clustering>
<clus scale="   57.557">  2  9  1 -1</clus>
<clus scale="   80.089">  5  6 -1 -1</clus>
<clus scale="   91.279">  7  8 -1 -1</clus>
<clus scale="  124.271">  1  5  2 -1</clus>
<clus scale="   57.557">  2  5  1 -1</clus>
</clustering>
</event>
<event>
 9    1  0.8429841E-005  0.1578736E+03  0.7546771E-02  0.1207375E+00
          1   -1    0    0  502    0 -0.00000000000E+00  0.00000000000E+00  0.62468758213E+03  0.62468758213E+03  0.00000000000E+00 0. -1.
         21   -1    0    0  501  502  0.00000000000E+00 -0.00000000000E+00 -0.13663876095E+03  0.13663876095E+03  0.00000000000E+00 0. -1.
         23    2    1    2    0    0 -0.30356155931E+02 -0.55320032156E+02  0.38567260196E+03  0.40128880573E+03  0.91145748883E+02 0.  0.
        -24    2    1    2    0    0 -0.42913092976E+02 -0.74365534866E+02  0.16105246634E+03  0.19994496692E+03  0.81659822170E+02 0.  0.
         11    1    4    4    0    0  0.18017459973E+01 -0.73610713305E+02  0.95492213546E+02  0.12058418740E+03  0.00000000000E+00 0. -1.
        -12    1    4    4    0    0 -0.44714838973E+02 -0.75482156121E+00  0.65560252792E+02  0.79360779521E+02  0.00000000000E+00 0.  1.
        -13    1    3    3    0    0 -0.51260747871E+02 -0.54126191400E+00  0.15381690281E+03  0.16213450227E+03  0.00000000000E+00 0.  1.
         13    1    3    3    0    0  0.20904591940E+02 -0.54778770242E+02  0.23185569916E+03  0.23915430346E+03  0.00000000000E+00 0. -1.
          2    1    1    2  501    0  0.73269248906E+02  0.12968556702E+03 -0.58676247130E+02  0.16009257043E+03  0.00000000000E+00 0. -1.
<scales pt_clust_5="13000.00000" pt_clust_6="13000.00000" pt_clust_7="13000.00000" pt_clust_8="13000.00000" pt_clust_9="135.11389"></scales>
<clustering>
<clus scale="   81.660">  5  6 -1 -1</clus>
<clus scale="   91.146">  7  8 -1 -1</clus>
<clus scale="  110.857">  1  7  2 -1</clus>
<clus scale="  135.114">  2  9  1 -1</clus>
<clus scale="  135.114">  2  5  1 -1</clus>
</clustering>
</event>
<event>
 9    1  0.8429841E-005  0.3038383E+03  0.7546771E-02  0.1083337E+00
          1   -1    0    0  502    0 -0.00000000000E+00  0.00000000000E+00  0.14656688227E+04  0.14656688227E+04  0.00000000000E+00 0. -1.
         21   -1    0    0  501  502  0.00000000000E+00 -0.00000000000E+00 -0.48309827770E+02  0.48309827770E+02  0.00000000000E+00 0. -1.
        -24    2    1    2    0    0 -0.16195787389E+03 -0.15462911281E+02  0.37506569989E+03  0.41678658234E+03  0.81039011841E+02 0.  0.
         23    2    1    2    0    0 -0.64623481891E+02 -0.11232326270E+02  0.41372629095E+03  0.42850064070E+03  0.90227466371E+02 0.  0.
         11    1    3    3    0    0 -0.14260744551E+03 -0.35548595617E+02  0.34869588712E+03  0.37840376301E+03  0.00000000000E+00 0. -1.
        -12    1    3    3    0    0 -0.19350428386E+02  0.20085684336E+02  0.26369812768E+02  0.38382819326E+02  0.00000000000E+00 0.  1.
        -13    1    4    4    0    0 -0.61901138259E+02 -0.41320182349E+02  0.35194753138E+03  0.35973069543E+03  0.00000000000E+00 0.  1.
         13    1    4    4    0    0 -0.27223436321E+01  0.30087856079E+02  0.61778759567E+02  0.68769945266E+02  0.00000000000E+00 0. -1.
          2    1    1    2  501    0  0.22658135579E+03  0.26695237551E+02  0.62856700407E+03  0.66869142742E+03  0.00000000000E+00 0. -1.
<scales pt_clust_5="13000.00000" pt_clust_6="13000.00000" pt_clust_7="13000.00000" pt_clust_8="13000.00000" pt_clust_9="228.14863"></scales>
<clustering>
<clus scale="   81.039">  5  6 -1 -1</clus>
<clus scale="   90.227">  7  8 -1 -1</clus>
<clus scale="  104.594">  5  7 -1 -1</clus>
<clus scale="  228.149">  2  9  1 -1</clus>
<clus scale="  228.149">  2  5  1 -1</clus>
</clustering>
</event>
<event>
 9    1  0.8429841E-005  0.8988482E+02  0.7546771E-02  0.1308731E+00
         21   -1    0    0  501  502  0.00000000000E+00  0.00000000000E+00  0.37820153587E+03  0.37820153587E+03  0.00000000000E+00 0. -1.
          1   -1    0    0  502    0 -0.00000000000E+00 -0.00000000000E+00 -0.53840934509E+02  0.53840934509E+02  0.00000000000E+00 0. -1.
        -24    2    1    2    0    0 -0.18413973934E+02 -0.93169195306E+01  0.21133338807E+02  0.85682498762E+02  0.80430051345E+02 0.  0.
         23    2    1    2    0    0 -0.43894610098E+02  0.33477409905E+01  0.22610946337E+03  0.24703653185E+03  0.89239086035E+02 0.  0.
         13    1    3    3    0    0 -0.31923771627E+02 -0.11366216853E+02 -0.22023068003E+02  0.40414522201E+02  0.00000000000E+00 0. -1.
        -14    1    3    3    0    0  0.13509797693E+02  0.20492973229E+01  0.43156406810E+02  0.45267976561E+02  0.00000000000E+00 0.  1.
        -11    1    4    4    0    0 -0.28606731120E+02  0.37129146743E+02  0.18843034029E+03  0.19417237637E+03  0.00000000000E+00 0. -1.
         11    1    4    4    0    0 -0.15287878978E+02 -0.33781405753E+02  0.37679123080E+02  0.52864155477E+02  0.00000000000E+00 0.  1.
          2    1    1    2  501    0  0.62308584031E+02  0.59691785401E+01  0.77117799176E+02  0.99323439762E+02  0.00000000000E+00 0. -1.
<scales pt_clust_5="13000.00000" pt_clust_6="13000.00000" pt_clust_7="13000.00000" pt_clust_8="13000.00000" pt_clust_9="62.59386"></scales>
<clustering>
<clus scale="   62.594">  1  9  2 -1</clus>
<clus scale="   80.430">  5  6 -1 -1</clus>
<clus scale="   81.146">  2  5  1 -1</clus>
<clus scale="   89.239">  7  8 -1 -1</clus>
<clus scale="   62.594">  1  5  2 -1</clus>
</clustering>
</event>
<event>
 9    1  0.8429841E-005  0.1582127E+03  0.7546771E-02  0.1209620E+00
         -2   -1    0    0    0  501 -0.00000000000E+00  0.00000000000E+00  0.91127009226E+03  0.91127009226E+03  0.00000000000E+00 0.  1.
         21   -1    0    0  501  502  0.00000000000E+00 -0.00000000000E+00 -0.10553552243E+03  0.10553552243E+03  0.00000000000E+00 0.  1.
        -24    2    1    2    0    0  0.17003148290E+01  0.68753754317E+02  0.69180632499E+03  0.69972586955E+03  0.79311609520E+02 0.  0.
         23    2    1    2    0    0 -0.52977115923E+02  0.74030805852E+02  0.10023519354E+03  0.16475036319E+03  0.93853359669E+02 0.  0.
         13    1    3    3    0    0  0.23924474414E+02 -0.16767309882E+01  0.81151564257E+02  0.84621322869E+02  0.00000000000E+00 0. -1.
        -14    1    3    3    0    0 -0.22224159585E+02  0.70430485306E+02  0.61065476074E+03  0.61510454668E+03  0.00000000000E+00 0.  1.
        -13    1    4    4    0    0 -0.25469018584E+01  0.51635790882E+02  0.15922839135E+01  0.51723079734E+02  0.00000000000E+00 0.  1.
         13    1    4    4    0    0 -0.50430214064E+02  0.22395014969E+02  0.98642909628E+02  0.11302728346E+03  0.00000000000E+00 0. -1.
         -1    1    1    2    0  502  0.51276801094E+02 -0.14278456017E+03  0.13693051287E+02  0.15232938195E+03  0.00000000000E+00 0.  1.
<scales pt_clust_5="13000.00000" pt_clust_6="13000.00000" pt_clust_7="13000.00000" pt_clust_8="13000.00000" pt_clust_9="127.36879"></scales>
<clustering>
<clus scale="   79.312">  5  6 -1 -1</clus>
<clus scale="   93.853">  7  8 -1 -1</clus>
<clus scale="  104.978">  1  5  2 -1</clus>
<clus scale="  127.369">  2  9  1 -1</clus>
<clus scale="  127.369">  2  5  1 -1</clus>
</clustering>
</event>
<event>
 9    1  0.8429841E-005  0.9649480E+02  0.7546771E-02  0.1292119E+00
          1   -1    0    0  502    0 -0.00000000000E+00  0.00000000000E+00  0.23180868012E+03  0.23180868012E+03  0.00000000000E+00 0. -1.
         21   -1    0    0  501  502  0.00000000000E+00 -0.00000000000E+00 -0.94979992663E+02  0.94979992663E+02  0.00000000000E+00 0.  1.
        -24    2    1    2    0    0 -0.21632796955E+02  0.31324677198E+02  0.16274221190E+03  0.18652271293E+03  0.82803874298E+02 0.  0.
         23    2    1    2    0    0 -0.19433542001E+02 -0.21331085870E+02 -0.13205103127E+02  0.96131845658E+02  0.90742929322E+02 0.  0.
         11    1    3    3    0    0 -0.40141486072E+02  0.45850095475E+02  0.14426188605E+03  0.15660479535E+03  0.00000000000E+00 0. -1.
        -12    1    3    3    0    0  0.18508689117E+02 -0.14525418277E+02  0.18480325851E+02  0.29917917583E+02  0.00000000000E+00 0.  1.
        -13    1    4    4    0    0 -0.44342022235E+02  0.14376546198E+02  0.86612260085E+01  0.47412201515E+02  0.00000000000E+00 0. -1.
         13    1    4    4    0    0  0.24908480235E+02 -0.35707632068E+02 -0.21866329136E+02  0.48719644143E+02  0.00000000000E+00 0.  1.
          2    1    1    2  501    0  0.41066338956E+02 -0.99935913276E+01 -0.12708421321E+02  0.44134114190E+02  0.00000000000E+00 0. -1.
<scales pt_clust_5="13000.00000" pt_clust_6="13000.00000" pt_clust_7="13000.00000" pt_clust_8="13000.00000" pt_clust_9="42.26483"></scales>
<clustering>
<clus scale="   42.265">  2  9  1 -1</clus>
<clus scale="   82.804">  5  6 -1 -1</clus>
<clus scale="   89.070">  1  5  2 -1</clus>
<clus scale="   90.743">  7  8 -1 -1</clus>
<clus scale="   42.265">  2  5  1 -1</clus>
</clustering>
</event>
<event>
 9    1  0.8429841E-005  0.1034072E+03  0.7546771E-02  0.1278747E+00
          1   -1    0    0  502    0 -0.00000000000E+00  0.00000000000E+00  0.42803326750E+03  0.42803326750E+03  0.00000000000E+00 0. -1.
         21   -1    0    0  501  502  0.00000000000E+00 -0.00000000000E+00 -0.62020679333E+02  0.62020679333E+02  0.00000000000E+00 0. -1.
        -24    2    1    2    0    0  0.80765954445E+02  0.11011559096E+02  0.19199896105E+03  0.22317833369E+03  0.79376153562E+02 0.  0.
         23    2    1    2    0    0  0.76992346667E+01 -0.45710807547E+02  0.11954723717E+03  0.15734609583E+03  0.91200306016E+02 0.  0.
         11    1    3    3    0    0  0.47436778323E+02 -0.11444165741E+02  0.17101660433E+03  0.17784233418E+03  0.00000000000E+00 0. -1.
        -12    1    3    3    0    0  0.33329176122E+02  0.22455724837E+02  0.20982356718E+02  0.45335999519E+02  0.00000000000E+00 0.  1.
        -13    1    4    4    0    0  0.44170075498E+02 -0.89023922848E+01  0.81268485107E+02  0.92923704347E+02  0.00000000000E+00 0.  1.
         13    1    4    4    0    0 -0.36470840832E+02 -0.36808415262E+02  0.38278752062E+02  0.64422391484E+02  0.00000000000E+00 0. -1.
          2    1    1    2  501    0 -0.88465189112E+02  0.34699248451E+02  0.54466389944E+02  0.10952951731E+03  0.00000000000E+00 0. -1.
<scales pt_clust_5="13000.00000" pt_clust_6="13000.00000" pt_clust_7="13000.00000" pt_clust_8="13000.00000" pt_clust_9="95.02698"></scales>
<clustering>
<clus scale="   79.376">  5  6 -1 -1</clus>
<clus scale="   91.200">  7  8 -1 -1</clus>
<clus scale="   95.027">  2  9  1 -1</clus>
<clus scale="   93.146">  1  5  2 -1</clus>
<clus scale="   95.027">  2  5  1 -1</clus>
</clustering>
</event>
<event>
 9    1  0.8429841E-005  0.8503080E+02  0.7546771E-02  0.1317272E+00
          1   -1    0    0  502    0 -0.00000000000E+00  0.00000000000E+00  0.38601716048E+03  0.38601716048E+03  0.00000000000E+00 0. -1.
         21   -1    0    0  501  502  0.00000000000E+00 -0.00000000000E+00 -0.20919185224E+03  0.20919185224E+03  0.00000000000E+00 0. -1.
        -24    2    1    2    0    0  0.94170384859E+01  0.98767743742E+00  0.34250144503E+03  0.35221459825E+03  0.81597961064E+02 0.  0.
         23    2    1    2    0    0 -0.89368731053E+01  0.27404328185E+02 -0.16069275584E+02  0.90716545228E+02  0.84500917487E+02 0.  0.
         13    1    3    3    0    0  0.42951267554E+02 -0.13892543645E+02  0.20415757243E+03  0.20908880537E+03  0.00000000000E+00 0. -1.
        -14    1    3    3    0    0 -0.33534229068E+02  0.14880221082E+02  0.13834387261E+03  0.14312579288E+03  0.00000000000E+00 0.  1.
        -13    1    4    4    0    0  0.34518622198E+02  0.29066586739E+02 -0.13719020629E+02  0.47165806154E+02  0.00000000000E+00 0. -1.
         13    1    4    4    0    0 -0.43455495304E+02 -0.16622585539E+01 -0.23502549545E+01  0.43550739074E+02  0.00000000000E+00 0.  1.
          2    1    1    2  501    0 -0.48016538054E+00 -0.28392005622E+02 -0.14960686120E+03  0.15227786924E+03  0.00000000000E+00 0. -1.
<scales pt_clust_5="13000.00000" pt_clust_6="13000.00000" pt_clust_7="13000.00000" pt_clust_8="13000.00000" pt_clust_9="28.39607"></scales>
<clustering>
<clus scale="   28.396">  2  9  1 -1</clus>
<clus scale="   81.598">  5  6 -1 -1</clus>
<clus scale="   82.147">  1  5  2 -1</clus>
<clus scale="   84.501">  7  8 -1 -1</clus>
<clus scale="   28.396">  2  5  1 -1</clus>
</clustering>
</event>
<event>
 9    1  0.9010733E-005  0.2228954E+03  0.7546771E-02  0.1132847E+00
          1   -1    0    0  502    0 -0.00000000000E+00  0.00000000000E+00  0.10943724052E+04  0.10943724052E+04  0.00000000000E+00 0. -1.
         21   -1    0    0  501  502  0.00000000000E+00 -0.00000000000E+00 -0.13633376918E+03  0.13633376918E+03  0.00000000000E+00 0. -1.
        -24    2    1    2    0    0  0.38568594384E+02  0.21433560148E+03  0.52614498148E+03  0.57456128391E+03  0.76582249225E+02 0.  0.
         23    2    1    2    0    0  0.51586059185E+02 -0.14735666490E+03 -0.27403162385E+02  0.18331552850E+03  0.92078995911E+02 0.  0.
         11    1    3    3    0    0  0.49223279209E+02  0.15944430356E+03  0.45110508027E+03  0.48097942846E+03  0.00000000000E+00 0. -1.
        -12    1    3    3    0    0 -0.10654684825E+02  0.54891297924E+02  0.75039901212E+02  0.93581855455E+02  0.00000000000E+00 0.  1.
        -11    1    4    4    0    0 -0.23586188638E+02 -0.15162521613E+02  0.31108686585E+01  0.28211484540E+02  0.00000000000E+00 0.  1.
         11    1    4    4    0    0  0.75172247823E+02 -0.13219414329E+03 -0.30514031043E+02  0.15510404396E+03  0.00000000000E+00 0. -1.
          2    1    1    2  501    0 -0.90154653569E+02 -0.66978936579E+02  0.45929681693E+03  0.47282936198E+03  0.00000000000E+00 0. -1.
<scales pt_clust_5="13000.00000" pt_clust_6="13000.00000" pt_clust_7="13000.00000" pt_clust_8="13000.00000" pt_clust_9="112.31230"></scales>
<clustering>
<clus scale="   76.582">  5  6 -1 -1</clus>
<clus scale="   92.079">  7  8 -1 -1</clus>
<clus scale="  112.312">  2  9  1 -1</clus>
<clus scale="  216.953">  1  5  2 -1</clus>
<clus scale="  112.312">  2  5  1 -1</clus>
</clustering>
</event>
<event>
 9    1  0.8429841E-005  0.9084031E+02  0.7546771E-02  0.1306606E+00
         -2   -1    0    0    0  501 -0.00000000000E+00  0.00000000000E+00  0.57685881094E+02  0.57685881094E+02  0.00000000000E+00 0.  1.
         21   -1    0    0  501  502  0.00000000000E+00 -0.00000000000E+00 -0.45835371734E+03  0.45835371734E+03  0.00000000000E+00 0.  1.
        -24    2    1    2    0    0 -0.79687495908E+01  0.16665303777E+02  0.16858054245E+01  0.81361017418E+02  0.79218305305E+02 0.  0.
         23    2    1    2    0    0 -0.54573084455E+01 -0.41013367732E+02 -0.39354570672E+03  0.40551238533E+03  0.88601313927E+02 0.  0.
         13    1    3    3    0    0  0.96005704093E+01 -0.29928763715E+02  0.27701758957E+01  0.31552745113E+02  0.00000000000E+00 0. -1.
        -14    1    3    3    0    0 -0.17569320000E+02  0.46594067492E+02 -0.10843704712E+01  0.49808272305E+02  0.00000000000E+00 0.  1.
        -11    1    4    4    0    0  0.37449167895E+02 -0.36288925872E+02 -0.25950691984E+03  0.26469448003E+03  0.00000000000E+00 0. -1.
         11    1    4    4    0    0 -0.42906476340E+02 -0.47244418598E+01 -0.13403878688E+03  0.14081790530E+03  0.00000000000E+00 0.  1.
         -1    1    1    2    0  502  0.13426058036E+02  0.24348063954E+02 -0.88079349500E+01  0.29166195686E+02  0.00000000000E+00 0.  1.
<scales pt_clust_5="13000.00000" pt_clust_6="13000.00000" pt_clust_7="13000.00000" pt_clust_8="13000.00000" pt_clust_9="27.80446"></scales>
<clustering>
<clus scale="   27.804">  2  9  1 -1</clus>
<clus scale="   79.218">  5  6 -1 -1</clus>
<clus scale="   81.715">  1  5  2 -1</clus>
<clus scale="   88.601">  7  8 -1 -1</clus>
<clus scale="   27.804">  2  5  1 -1</clus>
</clustering>
</event>
<event>
 9    1  0.8429841E-005  0.7976123E+03  0.7546771E-02  0.9563480E-01
         21   -1    0    0  501  502  0.00000000000E+00  0.00000000000E+00  0.11041211552E+04  0.11041211552E+04  0.00000000000E+00 0. -1.
          1   -1    0    0  502    0 -0.00000000000E+00 -0.00000000000E+00 -0.99693716886E+03  0.99693716886E+03  0.00000000000E+00 0. -1.
        -24    2    1    2    0    0  0.18152240342E+03 -0.53119760794E+02 -0.65108478847E+02  0.21640470523E+03  0.82582022865E+02 0.  0.
         23    2    1    2    0    0  0.47671754166E+03 -0.28458213543E+03 -0.59489483067E+03  0.81886811370E+03  0.91643449019E+02 0.  0.
         11    1    3    3    0    0  0.14793913853E+02  0.16882204273E+02 -0.19931821783E+02  0.30019097718E+02  0.00000000000E+00 0. -1.
        -12    1    3    3    0    0  0.16672848956E+03 -0.70001965067E+02 -0.45176657064E+02  0.18638560751E+03  0.00000000000E+00 0.  1.
        -13    1    4    4    0    0  0.63596071998E+02 -0.43493675129E+02 -0.41883973671E+02  0.87695081962E+02  0.00000000000E+00 0.  1.
         13    1    4    4    0    0  0.41312146966E+03 -0.24108846030E+03 -0.55301085700E+03  0.73117303174E+03  0.00000000000E+00 0. -1.
          2    1    1    2  501    0 -0.65823994507E+03  0.33770189623E+03  0.76718729586E+03  0.10657855051E+04  0.00000000000E+00 0. -1.
<scales pt_clust_5="13000.00000" pt_clust_6="13000.00000" pt_clust_7="13000.00000" pt_clust_8="13000.00000" pt_clust_9="739.81241"></scales>
<clustering>
<clus scale="   82.582">  5  6 -1 -1</clus>
<clus scale="   91.643">  7  8 -1 -1</clus>
<clus scale="  153.227">  5  7 -1 -1</clus>
<clus scale="  739.812">  1  9  2 -1</clus>
<clus scale="  739.812">  1  5  2 -1</clus>
</clustering>
</event>
<event>
 9    1  0.8429841E-005  0.2300812E+03  0.7546771E-02  0.1127808E+00
         21   -1    0    0  501  502  0.00000000000E+00  0.00000000000E+00  0.29389506717E+03  0.29389506717E+03  0.00000000000E+00 0. -1.
          1   -1    0    0  502    0 -0.00000000000E+00 -0.00000000000E+00 -0.82365328956E+03  0.82365328956E+03  0.00000000000E+00 0. -1.
        -24    2    1    2    0    0  0.20129049094E+03  0.55644772248E+02  0.14210553905E+03  0.26462131372E+03  0.78843217994E+02 0.  0.
         23    2    1    2    0    0  0.35789242602E+02 -0.20205547342E+03 -0.18611706089E+03  0.29293351575E+03  0.95200840720E+02 0.  0.
         13    1    3    3    0    0  0.15997155288E+03  0.85510536685E+01  0.10896401825E+03  0.19374513032E+03  0.00000000000E+00 0. -1.
        -14    1    3    3    0    0  0.41318938059E+02  0.47093718580E+02  0.33141520805E+02  0.70876183400E+02  0.00000000000E+00 0.  1.
        -13    1    4    4    0    0  0.61284743583E+01 -0.58350088950E+02 -0.36483625762E+01  0.58784365506E+02  0.00000000000E+00 0.  1.
         13    1    4    4    0    0  0.29660768244E+02 -0.14370538447E+03 -0.18246869831E+03  0.23414915025E+03  0.00000000000E+00 0. -1.
          2    1    1    2  501    0 -0.23707973354E+03  0.14641070117E+03 -0.48574670055E+03  0.55999352726E+03  0.00000000000E+00 0. -1.
<scales pt_clust_5="13000.00000" pt_clust_6="13000.00000" pt_clust_7="13000.00000" pt_clust_8="13000.00000" pt_clust_9="209.46171"></scales>
<clustering>
<clus scale="   78.843">  5  6 -1 -1</clus>
<clus scale="   95.201">  7  8 -1 -1</clus>
<clus scale="  223.227">  2  5  1 -1</clus>
<clus scale="  209.462">  1  9  2 -1</clus>
<clus scale="  209.462">  1  5  2 -1</clus>
</clustering>
</event>
<event>
 9    1  0.8429841E-005  0.1395312E+03  0.7546771E-02  0.1215935E+00
         21   -1    0    0  501  502  0.00000000000E+00  0.00000000000E+00  0.94910624751E+02  0.94910624751E+02  0.00000000000E+00 0. -1.
          1   -1    0    0  502    0 -0.00000000000E+00 -0.00000000000E+00 -0.26174621978E+03  0.26174621978E+03  0.00000000000E+00 0. -1.
         23    2    1    2    0    0  0.11727444233E+03 -0.18490053130E+02 -0.11130557894E+03  0.18608339795E+03  0.90238141596E+02 0.  0.
        -24    2    1    2    0    0 -0.91352215684E+02 -0.50000916321E+01 -0.26506242013E+02  0.12511876370E+03  0.81128884723E+02 0.  0.
         13    1    4    4    0    0 -0.96782686136E+02 -0.25417951743E+02 -0.28087363215E+02  0.10393199978E+03  0.00000000000E+00 0. -1.
        -14    1    4    4    0    0  0.54304704524E+01  0.20417860111E+02  0.15811212021E+01  0.21186763912E+02  0.00000000000E+00 0.  1.
        -13    1    3    3    0    0  0.20968675594E+02  0.10373405807E+02  0.12558640914E+02  0.26552068956E+02  0.00000000000E+00 0.  1.
         13    1    3    3    0    0  0.96305766736E+02 -0.28863458937E+02 -0.12386421986E+03  0.15953132899E+03  0.00000000000E+00 0. -1.
          2    1    1    2  501    0 -0.25922226647E+02  0.23490144762E+02 -0.29023774076E+02  0.45454682893E+02  0.00000000000E+00 0. -1.
<scales pt_clust_5="13000.00000" pt_clust_6="13000.00000" pt_clust_7="13000.00000" pt_clust_8="13000.00000" pt_clust_9="34.98214"></scales>
<clustering>
<clus scale="   34.982">  1  9  2 -1</clus>
<clus scale="   81.129">  5  6 -1 -1</clus>
<clus scale="   90.238">  7  8 -1 -1</clus>
<clus scale="  133.820">  1  5  2 -1</clus>
<clus scale="   34.982">  1  5  2 -1</clus>
</clustering>
</event>
<event>
 9    1  0.8429841E-005  0.4700158E+03  0.7546771E-02  0.1021916E+00
          1   -1    0    0  502    0 -0.00000000000E+00  0.00000000000E+00  0.12715852458E+04  0.12715852458E+04  0.00000000000E+00 0. -1.
         21   -1    0    0  501  502  0.00000000000E+00 -0.00000000000E+00 -0.26360917200E+03  0.26360917200E+03  0.00000000000E+00 0. -1.
        -24    2    1    2    0    0  0.23213098312E+03 -0.24196455980E+03  0.85523996974E+03  0.92227600214E+03  0.82012052482E+02 0.  0.
         23    2    1    2    0    0  0.75278865349E+02  0.11177868172E+02  0.19290164701E+03  0.22642574715E+03  0.90916012040E+02 0.  0.
         11    1    3    3    0    0  0.18421051065E+03 -0.23195311232E+03  0.73844729046E+03  0.79563820883E+03  0.00000000000E+00 0. -1.
        -12    1    3    3    0    0  0.47920472468E+02 -0.10011447481E+02  0.11679267928E+03  0.12663779331E+03  0.00000000000E+00 0.  1.
        -13    1    4    4    0    0  0.15745305951E+02  0.42091960926E+02  0.11586902277E+03  0.12427903392E+03  0.00000000000E+00 0.  1.
         13    1    4    4    0    0  0.59533559397E+02 -0.30914092755E+02  0.77032624244E+02  0.10214671323E+03  0.00000000000E+00 0. -1.
          2    1    1    2  501    0 -0.30740984847E+03  0.23078669163E+03 -0.40165542961E+02  0.38649266851E+03  0.00000000000E+00 0. -1.
<scales pt_clust_5="13000.00000" pt_clust_6="13000.00000" pt_clust_7="13000.00000" pt_clust_8="13000.00000" pt_clust_9="384.39994"></scales>
<clustering>
<clus scale="   82.012">  5  6 -1 -1</clus>
<clus scale="   90.916">  7  8 -1 -1</clus>
<clus scale="  115.320">  5  7 -1 -1</clus>
<clus scale="  384.400">  2  9  1 -1</clus>
<clus scale="  384.400">  2  5  1 -1</clus>
</clustering>
</event>
<event>
 9    1  0.8429841E-005  0.9782761E+02  0.7546771E-02  0.1291830E+00
         21   -1    0    0  501  502  0.00000000000E+00  0.00000000000E+00  0.24545458176E+02  0.24545458176E+02  0.00000000000E+00 0. -1.
          1   -1    0    0  502    0 -0.00000000000E+00 -0.00000000000E+00 -0.48242444347E+03  0.48242444347E+03  0.00000000000E+00 0. -1.
         23    2    1    2    0    0 -0.17890703469E+01 -0.44250496140E+02 -0.28128577892E+03  0.29846233581E+03  0.89424657103E+02 0.  0.
        -24    2    1    2    0    0  0.18897812838E+02  0.29841518546E+02 -0.11106995007E+03  0.13927155770E+03  0.76239028168E+02 0.  0.
         13    1    4    4    0    0  0.38047806081E+02  0.41975137031E+02 -0.97741926102E+02  0.11297358892E+03  0.00000000000E+00 0. -1.
        -14    1    4    4    0    0 -0.19149993242E+02 -0.12133618485E+02 -0.13328023966E+02  0.26297968773E+02  0.00000000000E+00 0.  1.
        -13    1    3    3    0    0  0.40450046637E+02 -0.14976742190E+02 -0.17728665861E+03  0.18245840184E+03  0.00000000000E+00 0. -1.
         13    1    3    3    0    0 -0.42239116984E+02 -0.29273753950E+02 -0.10399912031E+03  0.11600393398E+03  0.00000000000E+00 0.  1.
          2    1    1    2  501    0 -0.17108742492E+02  0.14408977594E+02 -0.65523256308E+02  0.69236008133E+02  0.00000000000E+00 0. -1.
<scales pt_clust_5="13000.00000" pt_clust_6="13000.00000" pt_clust_7="13000.00000" pt_clust_8="13000.00000" pt_clust_9="22.36802"></scales>
<clustering>
<clus scale="   22.368">  1  9  2 -1</clus>
<clus scale="   76.239">  5  6 -1 -1</clus>
<clus scale="   85.941">  1  5  2 -1</clus>
<clus scale="   89.425">  7  8 -1 -1</clus>
<clus scale="   22.368">  1  5  2 -1</clus>
</clustering>
</event>
<event>
 9    1  0.8429841E-005  0.1121619E+03  0.7546771E-02  0.1265713E+00
          1   -1    0    0  502    0 -0.00000000000E+00  0.00000000000E+00  0.10696260960E+04  0.10696260960E+04  0.00000000000E+00 0. -1.
         21   -1    0    0  501  502  0.00000000000E+00 -0.00000000000E+00 -0.27204189570E+02  0.27204189570E+02  0.00000000000E+00 0. -1.
        -24    2    1    2    0    0  0.34123959090E+02 -0.82198850091E+02  0.36087571744E+03  0.37773339858E+03  0.67306325268E+02 0.  0.
         23    2    1    2    0    0 -0.74033917184E+02 -0.16107141684E+02  0.28637202123E+03  0.30992761195E+03  0.91135773438E+02 0.  0.
         11    1    3    3    0    0  0.12137039746E+02 -0.75913096285E+02  0.33259373239E+03  0.34136299850E+03  0.00000000000E+00 0. -1.
        -12    1    3    3    0    0  0.21986919344E+02 -0.62857538063E+01  0.28281985056E+02  0.36370400078E+02  0.00000000000E+00 0.  1.
        -13    1    4    4    0    0 -0.75130083150E+02  0.11648253045E+02  0.26254445787E+03  0.27333094145E+03  0.00000000000E+00 0.  1.
         13    1    4    4    0    0  0.10961659655E+01 -0.27755394729E+02  0.23827563354E+02  0.36596670501E+02  0.00000000000E+00 0. -1.
          2    1    1    2  501    0  0.39909958094E+02  0.98305991775E+02  0.39517416772E+03  0.40916927501E+03  0.00000000000E+00 0. -1.
<scales pt_clust_5="13000.00000" pt_clust_6="13000.00000" pt_clust_7="13000.00000" pt_clust_8="13000.00000" pt_clust_9="106.09846"></scales>
<clustering>
<clus scale="   67.306">  5  6 -1 -1</clus>
<clus scale="   91.136">  7  8 -1 -1</clus>
<clus scale="  106.098">  2  9  1 -1</clus>
<clus scale="   93.833">  1  5  2 -1</clus>
<clus scale="  106.098">  2  5  1 -1</clus>
</clustering>
</event>
<event>
 9    1  0.8429841E-005  0.1085680E+03  0.7546771E-02  0.1269157E+00
          3   -1    0    0  502    0 -0.00000000000E+00  0.00000000000E+00  0.15344100391E+03  0.15344100391E+03  0.00000000000E+00 0. -1.
         21   -1    0    0  501  502  0.00000000000E+00 -0.00000000000E+00 -0.18566077061E+03  0.18566077061E+03  0.00000000000E+00 0.  1.
        -24    2    1    2    0    0 -0.12321789397E+02  0.53728812835E+02  0.69297221028E+02  0.11822234724E+03  0.78331390401E+02 0.  0.
         23    2    1    2    0    0  0.68941394496E+02 -0.40146237597E+02 -0.24939060462E+02  0.12467940142E+03  0.92511405428E+02 0.  0.
         11    1    3    3    0    0  0.86089772582E+01  0.65182637808E+02  0.67602273452E+02  0.94302482136E+02  0.00000000000E+00 0. -1.
        -12    1    3    3    0    0 -0.20930766655E+02 -0.11453824974E+02  0.16949475753E+01  0.23919865103E+02  0.00000000000E+00 0.  1.
        -11    1    4    4    0    0  0.81605847455E+01 -0.30261017732E+02  0.29087112800E+02  0.42759612587E+02  0.00000000000E+00 0. -1.
         11    1    4    4    0    0  0.60780809751E+02 -0.98852198657E+01 -0.54026173261E+02  0.81919788836E+02  0.00000000000E+00 0.  1.
          4    1    1    2  501    0 -0.56619605100E+02 -0.13582575238E+02 -0.76577927263E+02  0.96200025861E+02  0.00000000000E+00 0. -1.
<scales pt_clust_5="13000.00000" pt_clust_6="13000.00000" pt_clust_7="13000.00000" pt_clust_8="13000.00000" pt_clust_9="58.22599"></scales>
<clustering>
<clus scale="   58.226">  2  9  1 -1</clus>
<clus scale="   78.331">  5  6 -1 -1</clus>
<clus scale="   92.511">  7  8 -1 -1</clus>
<clus scale="   96.770">  1  5  2 -1</clus>
<clus scale="   58.226">  2  5  1 -1</clus>
</clustering>
</event>
<event>
 9    1  0.8429841E-005  0.2416719E+03  0.7546771E-02  0.1118684E+00
         21   -1    0    0  501  502  0.00000000000E+00  0.00000000000E+00  0.40206061351E+02  0.40206061351E+02  0.00000000000E+00 0. -1.
          1   -1    0    0  502    0 -0.00000000000E+00 -0.00000000000E+00 -0.92059982750E+03  0.92059982750E+03  0.00000000000E+00 0. -1.
        -24    2    1    2    0    0  0.10370881800E+03 -0.59852557914E+02 -0.35540153579E+03  0.38329534033E+03  0.79165766988E+02 0.  0.
         23    2    1    2    0    0  0.18090889182E+01 -0.36686099298E+02 -0.20769542666E+03  0.22947175376E+03  0.90392216655E+02 0.  0.
         13    1    3    3    0    0  0.10067203036E+03 -0.30597820638E+02 -0.32217327639E+03  0.33891990845E+03  0.00000000000E+00 0. -1.
        -14    1    3    3    0    0  0.30367876417E+01 -0.29254737276E+02 -0.33228259393E+02  0.44375431880E+02  0.00000000000E+00 0.  1.
        -13    1    4    4    0    0 -0.26849398228E+02 -0.56593597237E+02 -0.13635221618E+03  0.15005216523E+03  0.00000000000E+00 0. -1.
         13    1    4    4    0    0  0.28658487146E+02  0.19907497940E+02 -0.71343210484E+02  0.79419588527E+02  0.00000000000E+00 0.  1.
          2    1    1    2  501    0 -0.10551790692E+03  0.96538657212E+02 -0.31729680370E+03  0.34803879476E+03  0.00000000000E+00 0. -1.
<scales pt_clust_5="13000.00000" pt_clust_6="13000.00000" pt_clust_7="13000.00000" pt_clust_8="13000.00000" pt_clust_9="143.01658"></scales>
<clustering>
<clus scale="   79.166">  5  6 -1 -1</clus>
<clus scale="   90.392">  7  8 -1 -1</clus>
<clus scale="   97.464">  5  7 -1 -1</clus>
<clus scale="  143.017">  1  9  2 -1</clus>
<clus scale="  143.017">  1  5  2 -1</clus>
</clustering>
</event>
<event>
 9    1  0.8429841E-005  0.1253342E+03  0.7546771E-02  0.1246896E+00
         -4   -1    0    0    0  501 -0.00000000000E+00  0.00000000000E+00  0.23778897684E+03  0.23778897684E+03  0.00000000000E+00 0.  1.
         21   -1    0    0  501  502  0.00000000000E+00 -0.00000000000E+00 -0.23744607236E+03  0.23744607236E+03  0.00000000000E+00 0.  1.
         23    2    1    2    0    0  0.36582281770E+02  0.22248296702E+01  0.17269664612E+00  0.97561834452E+02  0.90416085466E+02 0.  0.
        -24    2    1    2    0    0  0.62059614569E+02  0.10458803942E+02  0.15994490300E+03  0.18947371557E+03  0.79731640850E+02 0.  0.
         13    1    4    4    0    0  0.60511503684E+02  0.33165562264E+02  0.76693247909E+02  0.10316710170E+03  0.00000000000E+00 0. -1.
        -14    1    4    4    0    0  0.15481108859E+01 -0.22706758322E+02  0.83251655095E+02  0.86306613865E+02  0.00000000000E+00 0.  1.
        -11    1    3    3    0    0 -0.26942805407E+02 -0.15966219800E+02  0.27056061478E+01  0.31434936655E+02  0.00000000000E+00 0. -1.
         11    1    3    3    0    0  0.63525087177E+02  0.18191049470E+02 -0.25329095017E+01  0.66126897797E+02  0.00000000000E+00 0.  1.
         -3    1    1    2    0  502 -0.98641896340E+02 -0.12683633612E+02 -0.15977469517E+03  0.18819949918E+03  0.00000000000E+00 0.  1.
<scales pt_clust_5="13000.00000" pt_clust_6="13000.00000" pt_clust_7="13000.00000" pt_clust_8="13000.00000" pt_clust_9="96.70325"></scales>
<clustering>
<clus scale="   79.732">  5  6 -1 -1</clus>
<clus scale="   90.416">  7  8 -1 -1</clus>
<clus scale="   97.562">  1  7  2 -1</clus>
<clus scale="   96.703">  2  9  1 -1</clus>
<clus scale="   96.703">  2  5  1 -1</clus>
</clustering>
</event>
<event>
 9    1  0.8429841E-005  0.1017908E+03  0.7546771E-02  0.1283372E+00
         -2   -1    0    0    0  501 -0.00000000000E+00  0.00000000000E+00  0.53296241149E+02  0.53296241149E+02  0.00000000000E+00 0.  1.
         21   -1    0    0  501  502  0.00000000000E+00 -0.00000000000E+00 -0.33928496701E+03  0.33928496701E+03  0.00000000000E+00 0.  1.
        -24    2    1    2    0    0 -0.21672275378E+01  0.51546202033E+02 -0.35811061485E+02  0.10186854500E+03  0.80206362075E+02 0.  0.
         23    2    1    2    0    0 -0.17761915294E+02 -0.14955946878E+02 -0.12017159182E+03  0.15419308065E+03  0.93782347259E+02 0.  0.
         11    1    3    3    0    0  0.18744302876E+02  0.13262294800E+02 -0.50795224242E+02  0.55743987653E+02  0.00000000000E+00 0. -1.
        -12    1    3    3    0    0 -0.20911530414E+02  0.38283907233E+02  0.14984162757E+02  0.46124557350E+02  0.00000000000E+00 0.  1.
        -11    1    4    4    0    0 -0.44952205091E+02  0.22545097661E+02 -0.61842783797E+02  0.79708920949E+02  0.00000000000E+00 0.  1.
         11    1    4    4    0    0  0.27190289797E+02 -0.37501044539E+02 -0.58328808020E+02  0.74484159697E+02  0.00000000000E+00 0. -1.
         -1    1    1    2    0  502  0.19929142832E+02 -0.36590255154E+02 -0.13000607256E+03  0.13651958251E+03  0.00000000000E+00 0.  1.
<scales pt_clust_5="13000.00000" pt_clust_6="13000.00000" pt_clust_7="13000.00000" pt_clust_8="13000.00000" pt_clust_9="41.66554"></scales>
<clustering>
<clus scale="   41.666">  2  9  1 -1</clus>
<clus scale="   80.206">  5  6 -1 -1</clus>
<clus scale="   89.439">  1  5  2 -1</clus>
<clus scale="   93.782">  7  8 -1 -1</clus>
<clus scale="   41.666">  2  5  1 -1</clus>
</clustering>
</event>
<event>
 9    1  0.8429841E-005  0.1036504E+03  0.7546771E-02  0.1278465E+00
         21   -1    0    0  501  502  0.00000000000E+00  0.00000000000E+00  0.22570792305E+03  0.22570792305E+03  0.00000000000E+00 0. -1.
          3   -1    0    0  502    0 -0.00000000000E+00 -0.00000000000E+00 -0.20787989985E+03  0.20787989985E+03  0.00000000000E+00 0. -1.
        -24    2    1    2    0    0 -0.28954195107E+02  0.36726008828E+02 -0.90986431696E+02  0.12916532370E+03  0.78854327431E+02 0.  0.
         23    2    1    2    0    0  0.56599525331E+02 -0.52173800570E+02  0.18600250120E+03  0.22099053263E+03  0.91182637182E+02 0.  0.
         11    1    3    3    0    0  0.79672242728E+01  0.41827873683E+02 -0.79463338026E+02  0.90152480663E+02  0.00000000000E+00 0. -1.
        -12    1    3    3    0    0 -0.36921419379E+02 -0.51018648544E+01 -0.11523093670E+02  0.39012843035E+02  0.00000000000E+00 0.  1.
        -11    1    4    4    0    0  0.36695719926E+02 -0.77171209138E+02  0.11634940001E+03  0.14435773018E+03  0.00000000000E+00 0.  1.
         11    1    4    4    0    0  0.19903805405E+02  0.24997408568E+02  0.69653101192E+02  0.76632802444E+02  0.00000000000E+00 0. -1.
          4    1    1    2  501    0 -0.27645330225E+02  0.15447791742E+02 -0.77188046306E+02  0.83431966568E+02  0.00000000000E+00 0. -1.
<scales pt_clust_5="13000.00000" pt_clust_6="13000.00000" pt_clust_7="13000.00000" pt_clust_8="13000.00000" pt_clust_9="31.66859"></scales>
<clustering>
<clus scale="   31.669">  1  9  2 -1</clus>
<clus scale="   78.854">  5  6 -1 -1</clus>
<clus scale="   91.183">  7  8 -1 -1</clus>
<clus scale="   92.990">  2  5  1 -1</clus>
<clus scale="   31.669">  1  5  2 -1</clus>
</clustering>
</event>
<event>
 9    1  0.8429841E-005  0.1547609E+03  0.7546771E-02  0.1195628E+00
          3   -1    0    0  502    0 -0.00000000000E+00  0.00000000000E+00  0.12071898602E+03  0.12071898602E+03  0.00000000000E+00 0. -1.
         21   -1    0    0  501  502  0.00000000000E+00 -0.00000000000E+00 -0.28247991879E+03  0.28247991879E+03  0.00000000000E+00 0. -1.
         23    2    1    2    0    0  0.48077074503E+02  0.10821545897E+03 -0.52919542984E+01  0.14682664932E+03  0.86649117240E+02 0.  0.
        -24    2    1    2    0    0 -0.64705671588E+02 -0.13566589428E+03 -0.12808326072E+03  0.21352618668E+03  0.81216081623E+02 0.  0.
         13    1    4    4    0    0 -0.20896701268E+02 -0.12364096819E+03 -0.95510428373E+02  0.15762614969E+03  0.00000000000E+00 0. -1.
        -14    1    4    4    0    0 -0.43808970321E+02 -0.12024926092E+02 -0.32572832349E+02  0.55900036989E+02  0.00000000000E+00 0.  1.
        -13    1    3    3    0    0 -0.19064193911E+02  0.60282247863E+02  0.62260308278E+01  0.63530751268E+02  0.00000000000E+00 0.  1.
         13    1    3    3    0    0  0.67141268415E+02  0.47933211103E+02 -0.11517985126E+02  0.83295898052E+02  0.00000000000E+00 0. -1.
          4    1    1    2  501    0  0.16628597085E+02  0.27450435318E+02 -0.28385717749E+02  0.42846068808E+02  0.00000000000E+00 0. -1.
<scales pt_clust_5="13000.00000" pt_clust_6="13000.00000" pt_clust_7="13000.00000" pt_clust_8="13000.00000" pt_clust_9="32.09418"></scales>
<clustering>
<clus scale="   32.094">  2  9  1 -1</clus>
<clus scale="   81.216">  5  6 -1 -1</clus>
<clus scale="   86.649">  7  8 -1 -1</clus>
<clus scale="  151.786">  2  5  1 -1</clus>
<clus scale="   32.094">  2  5  1 -1</clus>
</clustering>
</event>
<event>
 9    1  0.8429841E-005  0.1612952E+03  0.7546771E-02  0.1191755E+00
         21   -1    0    0  501  502  0.00000000000E+00  0.00000000000E+00  0.11593752028E+03  0.11593752028E+03  0.00000000000E+00 0.  1.
          1   -1    0    0  502    0 -0.00000000000E+00 -0.00000000000E+00 -0.70603745909E+03  0.70603745909E+03  0.00000000000E+00 0. -1.
         23    2    1    2    0    0 -0.86141646753E+02  0.87704811567E+02 -0.30766513069E+03  0.34053867934E+03  0.78716213106E+02 0.  0.
        -24    2    1    2    0    0 -0.63166591293E+02 -0.13325196568E+03 -0.10635172891E+02  0.16799964788E+03  0.79778883014E+02 0.  0.
         13    1    4    4    0    0  0.72766759825E+01 -0.36413796171E+02 -0.28652052700E+02  0.46902608551E+02  0.00000000000E+00 0. -1.
        -14    1    4    4    0    0 -0.70443267276E+02 -0.96838169505E+02  0.18016879809E+02  0.12109703933E+03  0.00000000000E+00 0.  1.
        -11    1    3    3    0    0 -0.72158857242E+02  0.18148273107E+02 -0.14177571198E+03  0.16011437475E+03  0.00000000000E+00 0. -1.
         11    1    3    3    0    0 -0.13982789511E+02  0.69556538460E+02 -0.16588941871E+03  0.18042430458E+03  0.00000000000E+00 0.  1.
          2    1    1    2  501    0  0.14930823805E+03  0.45547154109E+02 -0.27179963523E+03  0.31343665214E+03  0.00000000000E+00 0. -1.
<scales pt_clust_5="13000.00000" pt_clust_6="13000.00000" pt_clust_7="13000.00000" pt_clust_8="13000.00000" pt_clust_9="140.18377"></scales>
<clustering>
<clus scale="   78.716">  7  8 -1 -1</clus>
<clus scale="   79.779">  5  6 -1 -1</clus>
<clus scale="  145.975">  2  7  1 -1</clus>
<clus scale="  140.184">  1  9  2 -1</clus>
<clus scale="  140.184">  1  5  2 -1</clus>
</clustering>
</event>
<event>
 9    1  0.8429841E-005  0.9831784E+02  0.7546771E-02  0.1289628E+00
         21   -1    0    0  501  502  0.00000000000E+00  0.00000000000E+00  0.15395616439E+03  0.15395616439E+03  0.00000000000E+00 0. -1.
          1   -1    0    0  502    0 -0.00000000000E+00 -0.00000000000E+00 -0.17155165649E+03  0.17155165649E+03  0.00000000000E+00 0. -1.
         23    2    1    2    0    0  0.10168047752E+02 -0.22717611730E+01 -0.49157709442E+02  0.10448946708E+03  0.91613417357E+02 0.  0.
        -24    2    1    2    0    0 -0.55203100004E+02 -0.52234586849E+02 -0.42422306644E+02  0.11868161701E+03  0.80683578268E+02 0.  0.
         13    1    4    4    0    0 -0.56294169529E+02 -0.41193887205E+02 -0.63840892078E+02  0.94560189125E+02  0.00000000000E+00 0. -1.
        -14    1    4    4    0    0  0.10910695248E+01 -0.11040699644E+02  0.21418585434E+02  0.24121427887E+02  0.00000000000E+00 0.  1.
        -13    1    3    3    0    0  0.31765735628E+02 -0.38028644799E+02 -0.33808205942E+02  0.59985286314E+02  0.00000000000E+00 0. -1.
         13    1    3    3    0    0 -0.21597687875E+02  0.35756883626E+02 -0.15349503500E+02  0.44504180769E+02  0.00000000000E+00 0.  1.
          2    1    1    2  501    0  0.45035052252E+02  0.54506348022E+02  0.73984523991E+02  0.10233673679E+03  0.00000000000E+00 0. -1.
<scales pt_clust_5="13000.00000" pt_clust_6="13000.00000" pt_clust_7="13000.00000" pt_clust_8="13000.00000" pt_clust_9="70.70430"></scales>
<clustering>
<clus scale="   70.704">  1  9  2 -1</clus>
<clus scale="   80.684">  5  6 -1 -1</clus>
<clus scale="   88.223">  1  5  2 -1</clus>
<clus scale="   91.613">  7  8 -1 -1</clus>
<clus scale="   70.704">  1  5  2 -1</clus>
</clustering>
</event>
<event>
 9    1  0.8429841E-005  0.1410547E+03  0.7546771E-02  0.1215490E+00
          1   -1    0    0  502    0 -0.00000000000E+00  0.00000000000E+00  0.22908258001E+03  0.22908258001E+03  0.00000000000E+00 0. -1.
         21   -1    0    0  501  502  0.00000000000E+00 -0.00000000000E+00 -0.13508233213E+03  0.13508233213E+03  0.00000000000E+00 0. -1.
         23    2    1    2    0    0  0.47899189814E+02 -0.10775573668E+03  0.13712183805E+03  0.20272997845E+03  0.91604664303E+02 0.  0.
        -24    2    1    2    0    0 -0.13745020154E+02  0.85048309332E+02 -0.26082400869E+02  0.11702245195E+03  0.74778487050E+02 0.  0.
         11    1    4    4    0    0 -0.22312099326E+02  0.39525852370E+02  0.21842223563E+02  0.50370681076E+02  0.00000000000E+00 0. -1.
        -12    1    4    4    0    0  0.85670791713E+01  0.45522456962E+02 -0.47924624431E+02  0.66651770871E+02  0.00000000000E+00 0.  1.
        -11    1    3    3    0    0  0.30449379431E+02 -0.12245031548E+03  0.12077502048E+03  0.17466496512E+03  0.00000000000E+00 0. -1.
         11    1    3    3    0    0  0.17449810383E+02  0.14694578805E+02  0.16346817576E+02  0.28065013336E+02  0.00000000000E+00 0.  1.
          2    1    1    2  501    0 -0.34154169660E+02  0.22707427345E+02 -0.17039189310E+02  0.44412481738E+02  0.00000000000E+00 0. -1.
<scales pt_clust_5="13000.00000" pt_clust_6="13000.00000" pt_clust_7="13000.00000" pt_clust_8="13000.00000" pt_clust_9="41.01383"></scales>
<clustering>
<clus scale="   41.014">  2  9  1 -1</clus>
<clus scale="   74.778">  5  6 -1 -1</clus>
<clus scale="   91.605">  7  8 -1 -1</clus>
<clus scale="  130.755">  2  5  1 -1</clus>
<clus scale="   41.014">  2  5  1 -1</clus>
</clustering>
</event>
<event>
 9    1  0.8429841E-005  0.1318839E+03  0.7546771E-02  0.1226768E+00
          1   -1    0    0  502    0 -0.00000000000E+00  0.00000000000E+00  0.25537233647E+03  0.25537233647E+03  0.00000000000E+00 0. -1.
         21   -1    0    0  501  502  0.00000000000E+00 -0.00000000000E+00 -0.11184238197E+03  0.11184238197E+03  0.00000000000E+00 0.  1.
         23    2    1    2    0    0  0.34849053517E+02  0.88551060323E+02  0.70188688929E+02  0.14890313196E+03  0.90498308479E+02 0.  0.
        -24    2    1    2    0    0 -0.92596162701E+02 -0.57715052405E+02  0.30093758974E+02  0.13985182080E+03  0.82145120555E+02 0.  0.
         11    1    4    4    0    0 -0.60138954193E+02 -0.28275498006E+02  0.57744409132E+02  0.88037573711E+02  0.00000000000E+00 0. -1.
        -12    1    4    4    0    0 -0.32457208508E+02 -0.29439554399E+02 -0.27650650158E+02  0.51814247090E+02  0.00000000000E+00 0.  1.
        -13    1    3    3    0    0  0.54950422127E+02  0.76059435046E+02  0.79977292401E+02  0.12329214838E+03  0.00000000000E+00 0. -1.
         13    1    3    3    0    0 -0.20101368610E+02  0.12491625277E+02 -0.97886034716E+01  0.25610983580E+02  0.00000000000E+00 0.  1.
          2    1    1    2  501    0  0.57747109183E+02 -0.30836007918E+02  0.43247506601E+02  0.78459765680E+02  0.00000000000E+00 0. -1.
<scales pt_clust_5="13000.00000" pt_clust_6="13000.00000" pt_clust_7="13000.00000" pt_clust_8="13000.00000" pt_clust_9="65.46444"></scales>
<clustering>
<clus scale="   65.464">  2  9  1 -1</clus>
<clus scale="   82.145">  5  6 -1 -1</clus>
<clus scale="   90.498">  7  8 -1 -1</clus>
<clus scale="  126.298">  2  5  1 -1</clus>
<clus scale="   65.464">  2  5  1 -1</clus>
</clustering>
</event>
<event>
 9    1  0.8429841E-005  0.9991682E+02  0.7546771E-02  0.1289166E+00
         -4   -1    0    0    0  501 -0.00000000000E+00  0.00000000000E+00  0.59056804866E+03  0.59056804866E+03  0.00000000000E+00 0.  1.
         21   -1    0    0  501  502  0.00000000000E+00 -0.00000000000E+00 -0.30558092176E+02  0.30558092176E+02  0.00000000000E+00 0.  1.
        -24    2    1    2    0    0  0.28458777002E+02  0.15295344736E+02  0.42014378928E+03  0.42906822199E+03  0.80838641041E+02 0.  0.
         23    2    1    2    0    0  0.32585140357E+01 -0.27142371166E+01  0.11235563493E+03  0.14822756173E+03  0.96590042748E+02 0.  0.
         11    1    3    3    0    0 -0.57926542016E+00  0.42525441569E+02  0.14664676495E+03  0.15268930021E+03  0.00000000000E+00 0. -1.
        -12    1    3    3    0    0  0.29038042422E+02 -0.27230096833E+02  0.27349702434E+03  0.27637892177E+03  0.00000000000E+00 0.  1.
        -11    1    4    4    0    0  0.42653520381E+02 -0.25061701256E+02  0.43876168493E+02  0.66125107428E+02  0.00000000000E+00 0.  1.
         11    1    4    4    0    0 -0.39395006345E+02  0.22347464139E+02  0.68479466436E+02  0.82102454298E+02  0.00000000000E+00 0. -1.
         -3    1    1    2    0  502 -0.31717291037E+02 -0.12581107620E+02  0.27510532270E+02  0.43830357122E+02  0.00000000000E+00 0.  1.
<scales pt_clust_5="13000.00000" pt_clust_6="13000.00000" pt_clust_7="13000.00000" pt_clust_8="13000.00000" pt_clust_9="34.12141"></scales>
<clustering>
<clus scale="   34.121">  2  9  1 -1</clus>
<clus scale="   80.839">  5  6 -1 -1</clus>
<clus scale="   84.786">  1  5  2 -1</clus>
<clus scale="   96.590">  7  8 -1 -1</clus>
<clus scale="   34.121">  2  5  1 -1</clus>
</clustering>
</event>
<event>
 9    1  0.8429841E-005  0.1415152E+03  0.7546771E-02  0.1230148E+00
         -4   -1    0    0    0  501 -0.00000000000E+00  0.00000000000E+00  0.75461815913E+02  0.75461815913E+02  0.00000000000E+00 0.  1.
         21   -1    0    0  501  502  0.00000000000E+00 -0.00000000000E+00 -0.44676643698E+03  0.44676643698E+03  0.00000000000E+00 0.  1.
        -24    2    1    2    0    0 -0.56311509041E+02 -0.35364596185E+02 -0.45172568602E+02  0.10548000626E+03  0.68292240069E+02 0.  0.
         23    2    1    2    0    0 -0.74362131702E+02  0.10809154162E+02 -0.10030733165E+03  0.15468837819E+03  0.90666251259E+02 0.  0.
         11    1    3    3    0    0 -0.40585301478E+01 -0.41826721336E+02 -0.14004977560E+02  0.44295436347E+02  0.00000000000E+00 0. -1.
        -12    1    3    3    0    0 -0.52252978893E+02  0.64621251504E+01 -0.31167591042E+02  0.61184569918E+02  0.00000000000E+00 0.  1.
        -11    1    4    4    0    0 -0.16677876418E+02  0.37360739513E+02 -0.65277547171E+01  0.41431726978E+02  0.00000000000E+00 0. -1.
         11    1    4    4    0    0 -0.57684255284E+02 -0.26551585351E+02 -0.93779576938E+02  0.11325665121E+03  0.00000000000E+00 0.  1.
         -3    1    1    2    0  502  0.13067364074E+03  0.24555442023E+02 -0.22582472081E+03  0.26205986844E+03  0.00000000000E+00 0.  1.
<scales pt_clust_5="13000.00000" pt_clust_6="13000.00000" pt_clust_7="13000.00000" pt_clust_8="13000.00000" pt_clust_9="108.65629"></scales>
<clustering>
<clus scale="   68.292">  5  6 -1 -1</clus>
<clus scale="   90.666">  7  8 -1 -1</clus>
<clus scale="   95.318">  1  5  2 -1</clus>
<clus scale="  108.656">  2  9  1 -1</clus>
<clus scale="  108.656">  2  5  1 -1</clus>
</clustering>
</event>
<event>
 9    1  0.8429841E-005  0.1249310E+03  0.7546771E-02  0.1237366E+00
         21   -1    0    0  501  502  0.00000000000E+00  0.00000000000E+00  0.14724942484E+03  0.14724942484E+03  0.00000000000E+00 0. -1.
          1   -1    0    0  502    0 -0.00000000000E+00 -0.00000000000E+00 -0.36406238130E+03  0.36406238130E+03  0.00000000000E+00 0. -1.
         23    2    1    2    0    0  0.62253765984E+02 -0.32851630552E+02 -0.20254097575E+03  0.23278566015E+03  0.90617634625E+02 0.  0.
        -24    2    1    2    0    0 -0.12127038125E+03  0.55322810655E+02 -0.89185970167E+02  0.18054645100E+03  0.82920232427E+02 0.  0.
         13    1    4    4    0    0 -0.39225711201E+02  0.42214149074E+01 -0.72386918440E+02  0.82439934038E+02  0.00000000000E+00 0. -1.
        -14    1    4    4    0    0 -0.82044670050E+02  0.51101395747E+02 -0.16799051727E+02  0.98106516959E+02  0.00000000000E+00 0.  1.
        -13    1    3    3    0    0  0.15806218143E+02 -0.54152907168E+02 -0.14629111149E+03  0.15679114512E+03  0.00000000000E+00 0. -1.
         13    1    3    3    0    0  0.46447547840E+02  0.21301276616E+02 -0.56249864267E+02  0.75994515038E+02  0.00000000000E+00 0.  1.
          2    1    1    2  501    0  0.59016615267E+02 -0.22471180102E+02  0.74913989458E+02  0.97979694985E+02  0.00000000000E+00 0. -1.
<scales pt_clust_5="13000.00000" pt_clust_6="13000.00000" pt_clust_7="13000.00000" pt_clust_8="13000.00000" pt_clust_9="63.14994"></scales>
<clustering>
<clus scale="   63.150">  1  9  2 -1</clus>
<clus scale="   82.920">  5  6 -1 -1</clus>
<clus scale="   90.618">  7  8 -1 -1</clus>
<clus scale="  119.465">  1  5  2 -1</clus>
<clus scale="   63.150">  1  5  2 -1</clus>
</clustering>
</event>
<event>
 9    1  0.8429841E-005  0.1228575E+03  0.7546771E-02  0.1244791E+00
         -2   -1    0    0    0  501 -0.00000000000E+00  0.00000000000E+00  0.34600995767E+02  0.34600995767E+02  0.00000000000E+00 0.  1.
         21   -1    0    0  501  502  0.00000000000E+00 -0.00000000000E+00 -0.89841158458E+03  0.89841158458E+03  0.00000000000E+00 0.  1.
         23    2    1    2    0    0  0.56045836782E+02 -0.37276078109E+02 -0.34936038352E+03  0.36730769205E+03  0.91277714916E+02 0.  0.
        -24    2    1    2    0    0  0.38639339464E+01  0.11617336241E+03 -0.31517040508E+03  0.34315961005E+03  0.70106730156E+02 0.  0.
         13    1    4    4    0    0  0.93289719189E+01  0.62278615375E+02 -0.79900151725E+02  0.10173342566E+03  0.00000000000E+00 0. -1.
        -14    1    4    4    0    0 -0.54650379724E+01  0.53894747038E+02 -0.23527025335E+03  0.24142618440E+03  0.00000000000E+00 0.  1.
        -11    1    3    3    0    0 -0.32119669681E+01 -0.44867905811E+02 -0.83795751490E+02  0.95106117950E+02  0.00000000000E+00 0. -1.
         11    1    3    3    0    0  0.59257803750E+02  0.75918277018E+01 -0.26556463203E+03  0.27220157410E+03  0.00000000000E+00 0.  1.
         -1    1    1    2    0  502 -0.59909770728E+02 -0.78897284304E+02 -0.19927980021E+03  0.22254527825E+03  0.00000000000E+00 0.  1.
<scales pt_clust_5="13000.00000" pt_clust_6="13000.00000" pt_clust_7="13000.00000" pt_clust_8="13000.00000" pt_clust_9="99.06549"></scales>
<clustering>
<clus scale="   70.107">  5  6 -1 -1</clus>
<clus scale="   91.278">  7  8 -1 -1</clus>
<clus scale="   99.065">  2  9  1 -1</clus>
<clus scale="  108.062">  2  5  1 -1</clus>
<clus scale="   99.065">  2  5  1 -1</clus>
</clustering>
</event>
<event>
 9    1  0.8429841E-005  0.9230732E+02  0.7546771E-02  0.1303926E+00
         -2   -1    0    0    0  501 -0.00000000000E+00  0.00000000000E+00  0.32650416677E+03  0.32650416677E+03  0.00000000000E+00 0.  1.
         21   -1    0    0  501  502  0.00000000000E+00 -0.00000000000E+00 -0.86166522418E+02  0.86166522418E+02  0.00000000000E+00 0. -1.
         23    2    1    2    0    0  0.12003901223E+02 -0.10149243105E+02  0.36119490982E+01  0.92330478408E+02  0.90910782015E+02 0.  0.
        -24    2    1    2    0    0 -0.18521016134E+02 -0.17729703218E+02  0.23704760907E+01  0.84242609809E+02  0.80211144710E+02 0.  0.
         11    1    4    4    0    0 -0.11215486102E+02  0.29934139188E+02 -0.11653620737E+02  0.34024207467E+02  0.00000000000E+00 0. -1.
        -12    1    4    4    0    0 -0.73055300321E+01 -0.47663842406E+02  0.14024096828E+02  0.50218402343E+02  0.00000000000E+00 0.  1.
        -11    1    3    3    0    0  0.24846513807E+02 -0.27990439753E+02 -0.32820662331E+02  0.49779612713E+02  0.00000000000E+00 0. -1.
         11    1    3    3    0    0 -0.12842612584E+02  0.17841196648E+02  0.36432611429E+02  0.42550865695E+02  0.00000000000E+00 0.  1.
         -1    1    1    2    0  502  0.65171149114E+01  0.27878946323E+02  0.23435521917E+03  0.23609760097E+03  0.00000000000E+00 0.  1.
<scales pt_clust_5="13000.00000" pt_clust_6="13000.00000" pt_clust_7="13000.00000" pt_clust_8="13000.00000" pt_clust_9="28.63057"></scales>
<clustering>
<clus scale="   28.631">  2  9  1 -1</clus>
<clus scale="   80.211">  5  6 -1 -1</clus>
<clus scale="   81.791">  2  5  1 -1</clus>
<clus scale="   90.911">  7  8 -1 -1</clus>
<clus scale="   28.631">  2  5  1 -1</clus>
</clustering>
</event>
<event>
 9    1  0.8429841E-005  0.1839649E+03  0.7546771E-02  0.1165358E+00
          3   -1    0    0  502    0 -0.00000000000E+00  0.00000000000E+00  0.68645739179E+02  0.68645739179E+02  0.00000000000E+00 0. -1.
         21   -1    0    0  501  502  0.00000000000E+00 -0.00000000000E+00 -0.84579838004E+03  0.84579838004E+03  0.00000000000E+00 0.  1.
        -24    2    1    2    0    0 -0.15373390279E+02  0.12158651329E+03 -0.27146311535E+03  0.30829308697E+03  0.79578785701E+02 0.  0.
         23    2    1    2    0    0 -0.41190723793E+02 -0.20779203095E+03 -0.33595260698E+03  0.40755216068E+03  0.91435254094E+02 0.  0.
         11    1    3    3    0    0 -0.45715920240E+02  0.93834248250E+02 -0.18138657433E+03  0.20927470190E+03  0.00000000000E+00 0. -1.
        -12    1    3    3    0    0  0.30342529961E+02  0.27752265043E+02 -0.90076541028E+02  0.99018385076E+02  0.00000000000E+00 0.  1.
        -11    1    4    4    0    0 -0.38322081813E+02 -0.44157058101E+02 -0.45194873956E+02  0.73898608691E+02  0.00000000000E+00 0. -1.
         11    1    4    4    0    0 -0.28686419800E+01 -0.16363497284E+03 -0.29075773302E+03  0.33365355199E+03  0.00000000000E+00 0.  1.
          4    1    1    2  501    0  0.56564114072E+02  0.86205517653E+02 -0.16973691853E+03  0.19859887156E+03  0.00000000000E+00 0. -1.
<scales pt_clust_5="13000.00000" pt_clust_6="13000.00000" pt_clust_7="13000.00000" pt_clust_8="13000.00000" pt_clust_9="103.10621"></scales>
<clustering>
<clus scale="   79.579">  5  6 -1 -1</clus>
<clus scale="   91.435">  7  8 -1 -1</clus>
<clus scale="  103.106">  2  9  1 -1</clus>
<clus scale="  178.369">  1  5  2 -1</clus>
<clus scale="  103.106">  2  5  1 -1</clus>
</clustering>
</event>
<event>
 9    1  0.8429841E-005  0.1461325E+03  0.7546771E-02  0.1223557E+00
          1   -1    0    0  502    0 -0.00000000000E+00  0.00000000000E+00  0.11616941599E+03  0.11616941599E+03  0.00000000000E+00 0. -1.
         21   -1    0    0  501  502  0.00000000000E+00 -0.00000000000E+00 -0.44323458515E+03  0.44323458515E+03  0.00000000000E+00 0. -1.
        -24    2    1    2    0    0 -0.19443049565E+02 -0.56098364219E+02  0.33670979145E+02  0.10481199518E+03  0.79540938218E+02 0.  0.
         23    2    1    2    0    0  0.12051310540E+03 -0.88788245133E+01 -0.24997394294E+03  0.29117396111E+03  0.87710098523E+02 0.  0.
         11    1    3    3    0    0  0.16669450159E+02 -0.31695389129E+02  0.47134131972E+02  0.59195393886E+02  0.00000000000E+00 0. -1.
        -12    1    3    3    0    0 -0.36112499725E+02 -0.24402975090E+02 -0.13463152826E+02  0.45616601294E+02  0.00000000000E+00 0.  1.
        -11    1    4    4    0    0  0.15816882503E+02  0.19737323286E+02 -0.89332887037E+01  0.26824230645E+02  0.00000000000E+00 0.  1.
         11    1    4    4    0    0  0.10469622290E+03 -0.28616147799E+02 -0.24104065423E+03  0.26434973047E+03  0.00000000000E+00 0. -1.
          2    1    1    2  501    0 -0.10107005584E+03  0.64977188732E+02 -0.11076220538E+03  0.16341804485E+03  0.00000000000E+00 0. -1.
<scales pt_clust_5="13000.00000" pt_clust_6="13000.00000" pt_clust_7="13000.00000" pt_clust_8="13000.00000" pt_clust_9="116.88314"></scales>
<clustering>
<clus scale="   79.541">  5  6 -1 -1</clus>
<clus scale="   87.710">  7  8 -1 -1</clus>
<clus scale="   99.256">  1  5  2 -1</clus>
<clus scale="  116.883">  2  9  1 -1</clus>
<clus scale="  116.883">  2  5  1 -1</clus>
</clustering>
</event>
<event>
 9    1  0.8429841E-005  0.1928726E+03  0.7546771E-02  0.1192506E+00
         21   -1    0    0  501  502  0.00000000000E+00  0.00000000000E+00  0.24861665663E+03  0.24861665663E+03  0.00000000000E+00 0. -1.
          1   -1    0    0  502    0 -0.00000000000E+00 -0.00000000000E+00 -0.31599346248E+03  0.31599346248E+03  0.00000000000E+00 0. -1.
        -24    2    1    2    0    0  0.17885828227E+02  0.12763977653E+02 -0.10129620634E+03  0.13157833519E+03  0.81050076471E+02 0.  0.
         23    2    1    2    0    0  0.54979764190E+02 -0.16556283930E+03 -0.96737971126E+02  0.21919017095E+03  0.90841993358E+02 0.  0.
         13    1    3    3    0    0  0.27133619582E+02  0.25134947709E+01 -0.11126277447E+03  0.11455110628E+03  0.00000000000E+00 0. -1.
        -14    1    3    3    0    0 -0.92477913540E+01  0.10250482882E+02  0.99665681260E+01  0.17027228913E+02  0.00000000000E+00 0.  1.
        -13    1    4    4    0    0 -0.11964414294E+02 -0.16220652015E+02 -0.42056181458E+02  0.46636671837E+02  0.00000000000E+00 0.  1.
         13    1    4    4    0    0  0.66944178484E+02 -0.14934218728E+03 -0.54681789668E+02  0.17255349911E+03  0.00000000000E+00 0. -1.
          2    1    1    2  501    0 -0.72865592418E+02  0.15279886164E+03  0.13065737162E+03  0.21384161297E+03  0.00000000000E+00 0. -1.
<scales pt_clust_5="13000.00000" pt_clust_6="13000.00000" pt_clust_7="13000.00000" pt_clust_8="13000.00000" pt_clust_9="170.13990"></scales>
<clustering>
<clus scale="   81.050">  5  6 -1 -1</clus>
<clus scale="   83.976">  2  5  1 -1</clus>
<clus scale="   90.842">  7  8 -1 -1</clus>
<clus scale="  170.140">  1  9  2 -1</clus>
<clus scale="  170.140">  1  5  2 -1</clus>
</clustering>
</event>
<event>
 9    1  0.8429841E-005  0.9533475E+02  0.7546771E-02  0.1299056E+00
         -4   -1    0    0    0  501 -0.00000000000E+00  0.00000000000E+00  0.31755433254E+03  0.31755433254E+03  0.00000000000E+00 0.  1.
         21   -1    0    0  501  502  0.00000000000E+00 -0.00000000000E+00 -0.11622278566E+03  0.11622278566E+03  0.00000000000E+00 0.  1.
        -24    2    1    2    0    0  0.12785737460E+02  0.86468216469E+01  0.48260149157E+02  0.93019635743E+02  0.78008768931E+02 0.  0.
         23    2    1    2    0    0 -0.49005529231E+02 -0.18968714326E+02 -0.61449787341E+02  0.12295538507E+03  0.92631508328E+02 0.  0.
         13    1    3    3    0    0 -0.12059596358E+02 -0.24260735917E+02 -0.29721731369E+01  0.27255292783E+02  0.00000000000E+00 0. -1.
        -14    1    3    3    0    0  0.24845333818E+02  0.32907557564E+02  0.51232322294E+02  0.65764342960E+02  0.00000000000E+00 0.  1.
        -11    1    4    4    0    0 -0.45933414739E+01  0.35739033879E+02 -0.20698022490E+02  0.41554608210E+02  0.00000000000E+00 0. -1.
         11    1    4    4    0    0 -0.44412187757E+02 -0.54707748205E+02 -0.40751764852E+02  0.81400776861E+02  0.00000000000E+00 0.  1.
         -3    1    1    2    0  502  0.36219791771E+02  0.10321892679E+02  0.21452118507E+03  0.21780209739E+03  0.00000000000E+00 0.  1.
<scales pt_clust_5="13000.00000" pt_clust_6="13000.00000" pt_clust_7="13000.00000" pt_clust_8="13000.00000" pt_clust_9="37.66187"></scales>
<clustering>
<clus scale="   37.662">  2  9  1 -1</clus>
<clus scale="   78.009">  5  6 -1 -1</clus>
<clus scale="   81.200">  1  5  2 -1</clus>
<clus scale="   92.632">  7  8 -1 -1</clus>
<clus scale="   37.662">  2  5  1 -1</clus>
</clustering>
</event>
<event>
 9    1  0.8429841E-005  0.1693602E+03  0.7546771E-02  0.1202363E+00
         -2   -1    0    0    0  501 -0.00000000000E+00  0.00000000000E+00  0.42672868434E+03  0.42672868434E+03  0.00000000000E+00 0.  1.
         21   -1    0    0  501  502  0.00000000000E+00 -0.00000000000E+00 -0.12588148095E+03  0.12588148095E+03  0.00000000000E+00 0.  1.
         23    2    1    2    0    0 -0.24319870495E+02  0.26435119773E+02  0.17134265867E+03  0.19840632602E+03  0.93362154357E+02 0.  0.
        -24    2    1    2    0    0  0.69103033748E+00  0.13093064695E+03  0.11944077060E+03  0.19475608552E+03  0.80749757473E+02 0.  0.
         13    1    4    4    0    0  0.33869776102E+02  0.50704812466E+02  0.23451980231E+02  0.65330965990E+02  0.00000000000E+00 0. -1.
        -14    1    4    4    0    0 -0.33178745764E+02  0.80225834489E+02  0.95988790368E+02  0.12942511953E+03  0.00000000000E+00 0.  1.
        -13    1    3    3    0    0  0.29609079657E+02 -0.38269677241E+01  0.98134399834E+02  0.10257535626E+03  0.00000000000E+00 0. -1.
         13    1    3    3    0    0 -0.53928950153E+02  0.30262087497E+02  0.73208258840E+02  0.95830969768E+02  0.00000000000E+00 0.  1.
         -1    1    1    2    0  502  0.23628840158E+02 -0.15736576673E+03  0.10063774123E+02  0.15944775375E+03  0.00000000000E+00 0.  1.
<scales pt_clust_5="13000.00000" pt_clust_6="13000.00000" pt_clust_7="13000.00000" pt_clust_8="13000.00000" pt_clust_9="148.87021"></scales>
<clustering>
<clus scale="   80.750">  5  6 -1 -1</clus>
<clus scale="   93.362">  7  8 -1 -1</clus>
<clus scale="  100.034">  1  7  2 -1</clus>
<clus scale="  148.870">  2  9  1 -1</clus>
<clus scale="  148.870">  2  5  1 -1</clus>
</clustering>
</event>
<event>
 9    1  0.8429841E-005  0.1575593E+03  0.7546771E-02  0.1193201E+00
         21   -1    0    0  501  502  0.00000000000E+00  0.00000000000E+00  0.99145221874E+02  0.99145221874E+02  0.00000000000E+00 0. -1.
          3   -1    0    0  502    0 -0.00000000000E+00 -0.00000000000E+00 -0.92103919783E+03  0.92103919783E+03  0.00000000000E+00 0. -1.
        -24    2    1    2    0    0  0.79562535373E+02 -0.11698485399E+03 -0.44500588681E+03  0.47406001789E+03  0.81774128974E+02 0.  0.
         23    2    1    2    0    0 -0.13453046127E+03  0.21855256076E+02 -0.40117124337E+03  0.43360424869E+03  0.92185577778E+02 0.  0.
         13    1    3    3    0    0  0.67309426681E+02 -0.12943303080E+03 -0.40107368538E+03  0.42678281302E+03  0.00000000000E+00 0. -1.
        -14    1    3    3    0    0  0.12253108692E+02  0.12448176805E+02 -0.43932201433E+02  0.47277204878E+02  0.00000000000E+00 0.  1.
        -13    1    4    4    0    0 -0.82483113368E+02 -0.11727395985E+02 -0.32457484208E+03  0.33509673815E+03  0.00000000000E+00 0.  1.
         13    1    4    4    0    0 -0.52047347902E+02  0.33582652061E+02 -0.76596401294E+02  0.98507510548E+02  0.00000000000E+00 0. -1.
          4    1    1    2  501    0  0.54967925897E+02  0.95129597917E+02  0.24283154230E+02  0.11252015311E+03  0.00000000000E+00 0. -1.
<scales pt_clust_5="13000.00000" pt_clust_6="13000.00000" pt_clust_7="13000.00000" pt_clust_8="13000.00000" pt_clust_9="109.86862"></scales>
<clustering>
<clus scale="   81.774">  5  6 -1 -1</clus>
<clus scale="   92.186">  7  8 -1 -1</clus>
<clus scale="  109.869">  1  9  2 -1</clus>
<clus scale="  151.703">  2  5  1 -1</clus>
<clus scale="  109.869">  1  5  2 -1</clus>
</clustering>
</event>
<event>
 9    1  0.8429841E-005  0.9862367E+02  0.7546771E-02  0.1283293E+00
         21   -1    0    0  501  502  0.00000000000E+00  0.00000000000E+00  0.18248046206E+03  0.18248046206E+03  0.00000000000E+00 0.  1.
          1   -1    0    0  502    0 -0.00000000000E+00 -0.00000000000E+00 -0.38320160470E+03  0.38320160470E+03  0.00000000000E+00 0. -1.
        -24    2    1    2    0    0  0.31927578211E+02  0.57069675097E+02 -0.33251286865E+03  0.34840051884E+03  0.80881367719E+02 0.  0.
         23    2    1    2    0    0  0.17669016551E+02 -0.51951047837E+01  0.21218548016E+02  0.85458860383E+02  0.80708158066E+02 0.  0.
         11    1    3    3    0    0 -0.15488731098E+02  0.27643591736E+02 -0.42197043500E+02  0.52769872420E+02  0.00000000000E+00 0. -1.
        -12    1    3    3    0    0  0.47416309309E+02  0.29426083361E+02 -0.29031582515E+03  0.29563064642E+03  0.00000000000E+00 0.  1.
        -13    1    4    4    0    0 -0.20660315083E+02 -0.30414062943E+02  0.70334877891E+01  0.37434393204E+02  0.00000000000E+00 0.  1.
         13    1    4    4    0    0  0.38329331634E+02  0.25218958159E+02  0.14185060227E+02  0.48024467179E+02  0.00000000000E+00 0. -1.
          2    1    1    2  501    0 -0.49596594762E+02 -0.51874570313E+02  0.11057317799E+03  0.13182268753E+03  0.00000000000E+00 0. -1.
<scales pt_clust_5="13000.00000" pt_clust_6="13000.00000" pt_clust_7="13000.00000" pt_clust_8="13000.00000" pt_clust_9="71.76903"></scales>
<clustering>
<clus scale="   71.769">  1  9  2 -1</clus>
<clus scale="   80.708">  7  8 -1 -1</clus>
<clus scale="   80.881">  5  6 -1 -1</clus>
<clus scale="   98.482">  1  7  2 -1</clus>
<clus scale="   71.769">  1  5  2 -1</clus>
</clustering>
</event>
<event>
 9    1  0.8429841E-005  0.9240542E+02  0.7546771E-02  0.1312609E+00
         21   -1    0    0  501  502  0.00000000000E+00  0.00000000000E+00  0.21705445699E+03  0.21705445699E+03  0.00000000000E+00 0.  1.
         -4   -1    0    0    0  501 -0.00000000000E+00 -0.00000000000E+00 -0.25322175714E+03  0.25322175714E+03  0.00000000000E+00 0.  1.
        -24    2    1    2    0    0 -0.13246061467E+01 -0.24508270789E+02 -0.19356745238E+03  0.20563068918E+03  0.64909258157E+02 0.  0.
         23    2    1    2    0    0  0.47889529343E+02  0.23664636691E+02  0.34276058133E+01  0.10378363126E+03  0.88914968286E+02 0.  0.
         13    1    3    3    0    0  0.28960165215E+02  0.14768041441E+01 -0.93750585150E+02  0.98132789300E+02  0.00000000000E+00 0. -1.
        -14    1    3    3    0    0 -0.30284771362E+02 -0.25985074933E+02 -0.99816867229E+02  0.10749789988E+03  0.00000000000E+00 0.  1.
        -11    1    4    4    0    0  0.51421445526E+02  0.47976327152E+02  0.21210565537E+02  0.73455980814E+02  0.00000000000E+00 0. -1.
         11    1    4    4    0    0 -0.35319161831E+01 -0.24311690461E+02 -0.17782959723E+02  0.30327650445E+02  0.00000000000E+00 0.  1.
         -3    1    1    2    0  502 -0.46564923196E+02  0.84363409778E+00  0.15397254642E+03  0.16086189369E+03  0.00000000000E+00 0.  1.
<scales pt_clust_5="13000.00000" pt_clust_6="13000.00000" pt_clust_7="13000.00000" pt_clust_8="13000.00000" pt_clust_9="46.57256"></scales>
<clustering>
<clus scale="   46.573">  1  9  2 -1</clus>
<clus scale="   64.909">  5  6 -1 -1</clus>
<clus scale="   69.614">  2  5  1 -1</clus>
<clus scale="   88.915">  7  8 -1 -1</clus>
<clus scale="   46.573">  1  5  2 -1</clus>
</clustering>
</event>
<event>
 9    1  0.8429841E-005  0.1271235E+03  0.7546771E-02  0.1234835E+00
         21   -1    0    0  501  502  0.00000000000E+00  0.00000000000E+00  0.21813438398E+03  0.21813438398E+03  0.00000000000E+00 0. -1.
          1   -1    0    0  502    0 -0.00000000000E+00 -0.00000000000E+00 -0.12655122849E+03  0.12655122849E+03  0.00000000000E+00 0. -1.
         23    2    1    2    0    0  0.26323600831E+02  0.78896858011E+02 -0.44363291922E+02  0.13141278681E+03  0.91561851782E+02 0.  0.
        -24    2    1    2    0    0 -0.53013895928E+02 -0.89919975687E+02  0.92261274169E+02  0.16090608683E+03  0.80514289900E+02 0.  0.
         13    1    4    4    0    0 -0.29177441334E+02 -0.10122746061E+03  0.71272654583E+02  0.12719321191E+03  0.00000000000E+00 0. -1.
        -14    1    4    4    0    0 -0.23836454594E+02  0.11307484927E+02  0.20988619586E+02  0.33712874916E+02  0.00000000000E+00 0.  1.
        -13    1    3    3    0    0  0.35134700996E+02 -0.74819675206E+01 -0.57215337550E+01  0.36375307566E+02  0.00000000000E+00 0. -1.
         13    1    3    3    0    0 -0.88111001644E+01  0.86378825532E+02 -0.38641758167E+02  0.95037479242E+02  0.00000000000E+00 0.  1.
          2    1    1    2  501    0  0.26690295097E+02  0.11023117676E+02  0.43685173239E+02  0.52366738839E+02  0.00000000000E+00 0. -1.
<scales pt_clust_5="13000.00000" pt_clust_6="13000.00000" pt_clust_7="13000.00000" pt_clust_8="13000.00000" pt_clust_9="28.87700"></scales>
<clustering>
<clus scale="   28.877">  1  9  2 -1</clus>
<clus scale="   80.514">  5  6 -1 -1</clus>
<clus scale="   91.562">  7  8 -1 -1</clus>
<clus scale="  119.413">  1  5  2 -1</clus>
<clus scale="   28.877">  1  5  2 -1</clus>
</clustering>
</event>
<event>
 9    1  0.8429841E-005  0.1541086E+03  0.7546771E-02  0.1208910E+00
          1   -1    0    0  502    0 -0.00000000000E+00  0.00000000000E+00  0.72406764998E+03  0.72406764998E+03  0.00000000000E+00 0. -1.
         21   -1    0    0  501  502  0.00000000000E+00 -0.00000000000E+00 -0.70191691646E+02  0.70191691646E+02  0.00000000000E+00 0. -1.
         23    2    1    2    0    0  0.63310666280E+02 -0.33920259531E+02  0.35931859116E+03  0.37737290462E+03  0.90231007495E+02 0.  0.
        -24    2    1    2    0    0 -0.49184110701E+02 -0.11146651344E+03  0.17668777550E+03  0.22918956978E+03  0.80407888428E+02 0.  0.
         13    1    4    4    0    0 -0.69022214902E+02 -0.62779882925E+02  0.11707312531E+03  0.14970469772E+03  0.00000000000E+00 0. -1.
        -14    1    4    4    0    0  0.19838104201E+02 -0.48686630510E+02  0.59614650198E+02  0.79484872064E+02  0.00000000000E+00 0.  1.
        -11    1    3    3    0    0  0.82123547711E+02 -0.43710626755E+02  0.27026160255E+03  0.28582552334E+03  0.00000000000E+00 0. -1.
         11    1    3    3    0    0 -0.18812881431E+02  0.97903672235E+01  0.89056988614E+02  0.91547381280E+02  0.00000000000E+00 0.  1.
          2    1    1    2  501    0 -0.14126555579E+02  0.14538677297E+03  0.11786959167E+03  0.18769686722E+03  0.00000000000E+00 0. -1.
<scales pt_clust_5="13000.00000" pt_clust_6="13000.00000" pt_clust_7="13000.00000" pt_clust_8="13000.00000" pt_clust_9="131.46880"></scales>
<clustering>
<clus scale="   80.408">  5  6 -1 -1</clus>
<clus scale="   90.231">  7  8 -1 -1</clus>
<clus scale="  115.328">  1  7  2 -1</clus>
<clus scale="  131.469">  2  9  1 -1</clus>
<clus scale="  131.469">  2  5  1 -1</clus>
</clustering>
</event>
<event>
 9    1  0.8429841E-005  0.9222325E+02  0.7546771E-02  0.1303473E+00
          3   -1    0    0  502    0 -0.00000000000E+00  0.00000000000E+00  0.30136223632E+03  0.30136223632E+03  0.00000000000E+00 0. -1.
         21   -1    0    0  501  502  0.00000000000E+00 -0.00000000000E+00 -0.14907138667E+03  0.14907138667E+03  0.00000000000E+00 0.  1.
         23    2    1    2    0    0  0.17445980196E+02  0.79683298595E+01  0.26144032154E+03  0.27746670377E+03  0.90933346307E+02 0.  0.
        -24    2    1    2    0    0  0.88510476853E+01  0.14055061198E+02 -0.32656846189E+02  0.89135629028E+02  0.81257645602E+02 0.  0.
         13    1    4    4    0    0  0.38601481689E+02  0.16414622174E+02 -0.40469272502E+02  0.58286158104E+02  0.00000000000E+00 0. -1.
        -14    1    4    4    0    0 -0.29750434004E+02 -0.23595609763E+01  0.78124263128E+01  0.30849470924E+02  0.00000000000E+00 0.  1.
        -13    1    3    3    0    0 -0.99526445670E+01  0.44959188582E+02  0.11197977650E+03  0.12107788450E+03  0.00000000000E+00 0. -1.
         13    1    3    3    0    0  0.27398624763E+02 -0.36990858722E+02  0.14946054504E+03  0.15638881927E+03  0.00000000000E+00 0.  1.
          4    1    1    2  501    0 -0.26297027882E+02 -0.22023391057E+02 -0.76492625696E+02  0.83831290190E+02  0.00000000000E+00 0. -1.
<scales pt_clust_5="13000.00000" pt_clust_6="13000.00000" pt_clust_7="13000.00000" pt_clust_8="13000.00000" pt_clust_9="34.30107"></scales>
<clustering>
<clus scale="   34.301">  2  9  1 -1</clus>
<clus scale="   81.258">  5  6 -1 -1</clus>
<clus scale="   82.699">  2  5  1 -1</clus>
<clus scale="   90.933">  7  8 -1 -1</clus>
<clus scale="   34.301">  2  5  1 -1</clus>
</clustering>
</event>
<event>
 9    1  0.8429841E-005  0.1279780E+03  0.7546771E-02  0.1233457E+00
         21   -1    0    0  501  502  0.00000000000E+00  0.00000000000E+00  0.12416100692E+03  0.12416100692E+03  0.00000000000E+00 0.  1.
          1   -1    0    0  502    0 -0.00000000000E+00 -0.00000000000E+00 -0.18028296157E+03  0.18028296157E+03  0.00000000000E+00 0. -1.
        -24    2    1    2    0    0 -0.95219347505E+02 -0.12843658391E+02 -0.88707997255E+02  0.15333541393E+03  0.80068450013E+02 0.  0.
         23    2    1    2    0    0  0.72247095767E+02  0.15445291129E+02  0.44082979591E+02  0.12528855451E+03  0.91080804433E+02 0.  0.
         11    1    3    3    0    0 -0.10208476947E+03 -0.35066558267E+01 -0.95556597342E+02  0.13987372909E+03  0.00000000000E+00 0. -1.
        -12    1    3    3    0    0  0.68654219652E+01 -0.93370025644E+01  0.68486000867E+01  0.13461684842E+02  0.00000000000E+00 0.  1.
        -11    1    4    4    0    0  0.16720677716E+02 -0.19102987098E+02  0.53499200567E+02  0.59217139754E+02  0.00000000000E+00 0.  1.
         11    1    4    4    0    0  0.55526418051E+02  0.34548278227E+02 -0.94162209756E+01  0.66071414753E+02  0.00000000000E+00 0. -1.
          2    1    1    2  501    0  0.22972251738E+02 -0.26016327380E+01 -0.11496936986E+02  0.25820000056E+02  0.00000000000E+00 0. -1.
<scales pt_clust_5="13000.00000" pt_clust_6="13000.00000" pt_clust_7="13000.00000" pt_clust_8="13000.00000" pt_clust_9="23.11911"></scales>
<clustering>
<clus scale="   23.119">  1  9  2 -1</clus>
<clus scale="   80.068">  5  6 -1 -1</clus>
<clus scale="   91.081">  7  8 -1 -1</clus>
<clus scale="  120.389">  2  5  1 -1</clus>
<clus scale="   23.119">  1  5  2 -1</clus>
</clustering>
</event>
<event>
 9    1  0.8429841E-005  0.8420583E+02  0.7546771E-02  0.1319639E+00
         21   -1    0    0  501  502  0.00000000000E+00  0.00000000000E+00  0.74589095378E+02  0.74589095378E+02  0.00000000000E+00 0.  1.
          3   -1    0    0  502    0 -0.00000000000E+00 -0.00000000000E+00 -0.22180200728E+03  0.22180200728E+03  0.00000000000E+00 0. -1.
        -24    2    1    2    0    0 -0.53039226176E+01  0.12937512285E+02 -0.15986565601E+03  0.17917982900E+03  0.79704907822E+02 0.  0.
         23    2    1    2    0    0  0.25081604515E+02 -0.95236124084E+01  0.28471209410E+02  0.91656719109E+02  0.82888831058E+02 0.  0.
         13    1    3    3    0    0 -0.12528761320E+02  0.34165593509E+02 -0.15057086333E+03  0.15490591507E+03  0.00000000000E+00 0. -1.
        -14    1    3    3    0    0  0.72248387027E+01 -0.21228081225E+02 -0.92947926844E+01  0.24273913937E+02  0.00000000000E+00 0.  1.
        -13    1    4    4    0    0 -0.21726764088E+02 -0.11141909224E+02 -0.14243227055E+02  0.28267718972E+02  0.00000000000E+00 0. -1.
         13    1    4    4    0    0  0.46808368603E+02  0.16182968160E+01  0.42714436465E+02  0.63389000137E+02  0.00000000000E+00 0.  1.
          4    1    1    2  501    0 -0.19777681897E+02 -0.34138998763E+01 -0.15818465304E+02  0.25554554549E+02  0.00000000000E+00 0. -1.
<scales pt_clust_5="13000.00000" pt_clust_6="13000.00000" pt_clust_7="13000.00000" pt_clust_8="13000.00000" pt_clust_9="20.07017"></scales>
<clustering>
<clus scale="   20.070">  1  9  2 -1</clus>
<clus scale="   79.705">  5  6 -1 -1</clus>
<clus scale="   81.074">  2  5  1 -1</clus>
<clus scale="   82.889">  7  8 -1 -1</clus>
<clus scale="   20.070">  1  5  2 -1</clus>
</clustering>
</event>
<event>
 9    1  0.8429841E-005  0.9962922E+02  0.7546771E-02  0.1287303E+00
         21   -1    0    0  501  502  0.00000000000E+00  0.00000000000E+00  0.84577565527E+02  0.84577565527E+02  0.00000000000E+00 0. -1.
          3   -1    0    0  502    0 -0.00000000000E+00 -0.00000000000E+00 -0.23954618563E+03  0.23954618563E+03  0.00000000000E+00 0. -1.
        -24    2    1    2    0    0 -0.47573782066E+02 -0.50490925504E+01 -0.15223763815E+03  0.17827914334E+03  0.79488341330E+02 0.  0.
         23    2    1    2    0    0  0.81177181891E+01  0.26242424836E+02 -0.20168488097E+02  0.97782097157E+02  0.91651559738E+02 0.  0.
         11    1    3    3    0    0 -0.57867094846E+02 -0.11574363009E+02 -0.15493809405E+03  0.16579619879E+03  0.00000000000E+00 0. -1.
        -12    1    3    3    0    0  0.10293312780E+02  0.65252704588E+01  0.27004559078E+01  0.12482944551E+02  0.00000000000E+00 0.  1.
        -13    1    4    4    0    0  0.34384605359E+02 -0.44126972232E+01 -0.39893600828E+02  0.52851417857E+02  0.00000000000E+00 0.  1.
         13    1    4    4    0    0 -0.26266887170E+02  0.30655122059E+02  0.19725112731E+02  0.44930679300E+02  0.00000000000E+00 0. -1.
          4    1    1    2  501    0  0.39456063877E+02 -0.21193332286E+02  0.17437506141E+02  0.48062510655E+02  0.00000000000E+00 0. -1.
<scales pt_clust_5="13000.00000" pt_clust_6="13000.00000" pt_clust_7="13000.00000" pt_clust_8="13000.00000" pt_clust_9="44.78770"></scales>
<clustering>
<clus scale="   44.788">  1  9  2 -1</clus>
<clus scale="   79.488">  5  6 -1 -1</clus>
<clus scale="   88.568">  2  5  1 -1</clus>
<clus scale="   91.652">  7  8 -1 -1</clus>
<clus scale="   44.788">  1  5  2 -1</clus>
</clustering>
</event>
<event>
 9    1  0.8429841E-005  0.1072213E+03  0.7546771E-02  0.1271914E+00
          1   -1    0    0  502    0 -0.00000000000E+00  0.00000000000E+00  0.54570515121E+03  0.54570515121E+03  0.00000000000E+00 0. -1.
         21   -1    0    0  501  502  0.00000000000E+00 -0.00000000000E+00 -0.84102517932E+02  0.84102517932E+02  0.00000000000E+00 0. -1.
        -24    2    1    2    0    0 -0.27281500111E+02  0.53245829682E+02  0.43942092633E+03  0.45013650755E+03  0.77153913112E+02 0.  0.
         23    2    1    2    0    0  0.19535415198E+02 -0.32056393282E+02  0.73746255162E+02  0.12338709032E+03  0.91523871802E+02 0.  0.
         11    1    3    3    0    0 -0.45239441491E+02  0.61672522041E+02  0.37540843149E+03  0.38312086536E+03  0.00000000000E+00 0. -1.
        -12    1    3    3    0    0  0.17957941380E+02 -0.84266923593E+01  0.64012494837E+02  0.67015642188E+02  0.00000000000E+00 0.  1.
        -13    1    4    4    0    0  0.42516148166E+02 -0.52902933556E+02  0.51919937301E+02  0.85451876065E+02  0.00000000000E+00 0.  1.
         13    1    4    4    0    0 -0.22980732967E+02  0.20846540274E+02  0.21826317861E+02  0.37935214254E+02  0.00000000000E+00 0. -1.
          2    1    1    2  501    0  0.77460849125E+01 -0.21189436400E+02 -0.51564548214E+02  0.56284071272E+02  0.00000000000E+00 0. -1.
<scales pt_clust_5="13000.00000" pt_clust_6="13000.00000" pt_clust_7="13000.00000" pt_clust_8="13000.00000" pt_clust_9="22.56090"></scales>
<clustering>
<clus scale="   22.561">  2  9  1 -1</clus>
<clus scale="   77.154">  5  6 -1 -1</clus>
<clus scale="   91.524">  7  8 -1 -1</clus>
<clus scale="   95.250">  1  5  2 -1</clus>
<clus scale="   22.561">  2  5  1 -1</clus>
</clustering>
</event>
<event>
 9    1  0.8429841E-005  0.1072573E+03  0.7546771E-02  0.1266676E+00
         -2   -1    0    0    0  501 -0.00000000000E+00  0.00000000000E+00  0.12863328410E+03  0.12863328410E+03  0.00000000000E+00 0.  1.
         21   -1    0    0  501  502  0.00000000000E+00 -0.00000000000E+00 -0.25051275978E+03  0.25051275978E+03  0.00000000000E+00 0. -1.
         23    2    1    2    0    0 -0.24339519292E+02 -0.55374439380E+02  0.83704068909E+02  0.13792899103E+03  0.91429178484E+02 0.  0.
        -24    2    1    2    0    0  0.18914017753E+02  0.25160765086E+02 -0.14166964407E+03  0.17031367592E+03  0.89138409169E+02 0.  0.
         11    1    4    4    0    0  0.75665691171E+01  0.45867701695E+02 -0.13897987831E+03  0.14654864586E+03  0.00000000000E+00 0. -1.
        -12    1    4    4    0    0  0.11347448636E+02 -0.20706936609E+02 -0.26897657571E+01  0.23765030068E+02  0.00000000000E+00 0.  1.
        -13    1    3    3    0    0  0.24944249024E+02 -0.79559960043E+01 -0.42383293964E+01  0.26523138349E+02  0.00000000000E+00 0. -1.
         13    1    3    3    0    0 -0.49283768317E+02 -0.47418443375E+02  0.87942398305E+02  0.11140585268E+03  0.00000000000E+00 0.  1.
         -1    1    1    2    0  502  0.54255015388E+01  0.30213674294E+02 -0.63913900520E+02  0.70903376936E+02  0.00000000000E+00 0.  1.
<scales pt_clust_5="13000.00000" pt_clust_6="13000.00000" pt_clust_7="13000.00000" pt_clust_8="13000.00000" pt_clust_9="30.69694"></scales>
<clustering>
<clus scale="   30.697">  2  9  1 -1</clus>
<clus scale="   89.138">  5  6 -1 -1</clus>
<clus scale="   91.429">  7  8 -1 -1</clus>
<clus scale="  105.311">  2  5  1 -1</clus>
<clus scale="   30.697">  2  5  1 -1</clus>
</clustering>
</event>
<event>
 9    1  0.8429841E-005  0.1320210E+03  0.7546771E-02  0.1225734E+00
          3   -1    0    0  502    0 -0.00000000000E+00  0.00000000000E+00  0.14903365004E+03  0.14903365004E+03  0.00000000000E+00 0. -1.
         21   -1    0    0  501  502  0.00000000000E+00 -0.00000000000E+00 -0.23025586578E+03  0.23025586578E+03  0.00000000000E+00 0. -1.
         23    2    1    2    0    0 -0.49242091732E+02 -0.87301608606E+02  0.62929843549E+02  0.14611299320E+03  0.85688313725E+02 0.  0.
        -24    2    1    2    0    0  0.67572394462E+02  0.76989133115E+02 -0.54608239265E+02  0.14119585697E+03  0.80379444635E+02 0.  0.
         11    1    4    4    0    0  0.11438148094E+02  0.70734148613E+02 -0.42898719041E+02  0.83513179243E+02  0.00000000000E+00 0. -1.
        -12    1    4    4    0    0  0.56134246368E+02  0.62549845020E+01 -0.11709520225E+02  0.57682677731E+02  0.00000000000E+00 0.  1.
        -11    1    3    3    0    0  0.37397624829E+01 -0.25052752140E+02  0.59077366544E+02  0.64278779165E+02  0.00000000000E+00 0. -1.
         11    1    3    3    0    0 -0.52981854215E+02 -0.62248856466E+02  0.38524770045E+01  0.81834214033E+02  0.00000000000E+00 0.  1.
          4    1    1    2  501    0 -0.18330302730E+02  0.10312475490E+02 -0.89543820026E+02  0.91980665652E+02  0.00000000000E+00 0. -1.
<scales pt_clust_5="13000.00000" pt_clust_6="13000.00000" pt_clust_7="13000.00000" pt_clust_8="13000.00000" pt_clust_9="21.03205"></scales>
<clustering>
<clus scale="   21.032">  2  9  1 -1</clus>
<clus scale="   80.379">  5  6 -1 -1</clus>
<clus scale="   85.688">  7  8 -1 -1</clus>
<clus scale="  128.639">  2  5  1 -1</clus>
<clus scale="   21.032">  2  5  1 -1</clus>
</clustering>
</event>
<event>
 9    1  0.8429841E-005  0.1620755E+03  0.7546771E-02  0.1198342E+00
         -4   -1    0    0    0  501 -0.00000000000E+00  0.00000000000E+00  0.16248289393E+03  0.16248289393E+03  0.00000000000E+00 0.  1.
         21   -1    0    0  501  502  0.00000000000E+00 -0.00000000000E+00 -0.35753747404E+03  0.35753747404E+03  0.00000000000E+00 0. -1.
         23    2    1    2    0    0 -0.16475487759E+02 -0.84191139655E+02 -0.67618040514E+01  0.12472988422E+03  0.90289713315E+02 0.  0.
        -24    2    1    2    0    0  0.13165466222E+03 -0.35019322836E+02 -0.16360498950E+03  0.22769912537E+03  0.80752684459E+02 0.  0.
         13    1    4    4    0    0  0.10726957344E+03 -0.59533176449E+02 -0.11582055789E+03  0.16871681041E+03  0.00000000000E+00 0. -1.
        -14    1    4    4    0    0  0.24385088782E+02  0.24513853613E+02 -0.47784431602E+02  0.58982314954E+02  0.00000000000E+00 0.  1.
        -13    1    3    3    0    0  0.36210141227E+02 -0.32502782206E+02 -0.13829926394E+02  0.50585294730E+02  0.00000000000E+00 0. -1.
         13    1    3    3    0    0 -0.52685628986E+02 -0.51688357448E+02  0.70681223430E+01  0.74144589491E+02  0.00000000000E+00 0.  1.
         -3    1    1    2    0  502 -0.11517917446E+03  0.11921046249E+03 -0.24687786561E+02  0.16759135838E+03  0.00000000000E+00 0.  1.
<scales pt_clust_5="13000.00000" pt_clust_6="13000.00000" pt_clust_7="13000.00000" pt_clust_8="13000.00000" pt_clust_9="140.52576"></scales>
<clustering>
<clus scale="   80.753">  5  6 -1 -1</clus>
<clus scale="   90.290">  7  8 -1 -1</clus>
<clus scale="  124.546">  1  7  2 -1</clus>
<clus scale="  140.526">  2  9  1 -1</clus>
<clus scale="  140.526">  2  5  1 -1</clus>
</clustering>
</event>
<event>
 9    1  0.8429841E-005  0.2022116E+03  0.7546771E-02  0.1148991E+00
         21   -1    0    0  501  502  0.00000000000E+00  0.00000000000E+00  0.46769192315E+03  0.46769192315E+03  0.00000000000E+00 0. -1.
          1   -1    0    0  502    0 -0.00000000000E+00 -0.00000000000E+00 -0.29167431121E+03  0.29167431121E+03  0.00000000000E+00 0. -1.
        -24    2    1    2    0    0  0.16186782874E+03  0.81098706702E+02 -0.22193033837E+03  0.29732373566E+03  0.79813122280E+02 0.  0.
         23    2    1    2    0    0 -0.13786362055E+03 -0.10357457336E+03  0.37177161703E+03  0.42001195008E+03  0.91988221327E+02 0.  0.
         13    1    3    3    0    0  0.11664609826E+03  0.81164906101E+02 -0.12068262264E+03  0.18643591292E+03  0.00000000000E+00 0. -1.
        -14    1    3    3    0    0  0.45221730483E+02 -0.66199399096E-01 -0.10124771573E+03  0.11088782274E+03  0.00000000000E+00 0.  1.
        -11    1    4    4    0    0 -0.85300922672E+02 -0.10749923829E+03  0.30861128434E+03  0.33774732932E+03  0.00000000000E+00 0. -1.
         11    1    4    4    0    0 -0.52562697873E+02  0.39246649347E+01  0.63160332690E+02  0.82264620756E+02  0.00000000000E+00 0.  1.
          2    1    1    2  501    0 -0.24004208193E+02  0.22475866657E+02  0.26176333281E+02  0.42030548616E+02  0.00000000000E+00 0. -1.
<scales pt_clust_5="13000.00000" pt_clust_6="13000.00000" pt_clust_7="13000.00000" pt_clust_8="13000.00000" pt_clust_9="32.88414"></scales>
<clustering>
<clus scale="   32.884">  1  9  2 -1</clus>
<clus scale="   79.813">  5  6 -1 -1</clus>
<clus scale="   91.988">  7  8 -1 -1</clus>
<clus scale="  196.972">  2  5  1 -1</clus>
<clus scale="   32.884">  1  5  2 -1</clus>
</clustering>
</event>
<event>
 9    1  0.8429841E-005  0.2068380E+03  0.7546771E-02  0.1144816E+00
          1   -1    0    0  502    0 -0.00000000000E+00  0.00000000000E+00  0.13926630841E+03  0.13926630841E+03  0.00000000000E+00 0. -1.
         21   -1    0    0  501  502  0.00000000000E+00 -0.00000000000E+00 -0.41997137222E+03  0.41997137222E+03  0.00000000000E+00 0.  1.
         23    2    1    2    0    0  0.13137252861E+03 -0.98105925395E+02 -0.77081819148E+02  0.20272334663E+03  0.90948526944E+02 0.  0.
        -24    2    1    2    0    0 -0.16625307192E+03  0.14058796701E+03 -0.13712217932E+03  0.27023706091E+03  0.82586419180E+02 0.  0.
         13    1    4    4    0    0 -0.75795538581E+02  0.10343109049E+03 -0.45025231096E+02  0.13590520808E+03  0.00000000000E+00 0. -1.
        -14    1    4    4    0    0 -0.90457533342E+02  0.37156876527E+02 -0.92096948224E+02  0.13433185283E+03  0.00000000000E+00 0.  1.
        -11    1    3    3    0    0  0.90322989152E+02 -0.22470509659E+02 -0.69835011942E+02  0.11636191416E+03  0.00000000000E+00 0.  1.
         11    1    3    3    0    0  0.41049539461E+02 -0.75635415737E+02 -0.72468072062E+01  0.86361432470E+02  0.00000000000E+00 0. -1.
          2    1    1    2  501    0  0.34880543310E+02 -0.42482041619E+02 -0.66501065344E+02  0.86277273100E+02  0.00000000000E+00 0. -1.
<scales pt_clust_5="13000.00000" pt_clust_6="13000.00000" pt_clust_7="13000.00000" pt_clust_8="13000.00000" pt_clust_9="54.96705"></scales>
<clustering>
<clus scale="   54.967">  2  9  1 -1</clus>
<clus scale="   82.586">  5  6 -1 -1</clus>
<clus scale="   90.949">  7  8 -1 -1</clus>
<clus scale="  203.300">  2  5  1 -1</clus>
<clus scale="   54.967">  2  5  1 -1</clus>
</clustering>
</event>
<event>
 9    1  0.8429841E-005  0.2081642E+03  0.7546771E-02  0.1180091E+00
          1   -1    0    0  502    0 -0.00000000000E+00  0.00000000000E+00  0.70130001316E+02  0.70130001316E+02  0.00000000000E+00 0. -1.
         21   -1    0    0  501  502  0.00000000000E+00 -0.00000000000E+00 -0.11543324976E+04  0.11543324976E+04  0.00000000000E+00 0. -1.
        -24    2    1    2    0    0  0.29212155068E+02  0.17925065132E+02 -0.73175582707E+02  0.11447404930E+03  0.81086275627E+02 0.  0.
         23    2    1    2    0    0  0.24347971256E+02 -0.19607366162E+03 -0.27113478445E+03  0.34706907490E+03  0.88911005686E+02 0.  0.
         11    1    3    3    0    0  0.54938398061E+02  0.10452149092E+01 -0.33836796178E+02  0.64530991247E+02  0.00000000000E+00 0. -1.
        -12    1    3    3    0    0 -0.25726242994E+02  0.16879850223E+02 -0.39338786529E+02  0.49943058053E+02  0.00000000000E+00 0.  1.
        -13    1    4    4    0    0  0.57930039540E+02 -0.12090044762E+03 -0.17625938749E+03  0.22145017362E+03  0.00000000000E+00 0.  1.
         13    1    4    4    0    0 -0.33582068283E+02 -0.75173213998E+02 -0.94875396956E+02  0.12561890129E+03  0.00000000000E+00 0. -1.
          2    1    1    2  501    0 -0.53560126324E+02  0.17814859649E+03 -0.73989212912E+03  0.76291937471E+03  0.00000000000E+00 0. -1.
<scales pt_clust_5="13000.00000" pt_clust_6="13000.00000" pt_clust_7="13000.00000" pt_clust_8="13000.00000" pt_clust_9="188.22109"></scales>
<clustering>
<clus scale="   81.086">  5  6 -1 -1</clus>
<clus scale="   88.032">  1  5  2 -1</clus>
<clus scale="   88.911">  7  8 -1 -1</clus>
<clus scale="  188.221">  2  9  1 -1</clus>
<clus scale="  188.221">  2  5  1 -1</clus>
</clustering>
</event>
<event>
 9    1  0.8429841E-005  0.1269705E+03  0.7546771E-02  0.1234585E+00
          1   -1    0    0  502    0 -0.00000000000E+00  0.00000000000E+00  0.46207272798E+03  0.46207272798E+03  0.00000000000E+00 0. -1.
         21   -1    0    0  501  502  0.00000000000E+00 -0.00000000000E+00 -0.59121204426E+02  0.59121204426E+02  0.00000000000E+00 0.  1.
         23    2    1    2    0    0  0.94527315245E+02  0.10185597247E+02  0.34704001567E+03  0.37103613978E+03  0.90509031728E+02 0.  0.
        -24    2    1    2    0    0 -0.69610752663E+02 -0.23017427890E+02  0.54298096024E+02  0.12208477950E+03  0.81123062572E+02 0.  0.
         11    1    4    4    0    0  0.10433346143E+02 -0.23739377956E+02  0.27187963050E+02  0.37571240495E+02  0.00000000000E+00 0. -1.
        -12    1    4    4    0    0 -0.80044098806E+02  0.72195006620E+00  0.27110132973E+02  0.84513539007E+02  0.00000000000E+00 0.  1.
        -13    1    3    3    0    0  0.55349695168E+02  0.48961784655E+02  0.23174230237E+03  0.24323926455E+03  0.00000000000E+00 0.  1.
         13    1    3    3    0    0  0.39177620077E+02 -0.38776187408E+02  0.11529771330E+03  0.12779687523E+03  0.00000000000E+00 0. -1.
          2    1    1    2  501    0 -0.24916562582E+02  0.12831830643E+02  0.16134118651E+01  0.28073013134E+02  0.00000000000E+00 0. -1.
<scales pt_clust_5="13000.00000" pt_clust_6="13000.00000" pt_clust_7="13000.00000" pt_clust_8="13000.00000" pt_clust_9="28.02661"></scales>
<clustering>
<clus scale="   28.027">  2  9  1 -1</clus>
<clus scale="   81.123">  5  6 -1 -1</clus>
<clus scale="   90.509">  7  8 -1 -1</clus>
<clus scale="  120.460">  2  5  1 -1</clus>
<clus scale="   28.027">  2  5  1 -1</clus>
</clustering>
</event>
<event>
 9    1  0.8429841E-005  0.2090665E+03  0.7546771E-02  0.1143226E+00
          1   -1    0    0  502    0 -0.00000000000E+00  0.00000000000E+00  0.22624108306E+03  0.22624108306E+03  0.00000000000E+00 0. -1.
         21   -1    0    0  501  502  0.00000000000E+00 -0.00000000000E+00 -0.39380535305E+03  0.39380535305E+03  0.00000000000E+00 0. -1.
        -24    2    1    2    0    0  0.11625865844E+03  0.17344598189E+03  0.62601087293E+02  0.23218141720E+03  0.79935787152E+02 0.  0.
         23    2    1    2    0    0 -0.14150787026E+03 -0.86885617278E+02 -0.65899019973E+02  0.20047865603E+03  0.90969351189E+02 0.  0.
         11    1    3    3    0    0  0.13841033985E+02  0.45138941668E+02 -0.16414073661E+02  0.49985198717E+02  0.00000000000E+00 0. -1.
        -12    1    3    3    0    0  0.10241762445E+03  0.12830704022E+03  0.79015160954E+02  0.18219621848E+03  0.00000000000E+00 0.  1.
        -13    1    4    4    0    0 -0.33804726573E+02 -0.33123261096E+02  0.21237932791E+02  0.51874461478E+02  0.00000000000E+00 0.  1.
         13    1    4    4    0    0 -0.10770314369E+03 -0.53762356181E+02 -0.87136952764E+02  0.14860419455E+03  0.00000000000E+00 0. -1.
          2    1    1    2  501    0  0.25249211822E+02 -0.86560364612E+02 -0.16426633731E+03  0.18738636288E+03  0.00000000000E+00 0. -1.
<scales pt_clust_5="13000.00000" pt_clust_6="13000.00000" pt_clust_7="13000.00000" pt_clust_8="13000.00000" pt_clust_9="90.16773"></scales>
<clustering>
<clus scale="   79.936">  5  6 -1 -1</clus>
<clus scale="   90.168">  2  9  1 -1</clus>
<clus scale="   90.969">  7  8 -1 -1</clus>
<clus scale="  204.507">  1  5  2 -1</clus>
<clus scale="   90.168">  2  5  1 -1</clus>
</clustering>
</event>
<event>
 9    1  0.8429841E-005  0.9575906E+02  0.7546771E-02  0.1293608E+00
         -2   -1    0    0    0  501 -0.00000000000E+00  0.00000000000E+00  0.13579837909E+03  0.13579837909E+03  0.00000000000E+00 0.  1.
         21   -1    0    0  501  502  0.00000000000E+00 -0.00000000000E+00 -0.25223070205E+03  0.25223070205E+03  0.00000000000E+00 0.  1.
         23    2    1    2    0    0  0.54665227393E+02  0.34251207453E+01  0.21609101757E+02  0.10537799618E+03  0.87393079025E+02 0.  0.
        -24    2    1    2    0    0 -0.39430274818E+00  0.58742718955E+02  0.23162340150E+02  0.10155214140E+03  0.79532892041E+02 0.  0.
         11    1    4    4    0    0  0.30585616351E+02  0.13720886601E+02 -0.13071577222E+02  0.35980672420E+02  0.00000000000E+00 0. -1.
        -12    1    4    4    0    0 -0.30979919099E+02  0.45021832354E+02  0.36233917372E+02  0.65571468979E+02  0.00000000000E+00 0.  1.
        -13    1    3    3    0    0  0.56240558438E+02  0.24649960387E+02  0.43185710347E+02  0.75070810164E+02  0.00000000000E+00 0.  1.
         13    1    3    3    0    0 -0.15753310460E+01 -0.21224839642E+02 -0.21576608590E+02  0.30307186012E+02  0.00000000000E+00 0. -1.
         -1    1    1    2    0  502 -0.54270924644E+02 -0.62167839700E+02 -0.16120376486E+03  0.18109894356E+03  0.00000000000E+00 0.  1.
<scales pt_clust_5="13000.00000" pt_clust_6="13000.00000" pt_clust_7="13000.00000" pt_clust_8="13000.00000" pt_clust_9="82.52378"></scales>
<clustering>
<clus scale="   79.533">  5  6 -1 -1</clus>
<clus scale="   82.524">  2  9  1 -1</clus>
<clus scale="   87.393">  7  8 -1 -1</clus>
<clus scale="   88.644">  2  5  1 -1</clus>
<clus scale="   82.524">  2  5  1 -1</clus>
</clustering>
</event>
<event>
 9    1  0.8429841E-005  0.1045613E+03  0.7546771E-02  0.1279678E+00
          3   -1    0    0  502    0 -0.00000000000E+00  0.00000000000E+00  0.24742176092E+03  0.24742176092E+03  0.00000000000E+00 0. -1.
         21   -1    0    0  501  502  0.00000000000E+00 -0.00000000000E+00 -0.93312276434E+02  0.93312276434E+02  0.00000000000E+00 0.  1.
         23    2    1    2    0    0  0.38703728273E+01 -0.44550777306E+02  0.16868484207E+03  0.19786018467E+03  0.93243365390E+02 0.  0.
        -24    2    1    2    0    0 -0.25463573613E+02  0.50322034089E+02  0.25410065347E+02  0.97065471652E+02  0.74801963009E+02 0.  0.
         13    1    4    4    0    0 -0.42376827551E+02  0.58862782851E+02  0.28383707537E+02  0.77886183446E+02  0.00000000000E+00 0. -1.
        -14    1    4    4    0    0  0.16913253938E+02 -0.85407487618E+01 -0.29736421904E+01  0.19179288206E+02  0.00000000000E+00 0.  1.
        -13    1    3    3    0    0  0.34678267751E+02 -0.51178866054E+02  0.14738117038E+03  0.15982198838E+03  0.00000000000E+00 0.  1.
         13    1    3    3    0    0 -0.30807894924E+02  0.66280887477E+01  0.21303671690E+02  0.38038196297E+02  0.00000000000E+00 0. -1.
          4    1    1    2  501    0  0.21593200786E+02 -0.57712567829E+01 -0.39985422935E+02  0.45808381027E+02  0.00000000000E+00 0. -1.
<scales pt_clust_5="13000.00000" pt_clust_6="13000.00000" pt_clust_7="13000.00000" pt_clust_8="13000.00000" pt_clust_9="22.35115"></scales>
<clustering>
<clus scale="   22.351">  2  9  1 -1</clus>
<clus scale="   74.802">  5  6 -1 -1</clus>
<clus scale="   88.510">  2  5  1 -1</clus>
<clus scale="   93.243">  7  8 -1 -1</clus>
<clus scale="   22.351">  2  5  1 -1</clus>
</clustering>
</event>
<event>
 9    1  0.8429841E-005  0.1138079E+03  0.7546771E-02  0.1256498E+00
         -4   -1    0    0    0  501 -0.00000000000E+00  0.00000000000E+00  0.11967356877E+03  0.11967356877E+03  0.00000000000E+00 0.  1.
         21   -1    0    0  501  502  0.00000000000E+00 -0.00000000000E+00 -0.44447884584E+03  0.44447884584E+03  0.00000000000E+00 0.  1.
        -24    2    1    2    0    0 -0.25404345398E+02  0.74561445873E+02  0.47843857782E+02  0.12428088774E+03  0.83378140750E+02 0.  0.
         23    2    1    2    0    0  0.55938176535E+02 -0.19149624197E+02 -0.66902458829E+02  0.12764754521E+03  0.91225923405E+02 0.  0.
         13    1    3    3    0    0 -0.54087877677E+02  0.38992040915E+02  0.40463929124E+02  0.77994918593E+02  0.00000000000E+00 0. -1.
        -14    1    3    3    0    0  0.28683532279E+02  0.35569404958E+02  0.73799286583E+01  0.46285969149E+02  0.00000000000E+00 0.  1.
        -11    1    4    4    0    0  0.79369071455E+01 -0.46213898101E+02 -0.90596145639E+01  0.47757674658E+02  0.00000000000E+00 0. -1.
         11    1    4    4    0    0  0.48001269389E+02  0.27064273904E+02 -0.57842844265E+02  0.79889870557E+02  0.00000000000E+00 0.  1.
         -3    1    1    2    0  502 -0.30533831137E+02 -0.55411821676E+02 -0.30574667602E+03  0.31222398166E+03  0.00000000000E+00 0.  1.
<scales pt_clust_5="13000.00000" pt_clust_6="13000.00000" pt_clust_7="13000.00000" pt_clust_8="13000.00000" pt_clust_9="63.26757"></scales>
<clustering>
<clus scale="   63.268">  2  9  1 -1</clus>
<clus scale="   83.378">  5  6 -1 -1</clus>
<clus scale="   91.226">  7  8 -1 -1</clus>
<clus scale="  107.620">  1  5  2 -1</clus>
<clus scale="   63.268">  2  5  1 -1</clus>
</clustering>
</event>
<event>
 9    1  0.8429841E-005  0.2008705E+03  0.7546771E-02  0.1155768E+00
         21   -1    0    0  501  502  0.00000000000E+00  0.00000000000E+00  0.38598402669E+02  0.38598402669E+02  0.00000000000E+00 0. -1.
          1   -1    0    0  502    0 -0.00000000000E+00 -0.00000000000E+00 -0.23456068391E+04  0.23456068391E+04  0.00000000000E+00 0. -1.
         23    2    1    2    0    0  0.14352733231E+03 -0.26043252646E+02 -0.57060085398E+03  0.59574487456E+03  0.89712177898E+02 0.  0.
        -24    2    1    2    0    0  0.57562779475E+02  0.15645968334E+03 -0.64439845623E+03  0.67045785819E+03  0.80444161508E+02 0.  0.
         11    1    4    4    0    0  0.16710030446E+02  0.10529605527E+03 -0.50918710372E+03  0.52022878714E+03  0.00000000000E+00 0. -1.
        -12    1    4    4    0    0  0.40852749029E+02  0.51163628067E+02 -0.13521135251E+03  0.15022907105E+03  0.00000000000E+00 0.  1.
        -13    1    3    3    0    0  0.11214917535E+03 -0.40838157672E+02 -0.52528966825E+03  0.53867840891E+03  0.00000000000E+00 0. -1.
         13    1    3    3    0    0  0.31378156958E+02  0.14794905026E+02 -0.45311185735E+02  0.57066465647E+02  0.00000000000E+00 0.  1.
          2    1    1    2  501    0 -0.20109011179E+03 -0.13041643069E+03 -0.10920091262E+04  0.11180025091E+04  0.00000000000E+00 0. -1.
<scales pt_clust_5="13000.00000" pt_clust_6="13000.00000" pt_clust_7="13000.00000" pt_clust_8="13000.00000" pt_clust_9="184.05900"></scales>
<clustering>
<clus scale="   80.444">  5  6 -1 -1</clus>
<clus scale="   89.712">  7  8 -1 -1</clus>
<clus scale="  171.250">  2  7  1 -1</clus>
<clus scale="  184.059">  1  9  2 -1</clus>
<clus scale="  184.059">  1  5  2 -1</clus>
</clustering>
</event>
<event>
 9    1  0.8429841E-005  0.3406284E+03  0.7546771E-02  0.1116232E+00
          1   -1    0    0  502    0 -0.00000000000E+00  0.00000000000E+00  0.60006448824E+03  0.60006448824E+03  0.00000000000E+00 0. -1.
         21   -1    0    0  501  502  0.00000000000E+00 -0.00000000000E+00 -0.37894061109E+03  0.37894061109E+03  0.00000000000E+00 0. -1.
        -24    2    1    2    0    0  0.44182778460E+02 -0.48214292592E+01  0.76879813970E+02  0.11973567745E+03  0.80316639402E+02 0.  0.
         23    2    1    2    0    0  0.49272069577E+02 -0.31141117029E+03  0.34174776772E+03  0.47489385170E+03  0.96581467305E+02 0.  0.
         13    1    3    3    0    0  0.23216765512E+02 -0.17970871521E+02  0.87878665388E+02  0.92653279782E+02  0.00000000000E+00 0. -1.
        -14    1    3    3    0    0  0.20966012948E+02  0.13149442261E+02 -0.10998851418E+02  0.27082397664E+02  0.00000000000E+00 0.  1.
        -11    1    4    4    0    0  0.15919124776E+02 -0.37977412920E+02  0.10093721653E+03  0.10901387117E+03  0.00000000000E+00 0.  1.
         11    1    4    4    0    0  0.33352944801E+02 -0.27343375737E+03  0.24081055118E+03  0.36587998053E+03  0.00000000000E+00 0. -1.
          2    1    1    2  501    0 -0.93454848037E+02  0.31623259955E+03 -0.19750370454E+03  0.38437557017E+03  0.00000000000E+00 0. -1.
<scales pt_clust_5="13000.00000" pt_clust_6="13000.00000" pt_clust_7="13000.00000" pt_clust_8="13000.00000" pt_clust_9="326.64919"></scales>
<clustering>
<clus scale="   80.317">  5  6 -1 -1</clus>
<clus scale="   91.794">  1  5  2 -1</clus>
<clus scale="   96.581">  7  8 -1 -1</clus>
<clus scale="  326.649">  2  9  1 -1</clus>
<clus scale="  326.649">  2  5  1 -1</clus>
</clustering>
</event>
<event>
 9    1  0.8429841E-005  0.1853748E+03  0.7546771E-02  0.1170029E+00
          1   -1    0    0  502    0 -0.00000000000E+00  0.00000000000E+00  0.13246902549E+04  0.13246902549E+04  0.00000000000E+00 0. -1.
         21   -1    0    0  501  502  0.00000000000E+00 -0.00000000000E+00 -0.36141229879E+02  0.36141229879E+02  0.00000000000E+00 0. -1.
         23    2    1    2    0    0 -0.71727928524E+02  0.14549782428E+03  0.94587127783E+03  0.96785010875E+03  0.12548643829E+03 0.  0.
        -24    2    1    2    0    0  0.31232528196E+02 -0.90647609521E+02  0.19773457472E+03  0.23280351628E+03  0.76850863514E+02 0.  0.
         11    1    4    4    0    0 -0.23476053687E+01 -0.23216189883E+02  0.12813598191E+03  0.13024335907E+03  0.00000000000E+00 0. -1.
        -12    1    4    4    0    0  0.33580133565E+02 -0.67431419638E+02  0.69598592818E+02  0.10256015721E+03  0.00000000000E+00 0.  1.
        -13    1    3    3    0    0  0.31323468732E+02  0.13667409338E+02  0.10273548060E+03  0.10827066429E+03  0.00000000000E+00 0.  1.
         13    1    3    3    0    0 -0.10305139726E+03  0.13183041494E+03  0.84313579722E+03  0.85957944446E+03  0.00000000000E+00 0. -1.
          2    1    1    2  501    0  0.40495400328E+02 -0.54850214758E+02  0.14494317247E+03  0.16017785975E+03  0.00000000000E+00 0. -1.
<scales pt_clust_5="13000.00000" pt_clust_6="13000.00000" pt_clust_7="13000.00000" pt_clust_8="13000.00000" pt_clust_9="68.17935"></scales>
<clustering>
<clus scale="   68.179">  2  9  1 -1</clus>
<clus scale="   76.851">  5  6 -1 -1</clus>
<clus scale="  125.486">  7  8 -1 -1</clus>
<clus scale="  156.598">  2  5  1 -1</clus>
<clus scale="   68.179">  2  5  1 -1</clus>
</clustering>
</event>
<event>
 9    1  0.8429841E-005  0.1703799E+03  0.7546771E-02  0.1179230E+00
          1   -1    0    0  502    0 -0.00000000000E+00  0.00000000000E+00  0.53655930052E+03  0.53655930052E+03  0.00000000000E+00 0. -1.
         21   -1    0    0  501  502  0.00000000000E+00 -0.00000000000E+00 -0.10592327576E+03  0.10592327576E+03  0.00000000000E+00 0. -1.
        -24    2    1    2    0    0  0.13128200918E+03 -0.54618691486E+02  0.17124000408E+03  0.23857001490E+03  0.85874010140E+02 0.  0.
         23    2    1    2    0    0 -0.15065775942E+03 -0.51697198538E+02  0.10213937954E+03  0.21310339139E+03  0.98031840527E+02 0.  0.
         13    1    3    3    0    0  0.12431014627E+03 -0.36420218036E+02  0.17597955659E+03  0.21851372745E+03  0.00000000000E+00 0. -1.
        -14    1    3    3    0    0  0.69718629039E+01 -0.18198473450E+02 -0.47395525033E+01  0.20056287448E+02  0.00000000000E+00 0.  1.
        -11    1    4    4    0    0 -0.12601540750E+03 -0.80064081650E+02  0.85046754050E+02  0.17182284619E+03  0.00000000000E+00 0. -1.
         11    1    4    4    0    0 -0.24642351924E+02  0.28366883113E+02  0.17092625490E+02  0.41280545200E+02  0.00000000000E+00 0.  1.
          2    1    1    2  501    0  0.19375750244E+02  0.10631589002E+03  0.15725664114E+03  0.19080916999E+03  0.00000000000E+00 0. -1.
<scales pt_clust_5="13000.00000" pt_clust_6="13000.00000" pt_clust_7="13000.00000" pt_clust_8="13000.00000" pt_clust_9="108.06711"></scales>
<clustering>
<clus scale="   85.874">  5  6 -1 -1</clus>
<clus scale="   98.032">  7  8 -1 -1</clus>
<clus scale="  108.067">  2  9  1 -1</clus>
<clus scale="  163.687">  1  5  2 -1</clus>
<clus scale="  108.067">  2  5  1 -1</clus>
</clustering>
</event>
<event>
 9    1  0.8429841E-005  0.2222680E+03  0.7546771E-02  0.1132235E+00
         21   -1    0    0  501  502  0.00000000000E+00  0.00000000000E+00  0.27869597483E+03  0.27869597483E+03  0.00000000000E+00 0.  1.
          1   -1    0    0  502    0 -0.00000000000E+00 -0.00000000000E+00 -0.41413287293E+03  0.41413287293E+03  0.00000000000E+00 0. -1.
         23    2    1    2    0    0 -0.20231934881E+03  0.40262192157E+02 -0.32090324920E+03  0.39145179994E+03  0.87757924495E+02 0.  0.
        -24    2    1    2    0    0  0.18329525663E+03 -0.56630286745E+02  0.17583297780E+03  0.27449522339E+03  0.87328409469E+02 0.  0.
         13    1    4    4    0    0  0.47487222101E+02  0.16151882746E+02  0.16393011990E+02  0.52769787011E+02  0.00000000000E+00 0. -1.
        -14    1    4    4    0    0  0.13580803453E+03 -0.72782169491E+02  0.15943996581E+03  0.22172543638E+03  0.00000000000E+00 0.  1.
        -11    1    3    3    0    0 -0.17011279626E+03  0.14501600752E+02 -0.19608250771E+03  0.25999424937E+03  0.00000000000E+00 0. -1.
         11    1    3    3    0    0 -0.32206552551E+02  0.25760591404E+02 -0.12482074149E+03  0.13145755057E+03  0.00000000000E+00 0.  1.
          2    1    1    2  501    0  0.19024092177E+02  0.16368094588E+02  0.96333732961E+01  0.26881824430E+02  0.00000000000E+00 0. -1.
<scales pt_clust_5="13000.00000" pt_clust_6="13000.00000" pt_clust_7="13000.00000" pt_clust_8="13000.00000" pt_clust_9="25.09643"></scales>
<clustering>
<clus scale="   25.096">  1  9  2 -1</clus>
<clus scale="   87.328">  5  6 -1 -1</clus>
<clus scale="   87.758">  7  8 -1 -1</clus>
<clus scale="  222.099">  1  5  2 -1</clus>
<clus scale="   25.096">  1  5  2 -1</clus>
</clustering>
</event>
<event>
 9    1  0.8429841E-005  0.1937088E+03  0.7546771E-02  0.1167670E+00
         21   -1    0    0  501  502  0.00000000000E+00  0.00000000000E+00  0.20598954002E+03  0.20598954002E+03  0.00000000000E+00 0. -1.
          1   -1    0    0  502    0 -0.00000000000E+00 -0.00000000000E+00 -0.51599110054E+03  0.51599110054E+03  0.00000000000E+00 0. -1.
        -24    2    1    2    0    0 -0.62787933000E+02  0.10314469716E+03  0.56760412493E+02  0.15558939752E+03  0.80032262954E+02 0.  0.
         23    2    1    2    0    0 -0.82065910651E+02  0.11205100882E+03 -0.86661461881E+02  0.18462151634E+03  0.85350178979E+02 0.  0.
         13    1    3    3    0    0 -0.28281417948E+02  0.10093913424E+03  0.23115252917E+02  0.10734459623E+03  0.00000000000E+00 0. -1.
        -14    1    3    3    0    0 -0.34506515052E+02  0.22055629140E+01  0.33645159575E+02  0.48244801292E+02  0.00000000000E+00 0.  1.
        -13    1    4    4    0    0 -0.17289544469E+02  0.26114068267E+02  0.16626593969E+02  0.35458659540E+02  0.00000000000E+00 0.  1.
         13    1    4    4    0    0 -0.64776366182E+02  0.85936940549E+02 -0.10328805585E+03  0.14916285680E+03  0.00000000000E+00 0. -1.
          2    1    1    2  501    0  0.14485384365E+03 -0.21519570597E+03 -0.28010051113E+03  0.38176972670E+03  0.00000000000E+00 0. -1.
<scales pt_clust_5="13000.00000" pt_clust_6="13000.00000" pt_clust_7="13000.00000" pt_clust_8="13000.00000" pt_clust_9="173.89216"></scales>
<clustering>
<clus scale="   80.032">  5  6 -1 -1</clus>
<clus scale="   85.350">  7  8 -1 -1</clus>
<clus scale="  144.867">  2  5  1 -1</clus>
<clus scale="  173.892">  1  9  2 -1</clus>
<clus scale="  173.892">  1  5  2 -1</clus>
</clustering>
</event>
<event>
 9    1  0.8429841E-005  0.9023385E+02  0.7546771E-02  0.1309159E+00
          1   -1    0    0  502    0 -0.00000000000E+00  0.00000000000E+00  0.78425193891E+03  0.78425193891E+03  0.00000000000E+00 0. -1.
         21   -1    0    0  501  502  0.00000000000E+00 -0.00000000000E+00 -0.30519998253E+02  0.30519998253E+02  0.00000000000E+00 0. -1.
        -24    2    1    2    0    0  0.18097275495E+02  0.15215252988E+02  0.34050517437E+03  0.35021020025E+03  0.78386193203E+02 0.  0.
         23    2    1    2    0    0  0.42452801944E+02  0.51191564070E+01  0.85698752765E+02  0.13086367020E+03  0.89177226901E+02 0.  0.
         11    1    3    3    0    0  0.44759329434E+02  0.21085827122E+02  0.27203743645E+03  0.27650022877E+03  0.00000000000E+00 0. -1.
        -12    1    3    3    0    0 -0.26662053939E+02 -0.58705741344E+01  0.68467737919E+02  0.73709971487E+02  0.00000000000E+00 0.  1.
        -13    1    4    4    0    0 -0.22581814838E+02  0.15146512356E+02  0.47622158532E+02  0.54838172664E+02  0.00000000000E+00 0.  1.
         13    1    4    4    0    0  0.65034616782E+02 -0.10027355949E+02  0.38076594233E+02  0.76025497537E+02  0.00000000000E+00 0. -1.
          2    1    1    2  501    0 -0.60550077439E+02 -0.20334409395E+02  0.32752801352E+03  0.33369806670E+03  0.00000000000E+00 0. -1.
<scales pt_clust_5="13000.00000" pt_clust_6="13000.00000" pt_clust_7="13000.00000" pt_clust_8="13000.00000" pt_clust_9="63.87334"></scales>
<clustering>
<clus scale="   63.873">  2  9  1 -1</clus>
<clus scale="   78.386">  5  6 -1 -1</clus>
<clus scale="   79.586">  1  5  2 -1</clus>
<clus scale="   89.177">  7  8 -1 -1</clus>
<clus scale="   63.873">  2  5  1 -1</clus>
</clustering>
</event>
<event>
 9    1  0.8429841E-005  0.1722256E+03  0.7546771E-02  0.1190892E+00
          1   -1    0    0  502    0 -0.00000000000E+00  0.00000000000E+00  0.69162781732E+03  0.69162781732E+03  0.00000000000E+00 0. -1.
         21   -1    0    0  501  502  0.00000000000E+00 -0.00000000000E+00 -0.78322869263E+02  0.78322869263E+02  0.00000000000E+00 0. -1.
         23    2    1    2    0    0  0.42304185602E+02  0.72171586387E+02  0.10964671744E+03  0.16418922980E+03  0.89091629997E+02 0.  0.
        -24    2    1    2    0    0  0.10865071661E+03  0.32787356225E+02  0.30446251424E+03  0.33468453863E+03  0.80226734136E+02 0.  0.
         11    1    4    4    0    0  0.76525716927E+02  0.16810653304E+02  0.28123155464E+03  0.29194172490E+03  0.00000000000E+00 0. -1.
        -12    1    4    4    0    0  0.32124999683E+02  0.15976702920E+02  0.23230959600E+02  0.42742813721E+02  0.00000000000E+00 0.  1.
        -13    1    3    3    0    0 -0.43220375337E+01  0.34444802485E+02 -0.47349183825E+01  0.35036322278E+02  0.00000000000E+00 0. -1.
         13    1    3    3    0    0  0.46626223135E+02  0.37726783902E+02  0.11438163583E+03  0.12915290752E+03  0.00000000000E+00 0.  1.
          2    1    1    2  501    0 -0.15095490221E+03 -0.10495894261E+03  0.19919571638E+03  0.27107691816E+03  0.00000000000E+00 0. -1.
<scales pt_clust_5="13000.00000" pt_clust_6="13000.00000" pt_clust_7="13000.00000" pt_clust_8="13000.00000" pt_clust_9="152.39854"></scales>
<clustering>
<clus scale="   80.227">  5  6 -1 -1</clus>
<clus scale="   89.092">  7  8 -1 -1</clus>
<clus scale="  122.212">  1  7  2 -1</clus>
<clus scale="  152.399">  2  9  1 -1</clus>
<clus scale="  152.399">  2  5  1 -1</clus>
</clustering>
</event>
<event>
 9    1  0.8429841E-005  0.1857382E+03  0.7546771E-02  0.1163345E+00
          1   -1    0    0  502    0 -0.00000000000E+00  0.00000000000E+00  0.96316470911E+03  0.96316470911E+03  0.00000000000E+00 0. -1.
         21   -1    0    0  501  502  0.00000000000E+00 -0.00000000000E+00 -0.10015859288E+03  0.10015859288E+03  0.00000000000E+00 0. -1.
        -24    2    1    2    0    0 -0.13262745282E+03 -0.12763235645E+03  0.80258548642E+03  0.82723643150E+03  0.79351061266E+02 0.  0.
         23    2    1    2    0    0  0.77070879227E+02  0.39083225689E+02  0.32639443987E+02  0.12792368031E+03  0.88496981439E+02 0.  0.
         11    1    3    3    0    0 -0.12523242809E+03 -0.95802717922E+02  0.74023805375E+03  0.75684456663E+03  0.00000000000E+00 0. -1.
        -12    1    3    3    0    0 -0.73950247239E+01 -0.31829638525E+02  0.62347432669E+02  0.70391864869E+02  0.00000000000E+00 0.  1.
        -11    1    4    4    0    0  0.15941822956E+02  0.24318332127E+02  0.54146912447E+02  0.61460646955E+02  0.00000000000E+00 0.  1.
         11    1    4    4    0    0  0.61129056272E+02  0.14764893562E+02 -0.21507468460E+02  0.66463033350E+02  0.00000000000E+00 0. -1.
          2    1    1    2  501    0  0.55556573590E+02  0.88549130758E+02  0.27781185820E+02  0.10816319019E+03  0.00000000000E+00 0. -1.
<scales pt_clust_5="13000.00000" pt_clust_6="13000.00000" pt_clust_7="13000.00000" pt_clust_8="13000.00000" pt_clust_9="104.53459"></scales>
<clustering>
<clus scale="   79.351">  5  6 -1 -1</clus>
<clus scale="   88.497">  7  8 -1 -1</clus>
<clus scale="  104.535">  2  9  1 -1</clus>
<clus scale="  181.559">  1  5  2 -1</clus>
<clus scale="  104.535">  2  5  1 -1</clus>
</clustering>
</event>
<event>
 9    1  0.8429841E-005  0.2430713E+03  0.7546771E-02  0.1153659E+00
         21   -1    0    0  501  502  0.00000000000E+00  0.00000000000E+00  0.12567877057E+04  0.12567877057E+04  0.00000000000E+00 0. -1.
          1   -1    0    0  502    0 -0.00000000000E+00 -0.00000000000E+00 -0.94607647980E+02  0.94607647980E+02  0.00000000000E+00 0. -1.
        -24    2    1    2    0    0 -0.63230479425E+02 -0.26092049197E+02  0.61669605667E+01  0.10174321266E+03  0.75065047521E+02 0.  0.
         23    2    1    2    0    0  0.10046245484E+00 -0.21066676259E+03  0.56179149427E+03  0.60689289579E+03  0.91262308622E+02 0.  0.
         11    1    3    3    0    0 -0.57884317860E+02 -0.50339703188E+02  0.53961676859E+01  0.76901226238E+02  0.00000000000E+00 0. -1.
        -12    1    3    3    0    0 -0.53461615649E+01  0.24247653991E+02  0.77079288086E+00  0.24841986418E+02  0.00000000000E+00 0.  1.
        -13    1    4    4    0    0  0.38763631979E+02 -0.12457968373E+03  0.38475179121E+03  0.40627165493E+03  0.00000000000E+00 0.  1.
         13    1    4    4    0    0 -0.38663169524E+02 -0.86087078857E+02  0.17703970306E+03  0.20062124086E+03  0.00000000000E+00 0. -1.
          2    1    1    2  501    0  0.63130016970E+02  0.23675881179E+03  0.59422160293E+03  0.64275924527E+03  0.00000000000E+00 0. -1.
<scales pt_clust_5="13000.00000" pt_clust_6="13000.00000" pt_clust_7="13000.00000" pt_clust_8="13000.00000" pt_clust_9="225.28846"></scales>
<clustering>
<clus scale="   75.065">  5  6 -1 -1</clus>
<clus scale="   91.262">  7  8 -1 -1</clus>
<clus scale="  101.556">  2  5  1 -1</clus>
<clus scale="  225.288">  1  9  2 -1</clus>
<clus scale="  225.288">  1  5  2 -1</clus>
</clustering>
</event>
<event>
 9    1  0.8930613E-005  0.1034564E+03  0.7546771E-02  0.1278645E+00
         -2   -1    0    0    0  501 -0.00000000000E+00  0.00000000000E+00  0.19794999942E+03  0.19794999942E+03  0.00000000000E+00 0.  1.
         21   -1    0    0  501  502  0.00000000000E+00 -0.00000000000E+00 -0.23908749230E+03  0.23908749230E+03  0.00000000000E+00 0. -1.
        -24    2    1    2    0    0  0.43340794052E+02  0.22008401089E+02  0.16688843254E+03  0.19127388102E+03  0.79819511989E+02 0.  0.
         23    2    1    2    0    0 -0.24778116799E+02 -0.41009665692E+02 -0.15278401225E+03  0.18446687331E+03  0.91593259556E+02 0.  0.
         11    1    3    3    0    0 -0.15811156925E+02  0.29842798049E+02  0.58705322313E+02  0.67726657577E+02  0.00000000000E+00 0. -1.
        -12    1    3    3    0    0  0.59151950977E+02 -0.78343969598E+01  0.10818311023E+03  0.12354722344E+03  0.00000000000E+00 0.  1.
        -13    1    4    4    0    0  0.18407478133E+01 -0.20237936510E+02  0.67390279605E+01  0.21409739012E+02  0.00000000000E+00 0.  1.
         13    1    4    4    0    0 -0.26618864612E+02 -0.20771729181E+02 -0.15952304021E+03  0.16305713430E+03  0.00000000000E+00 0. -1.
         -1    1    1    2    0  502 -0.18562677253E+02  0.19001264603E+02 -0.55241913175E+02  0.61296737389E+02  0.00000000000E+00 0.  1.
<scales pt_clust_5="13000.00000" pt_clust_6="13000.00000" pt_clust_7="13000.00000" pt_clust_8="13000.00000" pt_clust_9="26.56353"></scales>
<clustering>
<clus scale="   26.564">  2  9  1 -1</clus>
<clus scale="   79.820">  5  6 -1 -1</clus>
<clus scale="   91.593">  7  8 -1 -1</clus>
<clus scale="   93.194">  1  5  2 -1</clus>
<clus scale="   26.564">  2  5  1 -1</clus>
</clustering>
</event>
<event>
 9    1  0.8429841E-005  0.1937575E+03  0.7546771E-02  0.1156502E+00
         21   -1    0    0  501  502  0.00000000000E+00  0.00000000000E+00  0.17438595542E+03  0.17438595542E+03  0.00000000000E+00 0. -1.
          1   -1    0    0  502    0 -0.00000000000E+00 -0.00000000000E+00 -0.57664128318E+03  0.57664128318E+03  0.00000000000E+00 0. -1.
         23    2    1    2    0    0 -0.16839681051E+03 -0.24981580706E+01 -0.47532878353E+03  0.51294036820E+03  0.93843712048E+02 0.  0.
        -24    2    1    2    0    0  0.17771085758E+03  0.23261681975E+02  0.83076149825E+02  0.21322868692E+03  0.80265630927E+02 0.  0.
         11    1    4    4    0    0  0.64208757021E+02  0.32726098324E+02 -0.31397116346E+00  0.72068443632E+02  0.00000000000E+00 0. -1.
        -12    1    4    4    0    0  0.11350210056E+03 -0.94644163486E+01  0.83390120989E+02  0.14116024329E+03  0.00000000000E+00 0.  1.
        -13    1    3    3    0    0 -0.92407944654E+02  0.42598126130E+02 -0.29645082430E+03  0.31342769471E+03  0.00000000000E+00 0.  1.
         13    1    3    3    0    0 -0.75988865860E+02 -0.45096284200E+02 -0.17887795924E+03  0.19951267349E+03  0.00000000000E+00 0. -1.
          2    1    1    2  501    0 -0.93140470650E+01 -0.20763523904E+02 -0.10002694049E+02  0.24858183479E+02  0.00000000000E+00 0. -1.
<scales pt_clust_5="13000.00000" pt_clust_6="13000.00000" pt_clust_7="13000.00000" pt_clust_8="13000.00000" pt_clust_9="22.75688"></scales>
<clustering>
<clus scale="   22.757">  1  9  2 -1</clus>
<clus scale="   80.266">  5  6 -1 -1</clus>
<clus scale="   93.844">  7  8 -1 -1</clus>
<clus scale="  187.558">  1  5  2 -1</clus>
<clus scale="   22.757">  1  5  2 -1</clus>
</clustering>
</event>
<event>
 9    1  0.8429841E-005  0.1443180E+03  0.7546771E-02  0.1232827E+00
         21   -1    0    0  501  502  0.00000000000E+00  0.00000000000E+00  0.58572557462E+02  0.58572557462E+02  0.00000000000E+00 0. -1.
          1   -1    0    0  502    0 -0.00000000000E+00 -0.00000000000E+00 -0.68126211240E+03  0.68126211240E+03  0.00000000000E+00 0. -1.
        -24    2    1    2    0    0  0.29604150168E+02 -0.29417037169E-02 -0.19932654131E+03  0.21671161692E+03  0.79727342389E+02 0.  0.
         23    2    1    2    0    0 -0.11211089816E+02 -0.11063310047E+03 -0.87696187996E+02  0.16921507573E+03  0.92616137964E+02 0.  0.
         13    1    3    3    0    0  0.49346990056E+02 -0.10861221509E+02 -0.75474524706E+02  0.90826733068E+02  0.00000000000E+00 0. -1.
        -14    1    3    3    0    0 -0.19742839888E+02  0.10858279806E+02 -0.12385201660E+03  0.12588488385E+03  0.00000000000E+00 0.  1.
        -13    1    4    4    0    0 -0.28255556968E+02 -0.82782095954E+02 -0.13967741427E+02  0.88579623563E+02  0.00000000000E+00 0. -1.
         13    1    4    4    0    0  0.17044467152E+02 -0.27851004518E+02 -0.73728446569E+02  0.80635452170E+02  0.00000000000E+00 0.  1.
          2    1    1    2  501    0 -0.18393060352E+02  0.11063604218E+03 -0.33566682564E+03  0.35390797721E+03  0.00000000000E+00 0. -1.
<scales pt_clust_5="13000.00000" pt_clust_6="13000.00000" pt_clust_7="13000.00000" pt_clust_8="13000.00000" pt_clust_9="110.67952"></scales>
<clustering>
<clus scale="   79.727">  5  6 -1 -1</clus>
<clus scale="   85.046">  2  5  1 -1</clus>
<clus scale="   92.616">  7  8 -1 -1</clus>
<clus scale="  110.680">  1  9  2 -1</clus>
<clus scale="  110.680">  1  5  2 -1</clus>
</clustering>
</event>
<event>
 9    1  0.8429841E-005  0.1480034E+03  0.7546771E-02  0.1205011E+00
         21   -1    0    0  501  502  0.00000000000E+00  0.00000000000E+00  0.12917198924E+03  0.12917198924E+03  0.00000000000E+00 0. -1.
          3   -1    0    0  502    0 -0.00000000000E+00 -0.00000000000E+00 -0.31275156008E+03  0.31275156008E+03  0.00000000000E+00 0. -1.
         23    2    1    2    0    0  0.20120326609E+02  0.95512592046E+02 -0.13942059773E+03  0.19388851474E+03  0.92882561826E+02 0.  0.
        -24    2    1    2    0    0 -0.31918715342E+02 -0.15607292574E+03 -0.49841502973E+02  0.18607498989E+03  0.82232377463E+02 0.  0.
         11    1    4    4    0    0  0.15714306622E+02 -0.98978720766E+02 -0.74742098538E+01  0.10049671840E+03  0.00000000000E+00 0. -1.
        -12    1    4    4    0    0 -0.47633021964E+02 -0.57094204976E+02 -0.42367293119E+02  0.85578271480E+02  0.00000000000E+00 0.  1.
        -11    1    3    3    0    0  0.45477747339E+02  0.13124325551E+02 -0.37402552502E+02  0.60327641740E+02  0.00000000000E+00 0. -1.
         11    1    3    3    0    0 -0.25357420731E+02  0.82388266495E+02 -0.10201804523E+03  0.13356087300E+03  0.00000000000E+00 0.  1.
          4    1    1    2  501    0  0.11798388733E+02  0.60560333696E+02  0.56825298665E+01  0.61960044705E+02  0.00000000000E+00 0. -1.
<scales pt_clust_5="13000.00000" pt_clust_6="13000.00000" pt_clust_7="13000.00000" pt_clust_8="13000.00000" pt_clust_9="61.69891"></scales>
<clustering>
<clus scale="   61.699">  1  9  2 -1</clus>
<clus scale="   82.232">  5  6 -1 -1</clus>
<clus scale="   92.883">  7  8 -1 -1</clus>
<clus scale="  141.563">  1  5  2 -1</clus>
<clus scale="   61.699">  1  5  2 -1</clus>
</clustering>
</event>
<event>
 9    1  0.8429841E-005  0.1284704E+03  0.7546771E-02  0.1233239E+00
         21   -1    0    0  501  502  0.00000000000E+00  0.00000000000E+00  0.12936956547E+03  0.12936956547E+03  0.00000000000E+00 0.  1.
         -4   -1    0    0    0  501 -0.00000000000E+00 -0.00000000000E+00 -0.24129807424E+03  0.24129807424E+03  0.00000000000E+00 0.  1.
        -24    2    1    2    0    0 -0.10016705962E+03  0.47633316726E+02 -0.11640766403E+03  0.18023953305E+03  0.81444289759E+02 0.  0.
         23    2    1    2    0    0  0.55610783211E+02 -0.21947691242E+02 -0.43933565360E+02  0.11979663604E+03  0.94057511562E+02 0.  0.
         11    1    3    3    0    0 -0.14707968623E+02 -0.22192248707E+02 -0.16139586718E+02  0.31133687593E+02  0.00000000000E+00 0. -1.
        -12    1    3    3    0    0 -0.85459091000E+02  0.69825565433E+02 -0.10026807731E+03  0.14910584546E+03  0.00000000000E+00 0.  1.
        -13    1    4    4    0    0 -0.17306362194E+02  0.13511936915E+02 -0.30543632519E+02  0.37616433896E+02  0.00000000000E+00 0.  1.
         13    1    4    4    0    0  0.72917145404E+02 -0.35459628158E+02 -0.13389932841E+02  0.82180202145E+02  0.00000000000E+00 0. -1.
         -3    1    1    2    0  502  0.44556276413E+02 -0.25685625483E+02  0.48412720622E+02  0.70631470622E+02  0.00000000000E+00 0.  1.
<scales pt_clust_5="13000.00000" pt_clust_6="13000.00000" pt_clust_7="13000.00000" pt_clust_8="13000.00000" pt_clust_9="51.42969"></scales>
<clustering>
<clus scale="   51.430">  1  9  2 -1</clus>
<clus scale="   81.444">  5  6 -1 -1</clus>
<clus scale="   94.058">  7  8 -1 -1</clus>
<clus scale="  119.545">  2  5  1 -1</clus>
<clus scale="   51.430">  1  5  2 -1</clus>
</clustering>
</event>
<event>
 9    1  0.8429841E-005  0.1275798E+03  0.7546771E-02  0.1234746E+00
         21   -1    0    0  501  502  0.00000000000E+00  0.00000000000E+00  0.63164677966E+03  0.63164677966E+03  0.00000000000E+00 0. -1.
          1   -1    0    0  502    0 -0.00000000000E+00 -0.00000000000E+00 -0.20296206819E+03  0.20296206819E+03  0.00000000000E+00 0. -1.
         23    2    1    2    0    0 -0.12493212803E+02 -0.85081788305E+02 -0.17052262770E+03  0.21261498197E+03  0.93446096422E+02 0.  0.
        -24    2    1    2    0    0 -0.58309248161E+01  0.10961434009E+03  0.49854223157E+03  0.51677464707E+03  0.80388904458E+02 0.  0.
         11    1    4    4    0    0 -0.37251007344E+02  0.74173711615E+02  0.38320840076E+03  0.39209444712E+03  0.00000000000E+00 0. -1.
        -12    1    4    4    0    0  0.31420082528E+02  0.35440628473E+02  0.11533383080E+03  0.12468019995E+03  0.00000000000E+00 0.  1.
        -11    1    3    3    0    0 -0.14120071567E+02 -0.10547994130E+03 -0.14616445691E+03  0.18080222040E+03  0.00000000000E+00 0. -1.
         11    1    3    3    0    0  0.16268587637E+01  0.20398152994E+02 -0.24358170787E+02  0.31812761577E+02  0.00000000000E+00 0.  1.
          2    1    1    2  501    0  0.18324137619E+02 -0.24532551783E+02  0.10066510760E+03  0.10521921880E+03  0.00000000000E+00 0. -1.
<scales pt_clust_5="13000.00000" pt_clust_6="13000.00000" pt_clust_7="13000.00000" pt_clust_8="13000.00000" pt_clust_9="30.62058"></scales>
<clustering>
<clus scale="   30.621">  1  9  2 -1</clus>
<clus scale="   80.389">  5  6 -1 -1</clus>
<clus scale="   93.446">  7  8 -1 -1</clus>
<clus scale="  118.350">  1  5  2 -1</clus>
<clus scale="   30.621">  1  5  2 -1</clus>
</clustering>
</event>
<event>
 9    1  0.8429841E-005  0.1316588E+03  0.7546771E-02  0.1243462E+00
          1   -1    0    0  502    0 -0.00000000000E+00  0.00000000000E+00  0.11098292171E+03  0.11098292171E+03  0.00000000000E+00 0. -1.
         21   -1    0    0  501  502  0.00000000000E+00 -0.00000000000E+00 -0.26012661414E+03  0.26012661414E+03  0.00000000000E+00 0. -1.
        -24    2    1    2    0    0  0.32881128190E+02  0.30236471402E+02 -0.90835367247E+02  0.12800732568E+03  0.78354315076E+02 0.  0.
         23    2    1    2    0    0  0.62355348115E+02  0.21607678570E+02  0.12753252018E+02  0.11345827448E+03  0.91405981206E+02 0.  0.
         13    1    3    3    0    0 -0.17653657307E+02  0.14672472587E+02 -0.65437256469E+02  0.69346720199E+02  0.00000000000E+00 0. -1.
        -14    1    3    3    0    0  0.50534785497E+02  0.15563998815E+02 -0.25398110777E+02  0.58660605481E+02  0.00000000000E+00 0.  1.
        -13    1    4    4    0    0  0.41604119434E+02  0.48389705785E+02  0.35138616638E+02  0.72850454762E+02  0.00000000000E+00 0. -1.
         13    1    4    4    0    0  0.20751228681E+02 -0.26782027214E+02 -0.22385364620E+02  0.40607819723E+02  0.00000000000E+00 0.  1.
          2    1    1    2  501    0 -0.95236476305E+02 -0.51844149972E+02 -0.71061577207E+02  0.12964393569E+03  0.00000000000E+00 0. -1.
<scales pt_clust_5="13000.00000" pt_clust_6="13000.00000" pt_clust_7="13000.00000" pt_clust_8="13000.00000" pt_clust_9="94.75754"></scales>
<clustering>
<clus scale="   78.354">  5  6 -1 -1</clus>
<clus scale="   90.193">  1  5  2 -1</clus>
<clus scale="   91.406">  7  8 -1 -1</clus>
<clus scale="   94.758">  2  9  1 -1</clus>
<clus scale="   94.758">  2  5  1 -1</clus>
</clustering>
</event>
<event>
 9    1  0.8429841E-005  0.2535363E+03  0.7546771E-02  0.1142416E+00
         21   -1    0    0  501  502  0.00000000000E+00  0.00000000000E+00  0.27097630893E+03  0.27097630893E+03  0.00000000000E+00 0.  1.
          1   -1    0    0  502    0 -0.00000000000E+00 -0.00000000000E+00 -0.42995193596E+03  0.42995193596E+03  0.00000000000E+00 0. -1.
         23    2    1    2    0    0  0.68752159079E+02 -0.25736687255E+02  0.13791448054E+02  0.11772907775E+03  0.90998325584E+02 0.  0.
        -24    2    1    2    0    0 -0.23631487547E+03 -0.13418019151E+03 -0.20474945132E+03  0.34937542065E+03  0.79320883589E+02 0.  0.
         11    1    4    4    0    0 -0.54707919981E+02 -0.73303400088E+02 -0.70204947439E+02  0.11530429141E+03  0.00000000000E+00 0. -1.
        -12    1    4    4    0    0 -0.18160695549E+03 -0.60876791418E+02 -0.13454450388E+03  0.23407112923E+03  0.00000000000E+00 0.  1.
        -13    1    3    3    0    0  0.40429035004E+02  0.31433502012E+02  0.16689046450E+02  0.53861824992E+02  0.00000000000E+00 0. -1.
         13    1    3    3    0    0  0.28323124075E+02 -0.57170189267E+02 -0.28975983963E+01  0.63867252756E+02  0.00000000000E+00 0.  1.
          2    1    1    2  501    0  0.16756271639E+03  0.15991687876E+03  0.31982376236E+02  0.23382374650E+03  0.00000000000E+00 0. -1.
<scales pt_clust_5="13000.00000" pt_clust_6="13000.00000" pt_clust_7="13000.00000" pt_clust_8="13000.00000" pt_clust_9="240.80878"></scales>
<clustering>
<clus scale="   79.321">  5  6 -1 -1</clus>
<clus scale="   90.998">  7  8 -1 -1</clus>
<clus scale="  116.919">  2  7  1 -1</clus>
<clus scale="  240.809">  1  9  2 -1</clus>
<clus scale="  240.809">  1  5  2 -1</clus>
</clustering>
</event>
<event>
 9    1  0.8429841E-005  0.1223004E+03  0.7546771E-02  0.1248509E+00
         -2   -1    0    0    0  501 -0.00000000000E+00  0.00000000000E+00  0.59207224634E+03  0.59207224634E+03  0.00000000000E+00 0.  1.
         21   -1    0    0  501  502  0.00000000000E+00 -0.00000000000E+00 -0.44167855866E+02  0.44167855866E+02  0.00000000000E+00 0. -1.
         23    2    1    2    0    0 -0.70044011938E+01  0.50511771421E+02  0.18095477080E+03  0.20755657451E+03  0.87946585277E+02 0.  0.
        -24    2    1    2    0    0 -0.76296945756E+02  0.17757207941E+02  0.21904387328E+03  0.24571938431E+03  0.79128092589E+02 0.  0.
         13    1    4    4    0    0 -0.52477870446E+02  0.28742368177E+01  0.44310369418E+02  0.68742977546E+02  0.00000000000E+00 0. -1.
        -14    1    4    4    0    0 -0.23819075310E+02  0.14882971123E+02  0.17473350386E+03  0.17697640676E+03  0.00000000000E+00 0.  1.
        -13    1    3    3    0    0  0.37798340057E+02  0.40290462747E+02  0.10855621179E+03  0.12180511901E+03  0.00000000000E+00 0.  1.
         13    1    3    3    0    0 -0.44802741250E+02  0.10221308674E+02  0.72398559010E+02  0.85751455506E+02  0.00000000000E+00 0. -1.
         -1    1    1    2    0  502  0.83301346950E+02 -0.68268979362E+02  0.14790574639E+03  0.18296414338E+03  0.00000000000E+00 0.  1.
<scales pt_clust_5="13000.00000" pt_clust_6="13000.00000" pt_clust_7="13000.00000" pt_clust_8="13000.00000" pt_clust_9="93.25305"></scales>
<clustering>
<clus scale="   79.128">  5  6 -1 -1</clus>
<clus scale="   87.947">  7  8 -1 -1</clus>
<clus scale="  101.662">  1  7  2 -1</clus>
<clus scale="   93.253">  2  9  1 -1</clus>
<clus scale="   93.253">  2  5  1 -1</clus>
</clustering>
</event>
<event>
 9    1  0.8429841E-005  0.1004628E+03  0.7546771E-02  0.1284545E+00
         21   -1    0    0  501  502  0.00000000000E+00  0.00000000000E+00  0.94939084294E+02  0.94939084294E+02  0.00000000000E+00 0. -1.
         -4   -1    0    0    0  501 -0.00000000000E+00 -0.00000000000E+00 -0.44601347882E+03  0.44601347882E+03  0.00000000000E+00 0.  1.
        -24    2    1    2    0    0 -0.31874215735E+02 -0.22502928631E+02 -0.35238671354E+03  0.36365701066E+03  0.80917724248E+02 0.  0.
         23    2    1    2    0    0  0.59178448620E+02  0.15786763378E+02 -0.48364067780E+02  0.12021340625E+03  0.91437789299E+02 0.  0.
         13    1    3    3    0    0  0.32662356610E+00 -0.46012061204E+02 -0.13450918686E+03  0.14216166083E+03  0.00000000000E+00 0. -1.
        -14    1    3    3    0    0 -0.32200839302E+02  0.23509132573E+02 -0.21787752668E+03  0.22149534984E+03  0.00000000000E+00 0.  1.
        -13    1    4    4    0    0  0.79729619504E+01  0.19670534551E+02 -0.63274899986E+02  0.66739875787E+02  0.00000000000E+00 0.  1.
         13    1    4    4    0    0  0.51205486669E+02 -0.38837711735E+01  0.14910832206E+02  0.53473530467E+02  0.00000000000E+00 0. -1.
         -3    1    1    2    0  502 -0.27304232884E+02  0.67161652530E+01  0.49676386797E+02  0.57082146196E+02  0.00000000000E+00 0.  1.
<scales pt_clust_5="13000.00000" pt_clust_6="13000.00000" pt_clust_7="13000.00000" pt_clust_8="13000.00000" pt_clust_9="28.11811"></scales>
<clustering>
<clus scale="   28.118">  1  9  2 -1</clus>
<clus scale="   80.918">  5  6 -1 -1</clus>
<clus scale="   90.992">  2  5  1 -1</clus>
<clus scale="   91.438">  7  8 -1 -1</clus>
<clus scale="   28.118">  1  5  2 -1</clus>
</clustering>
</event>
<event>
 9    1  0.8429841E-005  0.3277053E+03  0.7546771E-02  0.1107871E+00
         21   -1    0    0  501  502  0.00000000000E+00  0.00000000000E+00  0.47945318166E+03  0.47945318166E+03  0.00000000000E+00 0.  1.
         -2   -1    0    0    0  501 -0.00000000000E+00 -0.00000000000E+00 -0.62352793227E+03  0.62352793227E+03  0.00000000000E+00 0.  1.
        -24    2    1    2    0    0 -0.40193126445E+02 -0.90843401559E+02 -0.38663210706E+03  0.40709877733E+03  0.79856228745E+02 0.  0.
         23    2    1    2    0    0 -0.29153820203E+03  0.93699728222E+02  0.13562568515E+03  0.34733074039E+03  0.92033441936E+02 0.  0.
         13    1    3    3    0    0  0.23553612946E+02 -0.36716759411E+02 -0.14376654064E+03  0.15023884755E+03  0.00000000000E+00 0. -1.
        -14    1    3    3    0    0 -0.63746739392E+02 -0.54126642148E+02 -0.24286556642E+03  0.25685992978E+03  0.00000000000E+00 0.  1.
        -11    1    4    4    0    0 -0.58297769558E+02  0.34882031304E+02 -0.59847029861E+01  0.68199726636E+02  0.00000000000E+00 0. -1.
         11    1    4    4    0    0 -0.23324043247E+03  0.58817696918E+02  0.14161038814E+03  0.27913101376E+03  0.00000000000E+00 0.  1.
         -1    1    1    2    0  502  0.33173132848E+03 -0.28563266632E+01  0.10693167129E+03  0.34855159621E+03  0.00000000000E+00 0.  1.
<scales pt_clust_5="13000.00000" pt_clust_6="13000.00000" pt_clust_7="13000.00000" pt_clust_8="13000.00000" pt_clust_9="314.51660"></scales>
<clustering>
<clus scale="   79.856">  5  6 -1 -1</clus>
<clus scale="   92.033">  7  8 -1 -1</clus>
<clus scale="  127.456">  2  5  1 -1</clus>
<clus scale="  314.517">  1  9  2 -1</clus>
<clus scale="  314.517">  1  5  2 -1</clus>
</clustering>
</event>
<event>
 9    1  0.8429841E-005  0.9277294E+02  0.7546771E-02  0.1297011E+00
          3   -1    0    0  502    0 -0.00000000000E+00  0.00000000000E+00  0.20226265728E+03  0.20226265728E+03  0.00000000000E+00 0. -1.
         21   -1    0    0  501  502  0.00000000000E+00 -0.00000000000E+00 -0.10192749826E+03  0.10192749826E+03  0.00000000000E+00 0.  1.
         23    2    1    2    0    0 -0.47441201975E+02 -0.16018713585E+02  0.93510547800E+02  0.13716768496E+03  0.86968295473E+02 0.  0.
        -24    2    1    2    0    0 -0.98370974243E+01 -0.21389779239E+02 -0.24002713380E+02  0.91985660556E+02  0.85620910744E+02 0.  0.
         13    1    4    4    0    0 -0.40682693247E+02 -0.35116861441E+02 -0.70399362667E+01  0.54201809840E+02  0.00000000000E+00 0. -1.
        -14    1    4    4    0    0  0.30845595823E+02  0.13727082203E+02 -0.16962777114E+02  0.37783850715E+02  0.00000000000E+00 0.  1.
        -11    1    3    3    0    0  0.91888626619E+00  0.30970637153E+02  0.42606476118E+02  0.52681462820E+02  0.00000000000E+00 0.  1.
         11    1    3    3    0    0 -0.48360088241E+02 -0.46989350739E+02  0.50904071682E+02  0.84486222139E+02  0.00000000000E+00 0. -1.
          4    1    1    2  501    0  0.57278299399E+02  0.37408492824E+02  0.30827324604E+02  0.75036810031E+02  0.00000000000E+00 0. -1.
<scales pt_clust_5="13000.00000" pt_clust_6="13000.00000" pt_clust_7="13000.00000" pt_clust_8="13000.00000" pt_clust_9="68.41201"></scales>
<clustering>
<clus scale="   68.412">  2  9  1 -1</clus>
<clus scale="   85.621">  5  6 -1 -1</clus>
<clus scale="   86.968">  7  8 -1 -1</clus>
<clus scale="   91.511">  2  5  1 -1</clus>
<clus scale="   68.412">  2  5  1 -1</clus>
</clustering>
</event>
<event>
 9    1  0.8429841E-005  0.1143061E+03  0.7546771E-02  0.1256655E+00
         21   -1    0    0  501  502  0.00000000000E+00  0.00000000000E+00  0.41867230998E+02  0.41867230998E+02  0.00000000000E+00 0. -1.
          1   -1    0    0  502    0 -0.00000000000E+00 -0.00000000000E+00 -0.48659130204E+03  0.48659130204E+03  0.00000000000E+00 0. -1.
         23    2    1    2    0    0  0.41658837207E+02  0.46616331273E+02 -0.21849047339E+03  0.24483116437E+03  0.91080574362E+02 0.  0.
        -24    2    1    2    0    0 -0.85424505005E+01 -0.86384228555E+02 -0.17148717338E+03  0.20829243857E+03  0.80266312524E+02 0.  0.
         13    1    4    4    0    0  0.14184873966E+02 -0.88311260115E+02 -0.15863192508E+03  0.18211034284E+03  0.00000000000E+00 0. -1.
        -14    1    4    4    0    0 -0.22727324467E+02  0.19270315593E+01 -0.12855248299E+02  0.26182095731E+02  0.00000000000E+00 0.  1.
        -13    1    3    3    0    0  0.70725980386E+02  0.34279431516E+02 -0.16377825348E+03  0.18166056270E+03  0.00000000000E+00 0. -1.
         13    1    3    3    0    0 -0.29067143180E+02  0.12336899757E+02 -0.54712219910E+02  0.63170601673E+02  0.00000000000E+00 0.  1.
          2    1    1    2  501    0 -0.33116386706E+02  0.39767897283E+02 -0.54746424269E+02  0.75334930099E+02  0.00000000000E+00 0. -1.
<scales pt_clust_5="13000.00000" pt_clust_6="13000.00000" pt_clust_7="13000.00000" pt_clust_8="13000.00000" pt_clust_9="51.75114"></scales>
<clustering>
<clus scale="   51.751">  1  9  2 -1</clus>
<clus scale="   80.266">  5  6 -1 -1</clus>
<clus scale="   91.081">  7  8 -1 -1</clus>
<clus scale="  105.891">  1  5  2 -1</clus>
<clus scale="   51.751">  1  5  2 -1</clus>
</clustering>
</event>
<event>
 9    1  0.8429841E-005  0.1041739E+03  0.7546771E-02  0.1274966E+00
          1   -1    0    0  502    0 -0.00000000000E+00  0.00000000000E+00  0.22300984525E+03  0.22300984525E+03  0.00000000000E+00 0. -1.
         21   -1    0    0  501  502  0.00000000000E+00 -0.00000000000E+00 -0.19254081141E+03  0.19254081141E+03  0.00000000000E+00 0. -1.
         23    2    1    2    0    0 -0.45548981447E+02  0.26595359443E+02  0.18116799252E+03  0.20960403811E+03  0.91268770262E+02 0.  0.
        -24    2    1    2    0    0  0.11014948214E+02 -0.24438671406E+02 -0.14658858153E+03  0.17110202133E+03  0.84078009752E+02 0.  0.
         11    1    4    4    0    0  0.63851711997E+01 -0.55648702308E+02 -0.10365752765E+03  0.11782373071E+03  0.00000000000E+00 0. -1.
        -12    1    4    4    0    0  0.46297770141E+01  0.31210030902E+02 -0.42931053880E+02  0.53278290620E+02  0.00000000000E+00 0.  1.
        -13    1    3    3    0    0 -0.45922784914E+02 -0.25804265141E+02  0.82451709563E+02  0.97841947464E+02  0.00000000000E+00 0. -1.
         13    1    3    3    0    0  0.37380346694E+00  0.52399624584E+02  0.98716282952E+02  0.11176209065E+03  0.00000000000E+00 0.  1.
          2    1    1    2  501    0  0.34534033233E+02 -0.21566880364E+01 -0.41103771466E+01  0.34844597213E+02  0.00000000000E+00 0. -1.
<scales pt_clust_5="13000.00000" pt_clust_6="13000.00000" pt_clust_7="13000.00000" pt_clust_8="13000.00000" pt_clust_9="34.60131"></scales>
<clustering>
<clus scale="   34.601">  2  9  1 -1</clus>
<clus scale="   84.078">  5  6 -1 -1</clus>
<clus scale="   91.269">  7  8 -1 -1</clus>
<clus scale="   97.935">  2  5  1 -1</clus>
<clus scale="   34.601">  2  5  1 -1</clus>
</clustering>
</event>
<event>
 9    1  0.8429841E-005  0.4238061E+03  0.7546771E-02  0.1074811E+00
         21   -1    0    0  501  502  0.00000000000E+00  0.00000000000E+00  0.14687607111E+03  0.14687607111E+03  0.00000000000E+00 0. -1.
         -2   -1    0    0    0  501 -0.00000000000E+00 -0.00000000000E+00 -0.16724245649E+04  0.16724245649E+04  0.00000000000E+00 0.  1.
        -24    2    1    2    0    0  0.54167802935E+02  0.10196897493E+03 -0.16553540577E+03  0.21739842555E+03  0.80797785523E+02 0.  0.
         23    2    1    2    0    0 -0.33038478781E+03 -0.33677677203E+03 -0.70024158703E+03  0.84908818440E+03  0.89664722632E+02 0.  0.
         11    1    3    3    0    0  0.39077664691E+02  0.26725481025E+02 -0.17168553163E+02  0.50359452255E+02  0.00000000000E+00 0. -1.
        -12    1    3    3    0    0  0.15090138244E+02  0.75243493909E+02 -0.14836685261E+03  0.16703897330E+03  0.00000000000E+00 0.  1.
        -13    1    4    4    0    0 -0.32983765781E+02 -0.86477941374E+01 -0.80110356775E+02  0.87065391581E+02  0.00000000000E+00 0.  1.
         13    1    4    4    0    0 -0.29740102203E+03 -0.32812897789E+03 -0.62013123026E+03  0.76202279282E+03  0.00000000000E+00 0. -1.
         -1    1    1    2    0  502  0.27621698487E+03  0.23480779710E+03 -0.65977150100E+03  0.75281402607E+03  0.00000000000E+00 0.  1.
<scales pt_clust_5="13000.00000" pt_clust_6="13000.00000" pt_clust_7="13000.00000" pt_clust_8="13000.00000" pt_clust_9="414.21233"></scales>
<clustering>
<clus scale="   80.798">  5  6 -1 -1</clus>
<clus scale="   89.665">  7  8 -1 -1</clus>
<clus scale="  140.926">  2  5  1 -1</clus>
<clus scale="  414.212">  1  9  2 -1</clus>
<clus scale="  414.212">  1  5  2 -1</clus>
</clustering>
</event>
<event>
 9    1  0.8429841E-005  0.1131825E+03  0.7546771E-02  0.1257787E+00
         -4   -1    0    0    0  501 -0.00000000000E+00  0.00000000000E+00  0.47391126989E+02  0.47391126989E+02  0.00000000000E+00 0.  1.
         21   -1    0    0  501  502  0.00000000000E+00 -0.00000000000E+00 -0.38858491934E+03  0.38858491934E+03  0.00000000000E+00 0. -1.
         23    2    1    2    0    0  0.70077460231E+02  0.29823258106E+02 -0.97561428215E+02  0.15173664521E+03  0.87780977820E+02 0.  0.
        -24    2    1    2    0    0 -0.50236890082E+02 -0.38573540751E+02 -0.24212237398E+03  0.26250243398E+03  0.79199878093E+02 0.  0.
         11    1    4    4    0    0  0.45088047959E+00 -0.41131839459E+02 -0.16594170698E+03  0.17096397757E+03  0.00000000000E+00 0. -1.
        -12    1    4    4    0    0 -0.50687770561E+02  0.25582987078E+01 -0.76180667001E+02  0.91538456407E+02  0.00000000000E+00 0.  1.
        -11    1    3    3    0    0 -0.12411116219E+02  0.28892105747E+02 -0.41194033244E+02  0.51824105928E+02  0.00000000000E+00 0. -1.
         11    1    3    3    0    0  0.82488576450E+02  0.93115235875E+00 -0.56367394971E+02  0.99912539280E+02  0.00000000000E+00 0.  1.
         -3    1    1    2    0  502 -0.19840570149E+02  0.87502826457E+01 -0.15099901506E+01  0.21736967141E+02  0.00000000000E+00 0.  1.
<scales pt_clust_5="13000.00000" pt_clust_6="13000.00000" pt_clust_7="13000.00000" pt_clust_8="13000.00000" pt_clust_9="21.68447"></scales>
<clustering>
<clus scale="   21.684">  2  9  1 -1</clus>
<clus scale="   79.200">  5  6 -1 -1</clus>
<clus scale="   87.781">  7  8 -1 -1</clus>
<clus scale="  106.665">  2  5  1 -1</clus>
<clus scale="   21.684">  2  5  1 -1</clus>
</clustering>
</event>
<event>
 9    1  0.8429841E-005  0.1381132E+03  0.7546771E-02  0.1218086E+00
          1   -1    0    0  502    0 -0.00000000000E+00  0.00000000000E+00  0.38735757799E+03  0.38735757799E+03  0.00000000000E+00 0. -1.
         21   -1    0    0  501  502  0.00000000000E+00 -0.00000000000E+00 -0.87814890552E+02  0.87814890552E+02  0.00000000000E+00 0. -1.
        -24    2    1    2    0    0 -0.82708601941E+02  0.54250561309E+02  0.24396775841E+03  0.27503016143E+03  0.79608330711E+02 0.  0.
         23    2    1    2    0    0  0.11711369090E+03 -0.53168464540E+02  0.53637960142E+02  0.16566575090E+03  0.89585757985E+02 0.  0.
         11    1    3    3    0    0 -0.84326673815E+02  0.70628132659E+02  0.20311418530E+03  0.23098634875E+03  0.00000000000E+00 0. -1.
        -12    1    3    3    0    0  0.16180718744E+01 -0.16377571350E+02  0.40853573105E+02  0.44043812680E+02  0.00000000000E+00 0.  1.
        -13    1    4    4    0    0  0.20675118194E+02  0.24609486295E+02  0.17558274525E+02  0.36624859485E+02  0.00000000000E+00 0.  1.
         13    1    4    4    0    0  0.96438572709E+02 -0.77777950835E+02  0.36079685617E+02  0.12904089141E+03  0.00000000000E+00 0. -1.
          2    1    1    2  501    0 -0.34405088962E+02 -0.10820967683E+01  0.19369688905E+01  0.34476556214E+02  0.00000000000E+00 0. -1.
<scales pt_clust_5="13000.00000" pt_clust_6="13000.00000" pt_clust_7="13000.00000" pt_clust_8="13000.00000" pt_clust_9="34.42210"></scales>
<clustering>
<clus scale="   34.422">  2  9  1 -1</clus>
<clus scale="   79.608">  5  6 -1 -1</clus>
<clus scale="   89.586">  7  8 -1 -1</clus>
<clus scale="  131.860">  1  5  2 -1</clus>
<clus scale="   34.422">  2  5  1 -1</clus>
</clustering>
</event>
<event>
 9    1  0.8429841E-005  0.9125123E+02  0.7546771E-02  0.1305051E+00
          1   -1    0    0  502    0 -0.00000000000E+00  0.00000000000E+00  0.59247918977E+02  0.59247918977E+02  0.00000000000E+00 0. -1.
         21   -1    0    0  501  502  0.00000000000E+00 -0.00000000000E+00 -0.38231821560E+03  0.38231821560E+03  0.00000000000E+00 0.  1.
         23    2    1    2    0    0 -0.43735785817E+01 -0.56550433575E+01 -0.30938554855E+02  0.95943582327E+02  0.90536562273E+02 0.  0.
        -24    2    1    2    0    0  0.25273829687E+02 -0.58405723627E+02 -0.23620359120E+03  0.25805223542E+03  0.82151230614E+02 0.  0.
         11    1    4    4    0    0 -0.12916037681E+02 -0.62648461321E+02 -0.12534457508E+03  0.14072283481E+03  0.00000000000E+00 0. -1.
        -12    1    4    4    0    0  0.38189867368E+02  0.42427376944E+01 -0.11085901613E+03  0.11732940062E+03  0.00000000000E+00 0.  1.
        -13    1    3    3    0    0 -0.29113268210E+02 -0.36656797553E+02 -0.20152833265E+01  0.46854717581E+02  0.00000000000E+00 0.  1.
         13    1    3    3    0    0  0.24739689628E+02  0.31001754196E+02 -0.28923271528E+02  0.49088864746E+02  0.00000000000E+00 0. -1.
          2    1    1    2  501    0 -0.20900251106E+02  0.64060766984E+02 -0.55928150564E+02  0.87570316823E+02  0.00000000000E+00 0. -1.
<scales pt_clust_5="13000.00000" pt_clust_6="13000.00000" pt_clust_7="13000.00000" pt_clust_8="13000.00000" pt_clust_9="67.38403"></scales>
<clustering>
<clus scale="   67.384">  2  9  1 -1</clus>
<clus scale="   82.151">  5  6 -1 -1</clus>
<clus scale="   82.938">  2  5  1 -1</clus>
<clus scale="   90.537">  7  8 -1 -1</clus>
<clus scale="   67.384">  2  5  1 -1</clus>
</clustering>
</event>
<event>
 9    1  0.8429841E-005  0.1013451E+03  0.7546771E-02  0.1279309E+00
         21   -1    0    0  501  502  0.00000000000E+00  0.00000000000E+00  0.75671678798E+02  0.75671678798E+02  0.00000000000E+00 0. -1.
         -2   -1    0    0    0  501 -0.00000000000E+00 -0.00000000000E+00 -0.46737888595E+03  0.46737888595E+03  0.00000000000E+00 0.  1.
        -24    2    1    2    0    0  0.28456046979E+02 -0.19734702006E+02 -0.38408606039E+03  0.39691057643E+03  0.93897278051E+02 0.  0.
         23    2    1    2    0    0 -0.59027902074E+02  0.25716178312E+02 -0.20068642002E+02  0.11259365438E+03  0.90160776201E+02 0.  0.
         11    1    3    3    0    0  0.19142613657E+02  0.37184150545E+02 -0.14070659780E+03  0.14679048802E+03  0.00000000000E+00 0. -1.
        -12    1    3    3    0    0  0.93134333221E+01 -0.56918852551E+02 -0.24337946258E+03  0.25012008840E+03  0.00000000000E+00 0.  1.
        -13    1    4    4    0    0 -0.32072814353E+02 -0.19839675353E+02 -0.40968532847E+02  0.55683918884E+02  0.00000000000E+00 0.  1.
         13    1    4    4    0    0 -0.26955087721E+02  0.45555853665E+02  0.20899890845E+02  0.56909735499E+02  0.00000000000E+00 0. -1.
         -1    1    1    2    0  502  0.30571855095E+02 -0.59814763053E+01  0.12447495238E+02  0.33546333935E+02  0.00000000000E+00 0.  1.
<scales pt_clust_5="13000.00000" pt_clust_6="13000.00000" pt_clust_7="13000.00000" pt_clust_8="13000.00000" pt_clust_9="31.15151"></scales>
<clustering>
<clus scale="   31.152">  1  9  2 -1</clus>
<clus scale="   90.161">  7  8 -1 -1</clus>
<clus scale="   93.897">  5  6 -1 -1</clus>
<clus scale="   97.893">  1  7  2 -1</clus>
<clus scale="   31.152">  1  5  2 -1</clus>
</clustering>
</event>
<event>
 9    1  0.8429841E-005  0.1044462E+03  0.7546771E-02  0.1274950E+00
          1   -1    0    0  502    0 -0.00000000000E+00  0.00000000000E+00  0.46370788042E+03  0.46370788042E+03  0.00000000000E+00 0. -1.
         21   -1    0    0  501  502  0.00000000000E+00 -0.00000000000E+00 -0.15625143026E+03  0.15625143026E+03  0.00000000000E+00 0. -1.
         23    2    1    2    0    0  0.56152958896E+01 -0.56843504476E+02  0.40450051485E+03  0.41818585357E+03  0.89420501349E+02 0.  0.
        -24    2    1    2    0    0 -0.48202889488E+02  0.22970351094E+02 -0.77327581199E+01  0.97190460746E+02  0.80839560411E+02 0.  0.
         11    1    4    4    0    0 -0.65689755711E+02  0.71845375873E+01  0.11128738941E+02  0.67012016954E+02  0.00000000000E+00 0. -1.
        -12    1    4    4    0    0  0.17486866223E+02  0.15785813506E+02 -0.18861497061E+02  0.30178443793E+02  0.00000000000E+00 0.  1.
        -11    1    3    3    0    0  0.42302615018E+02 -0.86610793501E+01  0.21318815554E+03  0.21751716069E+03  0.00000000000E+00 0. -1.
         11    1    3    3    0    0 -0.36687319129E+02 -0.48182425126E+02  0.19131235931E+03  0.20066869288E+03  0.00000000000E+00 0.  1.
          2    1    1    2  501    0  0.42587593599E+02  0.33873153382E+02 -0.89311306565E+02  0.10458299637E+03  0.00000000000E+00 0. -1.
<scales pt_clust_5="13000.00000" pt_clust_6="13000.00000" pt_clust_7="13000.00000" pt_clust_8="13000.00000" pt_clust_9="54.41593"></scales>
<clustering>
<clus scale="   54.416">  2  9  1 -1</clus>
<clus scale="   80.840">  5  6 -1 -1</clus>
<clus scale="   89.421">  7  8 -1 -1</clus>
<clus scale="   97.201">  2  5  1 -1</clus>
<clus scale="   54.416">  2  5  1 -1</clus>
</clustering>
</event>
<event>
 9    1  0.8429841E-005  0.9176269E+02  0.7546771E-02  0.1303550E+00
         -4   -1    0    0    0  501 -0.00000000000E+00  0.00000000000E+00  0.30434521264E+03  0.30434521264E+03  0.00000000000E+00 0.  1.
         21   -1    0    0  501  502  0.00000000000E+00 -0.00000000000E+00 -0.13132448279E+03  0.13132448279E+03  0.00000000000E+00 0. -1.
         23    2    1    2    0    0  0.59084079675E+01 -0.22293596577E+02  0.20574122543E+03  0.22603586886E+03  0.90724023495E+02 0.  0.
        -24    2    1    2    0    0  0.60338950138E+01 -0.33379310845E+01  0.66577661398E+02  0.10638791726E+03  0.82693737786E+02 0.  0.
         11    1    4    4    0    0  0.29316463683E+02 -0.14147648015E+02  0.72998547754E+02  0.79927460622E+02  0.00000000000E+00 0. -1.
        -12    1    4    4    0    0 -0.23282568669E+02  0.10809716931E+02 -0.64208863565E+01  0.26460456640E+02  0.00000000000E+00 0.  1.
        -13    1    3    3    0    0  0.37998887385E+02 -0.36183251119E+02  0.81190866024E+02  0.96670056532E+02  0.00000000000E+00 0. -1.
         13    1    3    3    0    0 -0.32090479418E+02  0.13889654542E+02  0.12455035940E+03  0.12936581233E+03  0.00000000000E+00 0.  1.
         -3    1    1    2    0  502 -0.11942302981E+02  0.25631527662E+02 -0.99298156977E+02  0.10324590931E+03  0.00000000000E+00 0.  1.
<scales pt_clust_5="13000.00000" pt_clust_6="13000.00000" pt_clust_7="13000.00000" pt_clust_8="13000.00000" pt_clust_9="28.27709"></scales>
<clustering>
<clus scale="   28.277">  2  9  1 -1</clus>
<clus scale="   82.694">  5  6 -1 -1</clus>
<clus scale="   83.832">  2  5  1 -1</clus>
<clus scale="   90.724">  7  8 -1 -1</clus>
<clus scale="   28.277">  2  5  1 -1</clus>
</clustering>
</event>
<event>
 9    1  0.8429841E-005  0.1273253E+03  0.7546771E-02  0.1234477E+00
          1   -1    0    0  502    0 -0.00000000000E+00  0.00000000000E+00  0.93572392611E+02  0.93572392611E+02  0.00000000000E+00 0. -1.
         21   -1    0    0  501  502  0.00000000000E+00 -0.00000000000E+00 -0.38121407210E+03  0.38121407210E+03  0.00000000000E+00 0. -1.
        -24    2    1    2    0    0 -0.10553937768E+03 -0.46016215113E+02 -0.37918028182E+02  0.14530673638E+03  0.80126265861E+02 0.  0.
         23    2    1    2    0    0  0.17135360021E+02  0.25284427123E+02 -0.20887026405E+03  0.22991027206E+03  0.91098974622E+02 0.  0.
         11    1    3    3    0    0 -0.72280258888E+02 -0.44233427826E+02  0.11701614466E+02  0.85545074337E+02  0.00000000000E+00 0. -1.
        -12    1    3    3    0    0 -0.33259118796E+02 -0.17827872869E+01 -0.49619642648E+02  0.59761662043E+02  0.00000000000E+00 0.  1.
        -13    1    4    4    0    0 -0.20657001827E+02  0.44807052389E+02 -0.77948013513E+02  0.92251159770E+02  0.00000000000E+00 0.  1.
         13    1    4    4    0    0  0.37792361848E+02 -0.19522625266E+02 -0.13092225053E+03  0.13765911229E+03  0.00000000000E+00 0. -1.
          2    1    1    2  501    0  0.88404017663E+02  0.20731787989E+02 -0.40853387263E+02  0.99569456276E+02  0.00000000000E+00 0. -1.
<scales pt_clust_5="13000.00000" pt_clust_6="13000.00000" pt_clust_7="13000.00000" pt_clust_8="13000.00000" pt_clust_9="90.80245"></scales>
<clustering>
<clus scale="   80.126">  5  6 -1 -1</clus>
<clus scale="   90.802">  2  9  1 -1</clus>
<clus scale="   91.099">  7  8 -1 -1</clus>
<clus scale="  119.720">  1  5  2 -1</clus>
<clus scale="   90.802">  2  5  1 -1</clus>
</clustering>
</event>
<event>
 9    1  0.8429841E-005  0.2345710E+03  0.7546771E-02  0.1123828E+00
          1   -1    0    0  502    0 -0.00000000000E+00  0.00000000000E+00  0.11412338800E+04  0.11412338800E+04  0.00000000000E+00 0. -1.
         21   -1    0    0  501  502  0.00000000000E+00 -0.00000000000E+00 -0.16028059417E+03  0.16028059417E+03  0.00000000000E+00 0. -1.
        -24    2    1    2    0    0  0.22840334015E+03 -0.29692425057E+02  0.99258427601E+03  0.10222369963E+04  0.81824237071E+02 0.  0.
         23    2    1    2    0    0 -0.15387023873E+03  0.33603195954E+02  0.44776831043E+02  0.18572364498E+03  0.87653194801E+02 0.  0.
         13    1    3    3    0    0  0.19541261059E+03 -0.38997527027E+02  0.92765094051E+03  0.94881144751E+03  0.00000000000E+00 0. -1.
        -14    1    3    3    0    0  0.32990729565E+02  0.93051019701E+01  0.64933335499E+02  0.73425548816E+02  0.00000000000E+00 0.  1.
        -11    1    4    4    0    0 -0.58562740026E+02  0.14599419331E+02 -0.25777725853E+02  0.65629480527E+02  0.00000000000E+00 0. -1.
         11    1    4    4    0    0 -0.95307498707E+02  0.19003776624E+02  0.70554556897E+02  0.12009416445E+03  0.00000000000E+00 0.  1.
          2    1    1    2  501    0 -0.74533101420E+02 -0.39107708970E+01 -0.56407821272E+02  0.93553832829E+02  0.00000000000E+00 0. -1.
<scales pt_clust_5="13000.00000" pt_clust_6="13000.00000" pt_clust_7="13000.00000" pt_clust_8="13000.00000" pt_clust_9="74.63563"></scales>
<clustering>
<clus scale="   74.636">  2  9  1 -1</clus>
<clus scale="   81.824">  5  6 -1 -1</clus>
<clus scale="   87.653">  7  8 -1 -1</clus>
<clus scale="  232.456">  1  5  2 -1</clus>
<clus scale="   74.636">  2  5  1 -1</clus>
</clustering>
</event>
<event>
 9    1  0.1066979E-004  0.1183683E+03  0.7546771E-02  0.1248504E+00
         21   -1    0    0  501  502  0.00000000000E+00  0.00000000000E+00  0.42942631137E+03  0.42942631137E+03  0.00000000000E+00 0.  1.
          3   -1    0    0  502    0 -0.00000000000E+00 -0.00000000000E+00 -0.18588518886E+03  0.18588518886E+03  0.00000000000E+00 0. -1.
        -24    2    1    2    0    0  0.57760656360E+02 -0.48534443808E+02 -0.20737431579E+02  0.11224122342E+03  0.80474626483E+02 0.  0.
         23    2    1    2    0    0 -0.12250228155E+03  0.24007348394E+01  0.35290615730E+03  0.38401294109E+03  0.88941613180E+02 0.  0.
         11    1    3    3    0    0  0.14931987558E+02  0.22315715807E+02 -0.10462182808E+02  0.28816882092E+02  0.00000000000E+00 0. -1.
        -12    1    3    3    0    0  0.42828668803E+02 -0.70850159615E+02 -0.10275248771E+02  0.83424341329E+02  0.00000000000E+00 0.  1.
        -13    1    4    4    0    0 -0.10433171628E+03 -0.10165171133E+02  0.34495923791E+03  0.36053476052E+03  0.00000000000E+00 0.  1.
         13    1    4    4    0    0 -0.18170565271E+02  0.12565905973E+02  0.79469193910E+01  0.23478180573E+02  0.00000000000E+00 0. -1.
          4    1    1    2  501    0  0.64741625191E+02  0.46133708969E+02 -0.88627603218E+02  0.11905733572E+03  0.00000000000E+00 0. -1.
<scales pt_clust_5="13000.00000" pt_clust_6="13000.00000" pt_clust_7="13000.00000" pt_clust_8="13000.00000" pt_clust_9="79.49719"></scales>
<clustering>
<clus scale="   79.497">  1  9  2 -1</clus>
<clus scale="   80.475">  5  6 -1 -1</clus>
<clus scale="   88.942">  7  8 -1 -1</clus>
<clus scale="  112.146">  2  5  1 -1</clus>
<clus scale="   79.497">  1  5  2 -1</clus>
</clustering>
</event>
<event>
 9    1  0.8429841E-005  0.1524869E+03  0.7546771E-02  0.1199342E+00
         21   -1    0    0  501  502  0.00000000000E+00  0.00000000000E+00  0.67109175199E+02  0.67109175199E+02  0.00000000000E+00 0. -1.
          3   -1    0    0  502    0 -0.00000000000E+00 -0.00000000000E+00 -0.41806819381E+03  0.41806819381E+03  0.00000000000E+00 0. -1.
        -24    2    1    2    0    0  0.34640173254E+02  0.12426261102E+03 -0.23663932758E+03  0.28043804587E+03  0.77499600743E+02 0.  0.
         23    2    1    2    0    0 -0.48627913008E+02 -0.10555753476E+03 -0.93736112563E+02  0.17360701766E+03  0.88576919764E+02 0.  0.
         11    1    3    3    0    0  0.23559041906E+02  0.95902605576E+02 -0.22849095434E+03  0.24891856987E+03  0.00000000000E+00 0. -1.
        -12    1    3    3    0    0  0.11081131347E+02  0.28360005447E+02 -0.81483732355E+01  0.31519475999E+02  0.00000000000E+00 0.  1.
        -11    1    4    4    0    0 -0.30359947533E+02  0.75271696367E+01 -0.15671790437E+02  0.34985564343E+02  0.00000000000E+00 0.  1.
         11    1    4    4    0    0 -0.18267965476E+02 -0.11308470440E+03 -0.78064322127E+02  0.13862145332E+03  0.00000000000E+00 0. -1.
          4    1    1    2  501    0  0.13987739755E+02 -0.18705076262E+02 -0.20583578469E+02  0.31132305472E+02  0.00000000000E+00 0. -1.
<scales pt_clust_5="13000.00000" pt_clust_6="13000.00000" pt_clust_7="13000.00000" pt_clust_8="13000.00000" pt_clust_9="23.35673"></scales>
<clustering>
<clus scale="   23.357">  1  9  2 -1</clus>
<clus scale="   77.500">  5  6 -1 -1</clus>
<clus scale="   88.577">  7  8 -1 -1</clus>
<clus scale="  146.330">  2  5  1 -1</clus>
<clus scale="   23.357">  1  5  2 -1</clus>
</clustering>
</event>
<event>
 9    1  0.8429841E-005  0.9353373E+02  0.7546771E-02  0.1302942E+00
         21   -1    0    0  501  502  0.00000000000E+00  0.00000000000E+00  0.29248989056E+02  0.29248989056E+02  0.00000000000E+00 0. -1.
          1   -1    0    0  502    0 -0.00000000000E+00 -0.00000000000E+00 -0.49818217194E+03  0.49818217194E+03  0.00000000000E+00 0. -1.
         23    2    1    2    0    0 -0.33538990432E+02  0.13358414298E+02 -0.31069673684E+03  0.32565927257E+03  0.90654224502E+02 0.  0.
        -24    2    1    2    0    0 -0.37075383160E+01  0.79681201042E+01 -0.72441541024E+02  0.10584019032E+03  0.76662456536E+02 0.  0.
         11    1    4    4    0    0 -0.29414094861E+02  0.15333877638E+02 -0.53290247135E+01  0.33596358200E+02  0.00000000000E+00 0. -1.
        -12    1    4    4    0    0  0.25706556545E+02 -0.73657575338E+01 -0.67112516310E+02  0.72243832117E+02  0.00000000000E+00 0.  1.
        -13    1    3    3    0    0 -0.28639631532E+02  0.44658037626E+02 -0.26368547749E+03  0.26896951474E+03  0.00000000000E+00 0. -1.
         13    1    3    3    0    0 -0.48993589007E+01 -0.31299623328E+02 -0.47011259346E+02  0.56689757835E+02  0.00000000000E+00 0.  1.
          2    1    1    2  501    0  0.37246528748E+02 -0.21326534403E+02 -0.85794905024E+02  0.95931698106E+02  0.00000000000E+00 0. -1.
<scales pt_clust_5="13000.00000" pt_clust_6="13000.00000" pt_clust_7="13000.00000" pt_clust_8="13000.00000" pt_clust_9="42.92000"></scales>
<clustering>
<clus scale="   42.920">  1  9  2 -1</clus>
<clus scale="   76.662">  5  6 -1 -1</clus>
<clus scale="   80.047">  1  5  2 -1</clus>
<clus scale="   90.654">  7  8 -1 -1</clus>
<clus scale="   42.920">  1  5  2 -1</clus>
</clustering>
</event>
<event>
 9    1  0.8429841E-005  0.1432267E+03  0.7546771E-02  0.1233156E+00
         21   -1    0    0  501  502  0.00000000000E+00  0.00000000000E+00  0.20341410994E+03  0.20341410994E+03  0.00000000000E+00 0.  1.
         -2   -1    0    0    0  501 -0.00000000000E+00 -0.00000000000E+00 -0.14327566100E+03  0.14327566100E+03  0.00000000000E+00 0.  1.
        -24    2    1    2    0    0  0.30418703635E+02 -0.18929936463E+02  0.45247963634E+01  0.86536963290E+02  0.78641796826E+02 0.  0.
         23    2    1    2    0    0 -0.63360190903E+02  0.10870196217E+03  0.48878028227E+02  0.16429078797E+03  0.93657733256E+02 0.  0.
         11    1    3    3    0    0  0.79374618796E+01  0.19664294690E+02 -0.25162271939E+02  0.32906347653E+02  0.00000000000E+00 0. -1.
        -12    1    3    3    0    0  0.22481241755E+02 -0.38594231153E+02  0.29687068302E+02  0.53630615636E+02  0.00000000000E+00 0.  1.
        -13    1    4    4    0    0 -0.83293123570E+02  0.10597087938E+03  0.50883626359E+02  0.14407190962E+03  0.00000000000E+00 0.  1.
         13    1    4    4    0    0  0.19932932667E+02  0.27310827901E+01 -0.20055981329E+01  0.20218878352E+02  0.00000000000E+00 0. -1.
         -1    1    1    2    0  502  0.32941487268E+02 -0.89772025704E+02  0.67356243491E+01  0.95862019683E+02  0.00000000000E+00 0.  1.
<scales pt_clust_5="13000.00000" pt_clust_6="13000.00000" pt_clust_7="13000.00000" pt_clust_8="13000.00000" pt_clust_9="108.36116"></scales>
<clustering>
<clus scale="   78.642">  5  6 -1 -1</clus>
<clus scale="   86.419">  2  5  1 -1</clus>
<clus scale="   93.658">  7  8 -1 -1</clus>
<clus scale="  108.361">  1  9  2 -1</clus>
<clus scale="  108.361">  1  5  2 -1</clus>
</clustering>
</event>
<event>
 9    1  0.8429841E-005  0.8981456E+02  0.7546771E-02  0.1304203E+00
         21   -1    0    0  501  502  0.00000000000E+00  0.00000000000E+00  0.32780088589E+03  0.32780088589E+03  0.00000000000E+00 0.  1.
         -4   -1    0    0    0  501 -0.00000000000E+00 -0.00000000000E+00 -0.54327098919E+03  0.54327098919E+03  0.00000000000E+00 0.  1.
        -24    2    1    2    0    0  0.35103400972E+02  0.57172490253E+01 -0.49169079800E+03  0.49986751324E+03  0.82720942037E+02 0.  0.
         23    2    1    2    0    0  0.44861212464E+02 -0.31040027039E+02  0.21031003785E+02  0.10258313998E+03  0.84291077976E+02 0.  0.
         13    1    3    3    0    0  0.43501430549E+02  0.24154704386E+01 -0.11358830409E+03  0.12165735400E+03  0.00000000000E+00 0. -1.
        -14    1    3    3    0    0 -0.83980295774E+01  0.33017785867E+01 -0.37810249392E+03  0.37821015923E+03  0.00000000000E+00 0.  1.
        -13    1    4    4    0    0  0.69723838781E+02 -0.19880675914E+02  0.20422412797E+02  0.75324165536E+02  0.00000000000E+00 0.  1.
         13    1    4    4    0    0 -0.24862626318E+02 -0.11159351125E+02  0.60859098807E+00  0.27258974448E+02  0.00000000000E+00 0. -1.
         -3    1    1    2    0  502 -0.79964613435E+02  0.25322778014E+02  0.25518969092E+03  0.26862122187E+03  0.00000000000E+00 0.  1.
<scales pt_clust_5="13000.00000" pt_clust_6="13000.00000" pt_clust_7="13000.00000" pt_clust_8="13000.00000" pt_clust_9="83.87838"></scales>
<clustering>
<clus scale="   82.721">  5  6 -1 -1</clus>
<clus scale="   83.878">  1  9  2 -1</clus>
<clus scale="   84.291">  7  8 -1 -1</clus>
<clus scale="   88.343">  2  5  1 -1</clus>
<clus scale="   83.878">  1  5  2 -1</clus>
</clustering>
</event>
<event>
 9    1  0.1156468E-004  0.1013593E+03  0.7546771E-02  0.1284823E+00
         21   -1    0    0  501  502  0.00000000000E+00  0.00000000000E+00  0.25775435859E+03  0.25775435859E+03  0.00000000000E+00 0.  1.
         -2   -1    0    0    0  501 -0.00000000000E+00 -0.00000000000E+00 -0.27996119254E+03  0.27996119254E+03  0.00000000000E+00 0.  1.
        -24    2    1    2    0    0 -0.35416448673E+02  0.33026924207E+01 -0.21011681143E+03  0.22784800007E+03  0.80625083431E+02 0.  0.
         23    2    1    2    0    0  0.30570910577E+02 -0.51160504579E+02  0.22350601521E+03  0.25002670108E+03  0.94902237148E+02 0.  0.
         13    1    3    3    0    0  0.11031210310E+02 -0.21644063657E+02 -0.23030897469E+02  0.33474995605E+02  0.00000000000E+00 0. -1.
        -14    1    3    3    0    0 -0.46447658983E+02  0.24946756078E+02 -0.18708591396E+03  0.19437300447E+03  0.00000000000E+00 0.  1.
        -13    1    4    4    0    0  0.33551959825E+02  0.73082744260E+01  0.23453780086E+02  0.41583947426E+02  0.00000000000E+00 0. -1.
         13    1    4    4    0    0 -0.29810492478E+01 -0.58468779005E+02  0.20005223512E+03  0.20844275365E+03  0.00000000000E+00 0.  1.
         -1    1    1    2    0  502  0.48455380963E+01  0.47857812159E+02 -0.35596037729E+02  0.59840849978E+02  0.00000000000E+00 0.  1.
<scales pt_clust_5="13000.00000" pt_clust_6="13000.00000" pt_clust_7="13000.00000" pt_clust_8="13000.00000" pt_clust_9="48.10251"></scales>
<clustering>
<clus scale="   48.103">  1  9  2 -1</clus>
<clus scale="   80.625">  5  6 -1 -1</clus>
<clus scale="   88.134">  2  5  1 -1</clus>
<clus scale="   94.902">  7  8 -1 -1</clus>
<clus scale="   48.103">  1  5  2 -1</clus>
</clustering>
</event>
<event>
 9    1  0.8429841E-005  0.1332309E+03  0.7546771E-02  0.1224553E+00
          3   -1    0    0  502    0 -0.00000000000E+00  0.00000000000E+00  0.55790967451E+03  0.55790967451E+03  0.00000000000E+00 0. -1.
         21   -1    0    0  501  502  0.00000000000E+00 -0.00000000000E+00 -0.66836358891E+02  0.66836358891E+02  0.00000000000E+00 0. -1.
         23    2    1    2    0    0  0.67294217116E+02 -0.87272807025E+02  0.43156270663E+03  0.45468363884E+03  0.91355279917E+02 0.  0.
        -24    2    1    2    0    0 -0.44385465818E+02  0.34136487628E+02  0.31187753784E+02  0.10563830395E+03  0.83972649780E+02 0.  0.
         13    1    4    4    0    0 -0.68154320854E+02  0.23946749014E+02  0.11527878454E+02  0.73152923531E+02  0.00000000000E+00 0. -1.
        -14    1    4    4    0    0  0.23768855036E+02  0.10189738614E+02  0.19659875330E+02  0.32485380415E+02  0.00000000000E+00 0.  1.
        -13    1    3    3    0    0  0.38495400962E+02 -0.60882837981E+02  0.39386667108E+03  0.40039926379E+03  0.00000000000E+00 0. -1.
         13    1    3    3    0    0  0.28798816154E+02 -0.26389969044E+02  0.37696035550E+02  0.54284375046E+02  0.00000000000E+00 0.  1.
          4    1    1    2  501    0 -0.22908751297E+02  0.53136319397E+02  0.28322855206E+02  0.64424090619E+02  0.00000000000E+00 0. -1.
<scales pt_clust_5="13000.00000" pt_clust_6="13000.00000" pt_clust_7="13000.00000" pt_clust_8="13000.00000" pt_clust_9="57.86432"></scales>
<clustering>
<clus scale="   57.864">  2  9  1 -1</clus>
<clus scale="   83.973">  5  6 -1 -1</clus>
<clus scale="   91.355">  7  8 -1 -1</clus>
<clus scale="  128.281">  2  5  1 -1</clus>
<clus scale="   57.864">  2  5  1 -1</clus>
</clustering>
</event>
<event>
 9    1  0.8429841E-005  0.1081055E+03  0.7546771E-02  0.1268049E+00
         -2   -1    0    0    0  501 -0.00000000000E+00  0.00000000000E+00  0.64002200086E+03  0.64002200086E+03  0.00000000000E+00 0.  1.
         21   -1    0    0  501  502  0.00000000000E+00 -0.00000000000E+00 -0.45764427090E+02  0.45764427090E+02  0.00000000000E+00 0.  1.
        -24    2    1    2    0    0  0.45977557247E+02 -0.32770287294E+02  0.28985017787E+03  0.30625281583E+03  0.81177793106E+02 0.  0.
         23    2    1    2    0    0  0.14906627348E+02  0.99970517388E+02  0.17663697431E+03  0.22285548508E+03  0.90816488875E+02 0.  0.
         11    1    3    3    0    0 -0.22474146749E+02 -0.17772954639E+02  0.76546575436E+02  0.81733367725E+02  0.00000000000E+00 0. -1.
        -12    1    3    3    0    0  0.68451703996E+02 -0.14997332656E+02  0.21330360243E+03  0.22451944811E+03  0.00000000000E+00 0.  1.
        -13    1    4    4    0    0  0.30555290783E+02  0.28919768284E+01  0.16258648654E+02  0.34732304572E+02  0.00000000000E+00 0. -1.
         13    1    4    4    0    0 -0.15648663436E+02  0.97078540560E+02  0.16037832566E+03  0.18812318051E+03  0.00000000000E+00 0.  1.
         -1    1    1    2    0  502 -0.60884184595E+02 -0.67200230094E+02  0.12777042159E+03  0.15667812703E+03  0.00000000000E+00 0.  1.
<scales pt_clust_5="13000.00000" pt_clust_6="13000.00000" pt_clust_7="13000.00000" pt_clust_8="13000.00000" pt_clust_9="90.67941"></scales>
<clustering>
<clus scale="   81.178">  5  6 -1 -1</clus>
<clus scale="   90.679">  2  9  1 -1</clus>
<clus scale="   90.816">  7  8 -1 -1</clus>
<clus scale="  100.145">  1  5  2 -1</clus>
<clus scale="   90.679">  2  5  1 -1</clus>
</clustering>
</event>
<event>
 9    1  0.8429841E-005  0.9807251E+02  0.7546771E-02  0.1285479E+00
         21   -1    0    0  501  502  0.00000000000E+00  0.00000000000E+00  0.12250807947E+03  0.12250807947E+03  0.00000000000E+00 0. -1.
         -2   -1    0    0    0  501 -0.00000000000E+00 -0.00000000000E+00 -0.27449619637E+03  0.27449619637E+03  0.00000000000E+00 0.  1.
        -24    2    1    2    0    0 -0.21602446250E+02 -0.20569144694E+02 -0.17846324494E+03  0.20233933192E+03  0.90566660821E+02 0.  0.
         23    2    1    2    0    0  0.67513420982E+02  0.62417234817E+02  0.34186539933E+02  0.13206665224E+03  0.88424588812E+02 0.  0.
         13    1    3    3    0    0  0.26929926707E+02 -0.35105788432E+02 -0.92989452778E+02  0.10297900593E+03  0.00000000000E+00 0. -1.
        -14    1    3    3    0    0 -0.48532372956E+02  0.14536643738E+02 -0.85473792158E+02  0.99360325995E+02  0.00000000000E+00 0.  1.
        -13    1    4    4    0    0  0.74022639019E+02  0.10191726204E+02  0.23819686352E+02  0.78425759979E+02  0.00000000000E+00 0. -1.
         13    1    4    4    0    0 -0.65092180378E+01  0.52225508613E+02  0.10366853581E+02  0.53640892261E+02  0.00000000000E+00 0.  1.
         -1    1    1    2    0  502 -0.45910974732E+02 -0.41848090123E+02 -0.77114118892E+01  0.62598291679E+02  0.00000000000E+00 0.  1.
<scales pt_clust_5="13000.00000" pt_clust_6="13000.00000" pt_clust_7="13000.00000" pt_clust_8="13000.00000" pt_clust_9="62.12150"></scales>
<clustering>
<clus scale="   62.121">  1  9  2 -1</clus>
<clus scale="   88.425">  7  8 -1 -1</clus>
<clus scale="   90.567">  5  6 -1 -1</clus>
<clus scale="   96.098">  1  7  2 -1</clus>
<clus scale="   62.121">  1  5  2 -1</clus>
</clustering>
</event>
<event>
 9    1  0.8429841E-005  0.9872185E+02  0.7546771E-02  0.1290009E+00
         21   -1    0    0  501  502  0.00000000000E+00  0.00000000000E+00  0.69279610729E+03  0.69279610729E+03  0.00000000000E+00 0.  1.
         -4   -1    0    0    0  501 -0.00000000000E+00 -0.00000000000E+00 -0.21973343372E+02  0.21973343372E+02  0.00000000000E+00 0.  1.
        -24    2    1    2    0    0 -0.68935185501E+01  0.11624338426E+02  0.17471255268E+03  0.19298647073E+03  0.80849588613E+02 0.  0.
         23    2    1    2    0    0  0.24270655465E+02 -0.52303386213E+02  0.27362778397E+03  0.29494563676E+03  0.93787288881E+02 0.  0.
         11    1    3    3    0    0  0.17277581781E+02  0.35894941605E+02  0.13392183141E+03  0.13972121741E+03  0.00000000000E+00 0. -1.
        -12    1    3    3    0    0 -0.24171100331E+02 -0.24270603180E+02  0.40790721268E+02  0.53265253323E+02  0.00000000000E+00 0.  1.
        -13    1    4    4    0    0 -0.32855520588E+01 -0.55177580534E+02  0.25646648666E+03  0.26235552029E+03  0.00000000000E+00 0.  1.
         13    1    4    4    0    0  0.27556207523E+02  0.28741943215E+01  0.17161297310E+02  0.32590116468E+02  0.00000000000E+00 0. -1.
         -3    1    1    2    0  502 -0.17377136914E+02  0.40679047787E+02  0.22248242726E+03  0.22683734317E+03  0.00000000000E+00 0.  1.
<scales pt_clust_5="13000.00000" pt_clust_6="13000.00000" pt_clust_7="13000.00000" pt_clust_8="13000.00000" pt_clust_9="44.23516"></scales>
<clustering>
<clus scale="   44.235">  1  9  2 -1</clus>
<clus scale="   80.850">  5  6 -1 -1</clus>
<clus scale="   86.525">  2  5  1 -1</clus>
<clus scale="   93.787">  7  8 -1 -1</clus>
<clus scale="   44.235">  1  5  2 -1</clus>
</clustering>
</event>
<event>
 9    1  0.8429841E-005  0.1119254E+03  0.7546771E-02  0.1262181E+00
         -2   -1    0    0    0  501 -0.00000000000E+00  0.00000000000E+00  0.13569124995E+03  0.13569124995E+03  0.00000000000E+00 0.  1.
         21   -1    0    0  501  502  0.00000000000E+00 -0.00000000000E+00 -0.11838045110E+03  0.11838045110E+03  0.00000000000E+00 0.  1.
         23    2    1    2    0    0  0.10571346937E+02  0.68368456937E+02  0.34421701805E+02  0.12110115419E+03  0.93245035846E+02 0.  0.
        -24    2    1    2    0    0 -0.56398369292E+00 -0.50339533998E+02 -0.39565496238E+02  0.10248451496E+03  0.80020375861E+02 0.  0.
         11    1    4    4    0    0  0.31005791590E+02 -0.17851525629E+02  0.81458750272E+01  0.36693205902E+02  0.00000000000E+00 0. -1.
        -12    1    4    4    0    0 -0.31569775283E+02 -0.32488008370E+02 -0.47711371266E+02  0.65791309056E+02  0.00000000000E+00 0.  1.
        -11    1    3    3    0    0  0.24434177088E+02  0.87218275358E+02  0.36405264633E+02  0.97618645039E+02  0.00000000000E+00 0.  1.
         11    1    3    3    0    0 -0.13862830151E+02 -0.18849818421E+02 -0.19835628279E+01  0.23482509146E+02  0.00000000000E+00 0. -1.
         -1    1    1    2    0  502 -0.10007363244E+02 -0.18028922938E+02  0.22454593288E+02  0.30486031902E+02  0.00000000000E+00 0.  1.
<scales pt_clust_5="13000.00000" pt_clust_6="13000.00000" pt_clust_7="13000.00000" pt_clust_8="13000.00000" pt_clust_9="20.62013"></scales>
<clustering>
<clus scale="   20.620">  2  9  1 -1</clus>
<clus scale="   80.020">  5  6 -1 -1</clus>
<clus scale="   93.245">  7  8 -1 -1</clus>
<clus scale="  101.173">  2  5  1 -1</clus>
<clus scale="   20.620">  2  5  1 -1</clus>
</clustering>
</event>
<event>
 9    1  0.8429841E-005  0.1017816E+03  0.7546771E-02  0.1282155E+00
          1   -1    0    0  502    0 -0.00000000000E+00  0.00000000000E+00  0.11914881926E+03  0.11914881926E+03  0.00000000000E+00 0. -1.
         21   -1    0    0  501  502  0.00000000000E+00 -0.00000000000E+00 -0.33241422046E+03  0.33241422046E+03  0.00000000000E+00 0. -1.
         23    2    1    2    0    0 -0.26260901739E+02 -0.54099166863E+02  0.65226607332E+02  0.12687935360E+03  0.90705596573E+02 0.  0.
        -24    2    1    2    0    0  0.96995596935E+01 -0.26859776001E+02 -0.13191914495E+03  0.15642129337E+03  0.79053343948E+02 0.  0.
         11    1    4    4    0    0  0.12028437326E+02 -0.54721231884E+02 -0.90912926791E+02  0.10679071486E+03  0.00000000000E+00 0. -1.
        -12    1    4    4    0    0 -0.23288776325E+01  0.27861455882E+02 -0.41006218160E+02  0.49630578505E+02  0.00000000000E+00 0.  1.
        -13    1    3    3    0    0 -0.33654484265E+01  0.24269029087E+02  0.39945456156E+01  0.24824753989E+02  0.00000000000E+00 0.  1.
         13    1    3    3    0    0 -0.22895453312E+02 -0.78368195951E+02  0.61232061716E+02  0.10205459961E+03  0.00000000000E+00 0. -1.
          2    1    1    2  501    0  0.16561342045E+02  0.80958942865E+02 -0.14657286358E+03  0.16826239276E+03  0.00000000000E+00 0. -1.
<scales pt_clust_5="13000.00000" pt_clust_6="13000.00000" pt_clust_7="13000.00000" pt_clust_8="13000.00000" pt_clust_9="82.63552"></scales>
<clustering>
<clus scale="   79.053">  5  6 -1 -1</clus>
<clus scale="   82.636">  2  9  1 -1</clus>
<clus scale="   90.706">  7  8 -1 -1</clus>
<clus scale="   91.550">  2  5  1 -1</clus>
<clus scale="   82.636">  2  5  1 -1</clus>
</clustering>
</event>
<event>
 9    1  0.8429841E-005  0.9080394E+02  0.7546771E-02  0.1301095E+00
          1   -1    0    0  502    0 -0.00000000000E+00  0.00000000000E+00  0.38116016024E+03  0.38116016024E+03  0.00000000000E+00 0. -1.
         21   -1    0    0  501  502  0.00000000000E+00 -0.00000000000E+00 -0.10086121834E+03  0.10086121834E+03  0.00000000000E+00 0.  1.
         23    2    1    2    0    0  0.14551015987E+02 -0.19830271424E+02  0.33474453684E+03  0.34677007858E+03  0.87124111040E+02 0.  0.
        -24    2    1    2    0    0 -0.46511652593E+01  0.40443752361E+02 -0.27172883699E+02  0.99660241873E+02  0.86812831762E+02 0.  0.
         11    1    4    4    0    0 -0.29493592516E+02  0.49905047228E+02  0.46972385782E+01  0.58158832421E+02  0.00000000000E+00 0. -1.
        -12    1    4    4    0    0  0.24842427257E+02 -0.94612948675E+01 -0.31870122277E+02  0.41501409452E+02  0.00000000000E+00 0.  1.
        -11    1    3    3    0    0 -0.34990038338E+02 -0.97520826388E+01  0.93989542904E+02  0.10076427975E+03  0.00000000000E+00 0.  1.
         11    1    3    3    0    0  0.49541054325E+02 -0.10078188785E+02  0.24075499393E+03  0.24600579883E+03  0.00000000000E+00 0. -1.
          2    1    1    2  501    0 -0.98998507280E+01 -0.20613480936E+02 -0.27272711237E+02  0.35591058132E+02  0.00000000000E+00 0. -1.
<scales pt_clust_5="13000.00000" pt_clust_6="13000.00000" pt_clust_7="13000.00000" pt_clust_8="13000.00000" pt_clust_9="22.86750"></scales>
<clustering>
<clus scale="   22.868">  2  9  1 -1</clus>
<clus scale="   86.813">  5  6 -1 -1</clus>
<clus scale="   87.124">  7  8 -1 -1</clus>
<clus scale="   90.505">  2  5  1 -1</clus>
<clus scale="   22.868">  2  5  1 -1</clus>
</clustering>
</event>
<event>
 9    1  0.8429841E-005  0.1088029E+03  0.7546771E-02  0.1266280E+00
         21   -1    0    0  501  502  0.00000000000E+00  0.00000000000E+00  0.29422902060E+02  0.29422902060E+02  0.00000000000E+00 0.  1.
          1   -1    0    0  502    0 -0.00000000000E+00 -0.00000000000E+00 -0.58930871682E+03  0.58930871682E+03  0.00000000000E+00 0. -1.
         23    2    1    2    0    0 -0.41206912458E+02 -0.65105861859E+02 -0.25780797747E+03  0.28368268173E+03  0.89856150521E+02 0.  0.
        -24    2    1    2    0    0  0.29858640060E+02  0.32233436621E+02 -0.12933284753E+03  0.15883823624E+03  0.81068286140E+02 0.  0.
         11    1    4    4    0    0  0.30518236723E+02  0.34883782724E+02 -0.14018457870E+03  0.14764808558E+03  0.00000000000E+00 0. -1.
        -12    1    4    4    0    0 -0.65959666299E+00 -0.26503461022E+01  0.10851731173E+02  0.11190150654E+02  0.00000000000E+00 0.  1.
        -11    1    3    3    0    0 -0.31081395122E+02 -0.87062198808E+02 -0.22197404548E+03  0.24045447895E+03  0.00000000000E+00 0. -1.
         11    1    3    3    0    0 -0.10125517337E+02  0.21956336949E+02 -0.35833931990E+02  0.43228202777E+02  0.00000000000E+00 0.  1.
          2    1    1    2  501    0  0.11348272399E+02  0.32872425238E+02 -0.17274498976E+03  0.17621070091E+03  0.00000000000E+00 0. -1.
<scales pt_clust_5="13000.00000" pt_clust_6="13000.00000" pt_clust_7="13000.00000" pt_clust_8="13000.00000" pt_clust_9="34.77615"></scales>
<clustering>
<clus scale="   34.776">  1  9  2 -1</clus>
<clus scale="   81.068">  5  6 -1 -1</clus>
<clus scale="   89.856">  7  8 -1 -1</clus>
<clus scale="  101.666">  1  5  2 -1</clus>
<clus scale="   34.776">  1  5  2 -1</clus>
</clustering>
</event>
<event>
 9    1  0.8429841E-005  0.1126995E+03  0.7546771E-02  0.1260259E+00
         21   -1    0    0  501  502  0.00000000000E+00  0.00000000000E+00  0.22620196417E+03  0.22620196417E+03  0.00000000000E+00 0. -1.
          1   -1    0    0  502    0 -0.00000000000E+00 -0.00000000000E+00 -0.19539888462E+03  0.19539888462E+03  0.00000000000E+00 0. -1.
         23    2    1    2    0    0  0.63967192477E+02 -0.28050597924E+02 -0.12829293410E+03  0.17181284883E+03  0.90454078537E+02 0.  0.
        -24    2    1    2    0    0 -0.24479879163E+02  0.74096770322E+02  0.42170638135E+02  0.11806464841E+03  0.77918564080E+02 0.  0.
         13    1    4    4    0    0  0.24308619969E+02  0.48111858693E+01  0.39056931311E+01  0.25086070898E+02  0.00000000000E+00 0. -1.
        -14    1    4    4    0    0 -0.48788499132E+02  0.69285584453E+02  0.38264945004E+02  0.92978577515E+02  0.00000000000E+00 0.  1.
        -13    1    3    3    0    0 -0.10414385962E+02 -0.37254083707E+02 -0.35218622330E+02  0.52313263582E+02  0.00000000000E+00 0.  1.
         13    1    3    3    0    0  0.74381578439E+02  0.92034857828E+01 -0.93074311773E+02  0.11949958525E+03  0.00000000000E+00 0. -1.
          2    1    1    2  501    0 -0.39487313314E+02 -0.46046172398E+02  0.11692537551E+03  0.13172335155E+03  0.00000000000E+00 0. -1.
<scales pt_clust_5="13000.00000" pt_clust_6="13000.00000" pt_clust_7="13000.00000" pt_clust_8="13000.00000" pt_clust_9="60.65887"></scales>
<clustering>
<clus scale="   60.659">  1  9  2 -1</clus>
<clus scale="   77.919">  5  6 -1 -1</clus>
<clus scale="   90.454">  7  8 -1 -1</clus>
<clus scale="  102.910">  1  5  2 -1</clus>
<clus scale="   60.659">  1  5  2 -1</clus>
</clustering>
</event>
<event>
 9    1  0.8429841E-005  0.1146518E+03  0.7546771E-02  0.1257011E+00
         21   -1    0    0  501  502  0.00000000000E+00  0.00000000000E+00  0.82918851012E+02  0.82918851012E+02  0.00000000000E+00 0.  1.
          1   -1    0    0  502    0 -0.00000000000E+00 -0.00000000000E+00 -0.26612388357E+03  0.26612388357E+03  0.00000000000E+00 0. -1.
        -24    2    1    2    0    0 -0.21912361482E+02  0.84157648203E+02 -0.85865034028E+02  0.14530955065E+03  0.78609160434E+02 0.  0.
         23    2    1    2    0    0  0.12080840236E+02 -0.37007811389E+02 -0.55399840578E+01  0.10006540409E+03  0.92015590346E+02 0.  0.
         13    1    3    3    0    0 -0.40209891659E+02  0.40501367565E+02 -0.13186787009E+02  0.58575485602E+02  0.00000000000E+00 0. -1.
        -14    1    3    3    0    0  0.18297530177E+02  0.43656280638E+02 -0.72678247019E+02  0.86734065046E+02  0.00000000000E+00 0.  1.
        -11    1    4    4    0    0  0.25028716078E+02 -0.48820977094E+01  0.37169662756E+02  0.45076106043E+02  0.00000000000E+00 0.  1.
         11    1    4    4    0    0 -0.12947875842E+02 -0.32125713680E+02 -0.42709646814E+02  0.54989298043E+02  0.00000000000E+00 0. -1.
          2    1    1    2  501    0  0.98315212455E+01 -0.47149836814E+02 -0.91800014473E+02  0.10366777985E+03  0.00000000000E+00 0. -1.
<scales pt_clust_5="13000.00000" pt_clust_6="13000.00000" pt_clust_7="13000.00000" pt_clust_8="13000.00000" pt_clust_9="48.16397"></scales>
<clustering>
<clus scale="   48.164">  1  9  2 -1</clus>
<clus scale="   78.609">  5  6 -1 -1</clus>
<clus scale="   92.016">  7  8 -1 -1</clus>
<clus scale="  104.200">  2  5  1 -1</clus>
<clus scale="   48.164">  1  5  2 -1</clus>
</clustering>
</event>
<event>
 9    1  0.8429841E-005  0.1293693E+03  0.7546771E-02  0.1231754E+00
         21   -1    0    0  501  502  0.00000000000E+00  0.00000000000E+00  0.23666687688E+03  0.23666687688E+03  0.00000000000E+00 0. -1.
          1   -1    0    0  502    0 -0.00000000000E+00 -0.00000000000E+00 -0.16415905279E+03  0.16415905279E+03  0.00000000000E+00 0. -1.
        -24    2    1    2    0    0 -0.38611146901E+02  0.92468344200E+02 -0.37350098377E+02  0.13363382529E+03  0.80135847596E+02 0.  0.
         23    2    1    2    0    0 -0.44172537260E+02 -0.86690076809E+02  0.63446834645E+01  0.13452139402E+03  0.92678843193E+02 0.  0.
         13    1    3    3    0    0 -0.31272914370E+02  0.65762227280E+02 -0.62695928605E+02  0.96090817322E+02  0.00000000000E+00 0. -1.
        -14    1    3    3    0    0 -0.73382325316E+01  0.26706116920E+02  0.25345830229E+02  0.37543007972E+02  0.00000000000E+00 0.  1.
        -11    1    4    4    0    0  0.12045049891E+02 -0.73339223339E+02  0.15770322340E+02  0.75976496192E+02  0.00000000000E+00 0. -1.
         11    1    4    4    0    0 -0.56217587151E+02 -0.13350853470E+02 -0.94256388754E+01  0.58544897828E+02  0.00000000000E+00 0.  1.
          2    1    1    2  501    0  0.82783684162E+02 -0.57782673910E+01  0.10351323900E+03  0.13267071035E+03  0.00000000000E+00 0. -1.
<scales pt_clust_5="13000.00000" pt_clust_6="13000.00000" pt_clust_7="13000.00000" pt_clust_8="13000.00000" pt_clust_9="82.98510"></scales>
<clustering>
<clus scale="   80.136">  5  6 -1 -1</clus>
<clus scale="   82.985">  1  9  2 -1</clus>
<clus scale="   92.679">  7  8 -1 -1</clus>
<clus scale="  120.701">  2  5  1 -1</clus>
<clus scale="   82.985">  1  5  2 -1</clus>
</clustering>
</event>
<event>
 9    1  0.8429841E-005  0.1139344E+03  0.7546771E-02  0.1258275E+00
         21   -1    0    0  501  502  0.00000000000E+00  0.00000000000E+00  0.29618838186E+02  0.29618838186E+02  0.00000000000E+00 0.  1.
         -2   -1    0    0    0  501 -0.00000000000E+00 -0.00000000000E+00 -0.73985334615E+03  0.73985334615E+03  0.00000000000E+00 0.  1.
        -24    2    1    2    0    0  0.30206317875E+02  0.70714474869E+02 -0.37943953851E+03  0.39547662787E+03  0.80712088398E+02 0.  0.
         23    2    1    2    0    0 -0.59236272826E+01 -0.35972839475E+02 -0.10927974215E+03  0.14846146543E+03  0.93646196569E+02 0.  0.
         11    1    3    3    0    0 -0.22150383679E+02  0.79286266718E+01 -0.40688673619E+02  0.47000752961E+02  0.00000000000E+00 0. -1.
        -12    1    3    3    0    0  0.52356701554E+02  0.62785848197E+02 -0.33875086489E+03  0.34847587491E+03  0.00000000000E+00 0.  1.
        -11    1    4    4    0    0 -0.44926085877E+02 -0.37308438696E+01 -0.29128846777E+02  0.53672731464E+02  0.00000000000E+00 0.  1.
         11    1    4    4    0    0  0.39002458594E+02 -0.32241995606E+02 -0.80150895373E+02  0.94788733962E+02  0.00000000000E+00 0. -1.
         -1    1    1    2    0  502 -0.24282690593E+02 -0.34741635394E+02 -0.22151522730E+03  0.22553409103E+03  0.00000000000E+00 0.  1.
<scales pt_clust_5="13000.00000" pt_clust_6="13000.00000" pt_clust_7="13000.00000" pt_clust_8="13000.00000" pt_clust_9="42.38670"></scales>
<clustering>
<clus scale="   42.387">  1  9  2 -1</clus>
<clus scale="   80.712">  5  6 -1 -1</clus>
<clus scale="   93.646">  7  8 -1 -1</clus>
<clus scale="  103.566">  2  5  1 -1</clus>
<clus scale="   42.387">  1  5  2 -1</clus>
</clustering>
</event>
<event>
 9    1  0.8429841E-005  0.1578749E+03  0.7546771E-02  0.1193636E+00
          1   -1    0    0  502    0 -0.00000000000E+00  0.00000000000E+00  0.11119222559E+03  0.11119222559E+03  0.00000000000E+00 0. -1.
         21   -1    0    0  501  502  0.00000000000E+00 -0.00000000000E+00 -0.49140746151E+03  0.49140746151E+03  0.00000000000E+00 0.  1.
         23    2    1    2    0    0 -0.34093062925E+02 -0.10799107557E+03 -0.53686816825E+01  0.14829489993E+03  0.95593646544E+02 0.  0.
        -24    2    1    2    0    0  0.63401199274E+02  0.15021961680E+03 -0.19264989687E+03  0.26499594292E+03  0.80766463712E+02 0.  0.
         13    1    4    4    0    0  0.56073447364E+02  0.46804448149E+02 -0.49446631873E+02  0.88203499190E+02  0.00000000000E+00 0. -1.
        -14    1    4    4    0    0  0.73277519106E+01  0.10341516865E+03 -0.14320326500E+03  0.17679244373E+03  0.00000000000E+00 0.  1.
        -13    1    3    3    0    0  0.33116977054E+02 -0.27394248936E+02  0.25435971465E+01  0.43054023394E+02  0.00000000000E+00 0.  1.
         13    1    3    3    0    0 -0.67210039979E+02 -0.80596826635E+02 -0.79122788291E+01  0.10524087654E+03  0.00000000000E+00 0. -1.
          2    1    1    2  501    0 -0.29308136350E+02 -0.42228541230E+02 -0.18219665737E+03  0.18930884424E+03  0.00000000000E+00 0. -1.
<scales pt_clust_5="13000.00000" pt_clust_6="13000.00000" pt_clust_7="13000.00000" pt_clust_8="13000.00000" pt_clust_9="51.40250"></scales>
<clustering>
<clus scale="   51.402">  2  9  1 -1</clus>
<clus scale="   80.766">  5  6 -1 -1</clus>
<clus scale="   95.594">  7  8 -1 -1</clus>
<clus scale="  149.364">  2  5  1 -1</clus>
<clus scale="   51.402">  2  5  1 -1</clus>
</clustering>
</event>
<event>
 9    1  0.8429841E-005  0.1017322E+03  0.7546771E-02  0.1287520E+00
         -2   -1    0    0    0  501 -0.00000000000E+00  0.00000000000E+00  0.55734139214E+03  0.55734139214E+03  0.00000000000E+00 0.  1.
         21   -1    0    0  501  502  0.00000000000E+00 -0.00000000000E+00 -0.16042803404E+03  0.16042803404E+03  0.00000000000E+00 0.  1.
        -24    2    1    2    0    0  0.30834885691E+02 -0.22796382817E+02  0.40157410860E+03  0.41076757104E+03  0.77445254672E+02 0.  0.
         23    2    1    2    0    0  0.59584438886E+01  0.46985539308E+01  0.13206385982E+03  0.16426118267E+03  0.97382203706E+02 0.  0.
         13    1    3    3    0    0 -0.90237762395E+00  0.22210493395E+02  0.47594118729E+02  0.52529234144E+02  0.00000000000E+00 0. -1.
        -14    1    3    3    0    0  0.31737263315E+02 -0.45006876212E+02  0.35397998988E+03  0.35823833689E+03  0.00000000000E+00 0.  1.
        -13    1    4    4    0    0  0.51019125580E+02  0.10666587603E+02  0.74259889859E+02  0.90726283446E+02  0.00000000000E+00 0.  1.
         13    1    4    4    0    0 -0.45060681692E+02 -0.59680336726E+01  0.57803969958E+02  0.73534899221E+02  0.00000000000E+00 0. -1.
         -1    1    1    2    0  502 -0.36793329580E+02  0.18097828887E+02 -0.13672461032E+03  0.14274067248E+03  0.00000000000E+00 0.  1.
<scales pt_clust_5="13000.00000" pt_clust_6="13000.00000" pt_clust_7="13000.00000" pt_clust_8="13000.00000" pt_clust_9="41.00342"></scales>
<clustering>
<clus scale="   41.003">  2  9  1 -1</clus>
<clus scale="   77.445">  5  6 -1 -1</clus>
<clus scale="   82.849">  1  5  2 -1</clus>
<clus scale="   97.382">  7  8 -1 -1</clus>
<clus scale="   41.003">  2  5  1 -1</clus>
</clustering>
</event>
<event>
 9    1  0.8429841E-005  0.1651587E+03  0.7546771E-02  0.1203736E+00
         21   -1    0    0  501  502  0.00000000000E+00  0.00000000000E+00  0.86743709629E+02  0.86743709629E+02  0.00000000000E+00 0. -1.
          3   -1    0    0  502    0 -0.00000000000E+00 -0.00000000000E+00 -0.90477029573E+03  0.90477029573E+03  0.00000000000E+00 0. -1.
         23    2    1    2    0    0 -0.53595362467E+02 -0.24730158801E+01  0.10653123017E+02  0.10525235562E+03  0.89922136581E+02 0.  0.
        -24    2    1    2    0    0 -0.89970275855E+02 -0.77638395773E+02 -0.47363064744E+03  0.49499605327E+03  0.81072384473E+02 0.  0.
         13    1    4    4    0    0 -0.85736123337E+02 -0.26530063780E+02 -0.34593966363E+03  0.35739163113E+03  0.00000000000E+00 0. -1.
        -14    1    4    4    0    0 -0.42341525182E+01 -0.51108331993E+02 -0.12769098381E+03  0.13760442214E+03  0.00000000000E+00 0.  1.
        -13    1    3    3    0    0  0.24365795677E+02 -0.34730738147E+01 -0.64237318992E+01  0.25436559756E+02  0.00000000000E+00 0.  1.
         13    1    3    3    0    0 -0.77961158144E+02  0.10000579345E+01  0.17076854916E+02  0.79815795861E+02  0.00000000000E+00 0. -1.
          4    1    1    2  501    0  0.14356563832E+03  0.80111411653E+02 -0.35504906168E+03  0.39126559648E+03  0.00000000000E+00 0. -1.
<scales pt_clust_5="13000.00000" pt_clust_6="13000.00000" pt_clust_7="13000.00000" pt_clust_8="13000.00000" pt_clust_9="143.89112"></scales>
<clustering>
<clus scale="   81.072">  5  6 -1 -1</clus>
<clus scale="   89.922">  7  8 -1 -1</clus>
<clus scale="  104.712">  2  7  1 -1</clus>
<clus scale="  143.891">  1  9  2 -1</clus>
<clus scale="  143.891">  1  5  2 -1</clus>
</clustering>
</event>
<event>
 9    1  0.8429841E-005  0.1802566E+03  0.7546771E-02  0.1198947E+00
          1   -1    0    0  502    0 -0.00000000000E+00  0.00000000000E+00  0.14432532466E+04  0.14432532466E+04  0.00000000000E+00 0. -1.
         21   -1    0    0  501  502  0.00000000000E+00 -0.00000000000E+00 -0.35752104372E+02  0.35752104372E+02  0.00000000000E+00 0. -1.
        -24    2    1    2    0    0 -0.34752642898E+01 -0.40738097561E+02  0.48564356568E+03  0.49379453621E+03  0.79446214806E+02 0.  0.
         23    2    1    2    0    0 -0.65839386488E+02 -0.12274189839E+03  0.38041350172E+03  0.41539337378E+03  0.91852186975E+02 0.  0.
         11    1    3    3    0    0  0.77122018038E+01  0.23167109713E+02  0.12517100658E+03  0.12753028627E+03  0.00000000000E+00 0. -1.
        -12    1    3    3    0    0 -0.11187466094E+02 -0.63905207274E+02  0.36047255910E+03  0.36626424994E+03  0.00000000000E+00 0.  1.
        -11    1    4    4    0    0 -0.77941088634E+02 -0.98980104796E+02  0.36116068101E+03  0.38250347966E+03  0.00000000000E+00 0. -1.
         11    1    4    4    0    0  0.12101702146E+02 -0.23761793598E+02  0.19252820709E+02  0.32889894118E+02  0.00000000000E+00 0.  1.
          2    1    1    2  501    0  0.69314650778E+02  0.16347999595E+03  0.54144407485E+03  0.56981744101E+03  0.00000000000E+00 0. -1.
<scales pt_clust_5="13000.00000" pt_clust_6="13000.00000" pt_clust_7="13000.00000" pt_clust_8="13000.00000" pt_clust_9="155.09880"></scales>
<clustering>
<clus scale="   79.446">  5  6 -1 -1</clus>
<clus scale="   89.350">  1  5  2 -1</clus>
<clus scale="   91.852">  7  8 -1 -1</clus>
<clus scale="  155.099">  2  9  1 -1</clus>
<clus scale="  155.099">  2  5  1 -1</clus>
</clustering>
</event>
<event>
 9    1  0.8429841E-005  0.9755256E+02  0.7546771E-02  0.1291097E+00
          1   -1    0    0  502    0 -0.00000000000E+00  0.00000000000E+00  0.46869429786E+03  0.46869429786E+03  0.00000000000E+00 0. -1.
         21   -1    0    0  501  502  0.00000000000E+00 -0.00000000000E+00 -0.45557157522E+02  0.45557157522E+02  0.00000000000E+00 0.  1.
        -24    2    1    2    0    0  0.25374897153E+02 -0.39143378137E+02  0.27797879545E+03  0.29349690955E+03  0.81805474982E+02 0.  0.
         23    2    1    2    0    0  0.10060972766E+02  0.13013304963E+02  0.14964288251E+03  0.17649855552E+03  0.92131311375E+02 0.  0.
         11    1    3    3    0    0  0.50922428019E+01 -0.49789107222E+02  0.25887760472E+03  0.26367119744E+03  0.00000000000E+00 0. -1.
        -12    1    3    3    0    0  0.20282654352E+02  0.10645729085E+02  0.19101190727E+02  0.29825712104E+02  0.00000000000E+00 0.  1.
        -13    1    4    4    0    0 -0.18503028289E+02 -0.31997972856E+02  0.85140518725E+02  0.92817779825E+02  0.00000000000E+00 0. -1.
         13    1    4    4    0    0  0.28564001055E+02  0.45011277819E+02  0.64502363789E+02  0.83680775699E+02  0.00000000000E+00 0.  1.
          2    1    1    2  501    0 -0.35435869919E+02  0.26130073174E+02 -0.44845376228E+01  0.44255990314E+02  0.00000000000E+00 0. -1.
<scales pt_clust_5="13000.00000" pt_clust_6="13000.00000" pt_clust_7="13000.00000" pt_clust_8="13000.00000" pt_clust_9="44.02819"></scales>
<clustering>
<clus scale="   44.028">  2  9  1 -1</clus>
<clus scale="   81.805">  5  6 -1 -1</clus>
<clus scale="   87.866">  1  5  2 -1</clus>
<clus scale="   92.131">  7  8 -1 -1</clus>
<clus scale="   44.028">  2  5  1 -1</clus>
</clustering>
</event>
<event>
 9    1  0.8429841E-005  0.1392928E+03  0.7546771E-02  0.1235890E+00
          1   -1    0    0  502    0 -0.00000000000E+00  0.00000000000E+00  0.61910222575E+03  0.61910222575E+03  0.00000000000E+00 0. -1.
         21   -1    0    0  501  502  0.00000000000E+00 -0.00000000000E+00 -0.46614711125E+02  0.46614711125E+02  0.00000000000E+00 0. -1.
        -24    2    1    2    0    0 -0.32719975738E+00 -0.41642947920E+02  0.14122475899E+03  0.16683904265E+03  0.78463949864E+02 0.  0.
         23    2    1    2    0    0 -0.52374474505E+02  0.11809112744E+03  0.27471733437E+03  0.31686619257E+03  0.90807324746E+02 0.  0.
         11    1    3    3    0    0  0.37555084995E+02 -0.23233184617E+02  0.52346325367E+02  0.68485787255E+02  0.00000000000E+00 0. -1.
        -12    1    3    3    0    0 -0.37882284753E+02 -0.18409763303E+02  0.88878433623E+02  0.98353255392E+02  0.00000000000E+00 0.  1.
        -13    1    4    4    0    0 -0.50839026572E+02  0.13630052520E+02  0.10754016995E+03  0.11973000087E+03  0.00000000000E+00 0.  1.
         13    1    4    4    0    0 -0.15354479336E+01  0.10446107492E+03  0.16717716442E+03  0.19713619170E+03  0.00000000000E+00 0. -1.
          2    1    1    2  501    0  0.52701674262E+02 -0.76448179525E+02  0.15654542127E+03  0.18201170167E+03  0.00000000000E+00 0. -1.
<scales pt_clust_5="13000.00000" pt_clust_6="13000.00000" pt_clust_7="13000.00000" pt_clust_8="13000.00000" pt_clust_9="105.62438"></scales>
<clustering>
<clus scale="   78.464">  5  6 -1 -1</clus>
<clus scale="   88.830">  1  5  2 -1</clus>
<clus scale="   90.807">  7  8 -1 -1</clus>
<clus scale="  105.624">  2  9  1 -1</clus>
<clus scale="  105.624">  2  5  1 -1</clus>
</clustering>
</event>
<event>
 9    1  0.8429841E-005  0.1127697E+03  0.7546771E-02  0.1261484E+00
         21   -1    0    0  501  502  0.00000000000E+00  0.00000000000E+00  0.91415309762E+02  0.91415309762E+02  0.00000000000E+00 0.  1.
          1   -1    0    0  502    0 -0.00000000000E+00 -0.00000000000E+00 -0.43055594318E+03  0.43055594318E+03  0.00000000000E+00 0. -1.
        -24    2    1    2    0    0 -0.51139091126E+02  0.38580501254E+02 -0.31700666917E+03  0.33305632014E+03  0.79558923879E+02 0.  0.
         23    2    1    2    0    0  0.54758130345E+02  0.18273421208E+02  0.26363391715E+02  0.11409876156E+03  0.94821559810E+02 0.  0.
         13    1    3    3    0    0 -0.35282995484E+02  0.59778390940E+02 -0.16898674391E+03  0.18268789071E+03  0.00000000000E+00 0. -1.
        -14    1    3    3    0    0 -0.15856095641E+02 -0.21197889686E+02 -0.14801992526E+03  0.15036842943E+03  0.00000000000E+00 0.  1.
        -13    1    4    4    0    0  0.34397420651E+02  0.57392317261E+02  0.15897766893E+02  0.68773538663E+02  0.00000000000E+00 0.  1.
         13    1    4    4    0    0  0.20360709693E+02 -0.39118896052E+02  0.10465624822E+02  0.45325222895E+02  0.00000000000E+00 0. -1.
          2    1    1    2  501    0 -0.36190392192E+01 -0.56853922462E+02 -0.48497355959E+02  0.74816171241E+02  0.00000000000E+00 0. -1.
<scales pt_clust_5="13000.00000" pt_clust_6="13000.00000" pt_clust_7="13000.00000" pt_clust_8="13000.00000" pt_clust_9="56.96899"></scales>
<clustering>
<clus scale="   56.969">  1  9  2 -1</clus>
<clus scale="   79.559">  5  6 -1 -1</clus>
<clus scale="   94.822">  7  8 -1 -1</clus>
<clus scale="  100.277">  2  5  1 -1</clus>
<clus scale="   56.969">  1  5  2 -1</clus>
</clustering>
</event>
<event>
 9    1  0.8429841E-005  0.1556861E+03  0.7546771E-02  0.1196519E+00
         21   -1    0    0  501  502  0.00000000000E+00  0.00000000000E+00  0.54631065253E+03  0.54631065253E+03  0.00000000000E+00 0. -1.
          1   -1    0    0  502    0 -0.00000000000E+00 -0.00000000000E+00 -0.10239115946E+03  0.10239115946E+03  0.00000000000E+00 0. -1.
         23    2    1    2    0    0  0.73523456669E+02 -0.12644348632E+03  0.23476614964E+02  0.17386534922E+03  0.91018428324E+02 0.  0.
        -24    2    1    2    0    0 -0.46742646503E+02  0.37972054733E+02  0.33745690786E+03  0.35061457557E+03  0.73665894403E+02 0.  0.
         13    1    4    4    0    0 -0.53526593625E+02 -0.20605877921E+01  0.16661909248E+03  0.17501789688E+03  0.00000000000E+00 0. -1.
        -14    1    4    4    0    0  0.67839471220E+01  0.40032642525E+02  0.17083781538E+03  0.17559667869E+03  0.00000000000E+00 0.  1.
        -11    1    3    3    0    0  0.47162793289E+02 -0.13310690306E+03  0.33064448409E+02  0.14503459747E+03  0.00000000000E+00 0.  1.
         11    1    3    3    0    0  0.26360663380E+02  0.66634167378E+01 -0.95878334451E+01  0.28830751753E+02  0.00000000000E+00 0. -1.
          2    1    1    2  501    0 -0.26780810166E+02  0.88471431592E+02  0.82985970243E+02  0.12422188719E+03  0.00000000000E+00 0. -1.
<scales pt_clust_5="13000.00000" pt_clust_6="13000.00000" pt_clust_7="13000.00000" pt_clust_8="13000.00000" pt_clust_9="92.43600"></scales>
<clustering>
<clus scale="   73.666">  5  6 -1 -1</clus>
<clus scale="   91.018">  7  8 -1 -1</clus>
<clus scale="   92.436">  1  9  2 -1</clus>
<clus scale="  146.221">  1  5  2 -1</clus>
<clus scale="   92.436">  1  5  2 -1</clus>
</clustering>
</event>
<event>
 9    1  0.8429841E-005  0.7988331E+02  0.7546771E-02  0.1331705E+00
         21   -1    0    0  501  502  0.00000000000E+00  0.00000000000E+00  0.57000885422E+03  0.57000885422E+03  0.00000000000E+00 0.  1.
         -2   -1    0    0    0  501 -0.00000000000E+00 -0.00000000000E+00 -0.46405750740E+02  0.46405750740E+02  0.00000000000E+00 0.  1.
         23    2    1    2    0    0 -0.41359222678E+01  0.67038079608E+01  0.70388633746E+02  0.10674499369E+03  0.79861674312E+02 0.  0.
        -24    2    1    2    0    0 -0.28408029258E+02  0.41890605684E+02  0.44029193711E+03  0.44977372103E+03  0.76665319899E+02 0.  0.
         13    1    4    4    0    0 -0.21075327199E+02  0.53353650751E+02  0.17560811901E+03  0.18474033920E+03  0.00000000000E+00 0. -1.
        -14    1    4    4    0    0 -0.73327020590E+01 -0.11463045067E+02  0.26468381809E+03  0.26503338182E+03  0.00000000000E+00 0.  1.
        -11    1    3    3    0    0  0.13596942389E+02  0.35136509634E+02  0.12207498418E+02  0.39603966584E+02  0.00000000000E+00 0.  1.
         11    1    3    3    0    0 -0.17732864656E+02 -0.28432701673E+02  0.58181135328E+02  0.67141027110E+02  0.00000000000E+00 0. -1.
         -1    1    1    2    0  502  0.32543951526E+02 -0.48594413645E+02  0.12922532633E+02  0.59895890243E+02  0.00000000000E+00 0.  1.
<scales pt_clust_5="13000.00000" pt_clust_6="13000.00000" pt_clust_7="13000.00000" pt_clust_8="13000.00000" pt_clust_9="58.48529"></scales>
<clustering>
<clus scale="   58.485">  1  9  2 -1</clus>
<clus scale="   76.665">  5  6 -1 -1</clus>
<clus scale="   76.688">  1  5  2 -1</clus>
<clus scale="   79.862">  7  8 -1 -1</clus>
<clus scale="   58.485">  1  5  2 -1</clus>
</clustering>
</event>
<event>
 9    1  0.8429841E-005  0.1763638E+03  0.7546771E-02  0.1188598E+00
         21   -1    0    0  501  502  0.00000000000E+00  0.00000000000E+00  0.15379620244E+03  0.15379620244E+03  0.00000000000E+00 0.  1.
         -2   -1    0    0    0  501 -0.00000000000E+00 -0.00000000000E+00 -0.40403790196E+03  0.40403790196E+03  0.00000000000E+00 0.  1.
         23    2    1    2    0    0  0.11139247151E+02 -0.90259293481E+01 -0.22540937280E+02  0.12183212858E+03  0.11886725147E+03 0.  0.
        -24    2    1    2    0    0 -0.15683689138E+03 -0.29117920553E+02 -0.20733441136E+02  0.18003668751E+03  0.80855856134E+02 0.  0.
         11    1    4    4    0    0 -0.10070321517E+02 -0.27380520626E+02  0.84793530603E+01  0.30380976177E+02  0.00000000000E+00 0. -1.
        -12    1    4    4    0    0 -0.14676656986E+03 -0.17373999272E+01 -0.29212794196E+02  0.14965571133E+03  0.00000000000E+00 0.  1.
        -13    1    3    3    0    0  0.40615893905E+02 -0.41789445302E+02  0.18973801720E+02  0.61286325784E+02  0.00000000000E+00 0.  1.
         13    1    3    3    0    0 -0.29476646754E+02  0.32763515954E+02 -0.41514739000E+02  0.60545802792E+02  0.00000000000E+00 0. -1.
         -1    1    1    2    0  502  0.14569764423E+03  0.38143849901E+02 -0.20696732110E+03  0.25596528832E+03  0.00000000000E+00 0.  1.
<scales pt_clust_5="13000.00000" pt_clust_6="13000.00000" pt_clust_7="13000.00000" pt_clust_8="13000.00000" pt_clust_9="156.73717"></scales>
<clustering>
<clus scale="   80.856">  5  6 -1 -1</clus>
<clus scale="  118.867">  7  8 -1 -1</clus>
<clus scale="  119.729">  2  7  1 -1</clus>
<clus scale="  156.737">  1  9  2 -1</clus>
<clus scale="  156.737">  1  5  2 -1</clus>
</clustering>
</event>
<event>
 9    1  0.8429841E-005  0.1513969E+03  0.7546771E-02  0.1211674E+00
         21   -1    0    0  501  502  0.00000000000E+00  0.00000000000E+00  0.53410596471E+03  0.53410596471E+03  0.00000000000E+00 0. -1.
          1   -1    0    0  502    0 -0.00000000000E+00 -0.00000000000E+00 -0.28214490875E+03  0.28214490875E+03  0.00000000000E+00 0. -1.
         23    2    1    2    0    0 -0.32513570936E+02  0.55034799829E+02  0.12492325752E+03  0.16957166322E+03  0.95198567265E+02 0.  0.
        -24    2    1    2    0    0 -0.97170595380E+02 -0.54314146922E+02 -0.22940783949E+03  0.26737458975E+03  0.80430487145E+02 0.  0.
         13    1    4    4    0    0 -0.14657150567E+02 -0.46190734908E+02 -0.12489935728E+03  0.13397113683E+03  0.00000000000E+00 0. -1.
        -14    1    4    4    0    0 -0.82513444813E+02 -0.81234120137E+01 -0.10450848221E+03  0.13340345292E+03  0.00000000000E+00 0.  1.
        -11    1    3    3    0    0 -0.54395867485E+02  0.56914592691E+02  0.54367479867E+02  0.95676559970E+02  0.00000000000E+00 0. -1.
         11    1    3    3    0    0  0.21882296549E+02 -0.18797928624E+01  0.70555777652E+02  0.73895103245E+02  0.00000000000E+00 0.  1.
          2    1    1    2  501    0  0.12968416632E+03 -0.72065290755E+00  0.35644563793E+03  0.37930462050E+03  0.00000000000E+00 0. -1.
<scales pt_clust_5="13000.00000" pt_clust_6="13000.00000" pt_clust_7="13000.00000" pt_clust_8="13000.00000" pt_clust_9="128.26517"></scales>
<clustering>
<clus scale="   80.430">  5  6 -1 -1</clus>
<clus scale="   95.199">  7  8 -1 -1</clus>
<clus scale="  114.668">  2  7  1 -1</clus>
<clus scale="  128.265">  1  9  2 -1</clus>
<clus scale="  128.265">  1  5  2 -1</clus>
</clustering>
</event>
<event>
 9    1  0.8429841E-005  0.1413524E+03  0.7546771E-02  0.1217157E+00
         21   -1    0    0  501  502  0.00000000000E+00  0.00000000000E+00  0.15267050691E+03  0.15267050691E+03  0.00000000000E+00 0.  1.
          3   -1    0    0  502    0 -0.00000000000E+00 -0.00000000000E+00 -0.38662693317E+03  0.38662693317E+03  0.00000000000E+00 0. -1.
        -24    2    1    2    0    0 -0.90471409397E+01 -0.10912574060E+03 -0.32292825317E+03  0.34684817465E+03  0.63487963745E+02 0.  0.
         23    2    1    2    0    0  0.39316563943E+02  0.91956054066E+02  0.77330682133E+02  0.15575386577E+03  0.90980900320E+02 0.  0.
         13    1    3    3    0    0 -0.34764855489E+02 -0.66766932762E+02 -0.22191200785E+03  0.23433172580E+03  0.00000000000E+00 0. -1.
        -14    1    3    3    0    0  0.25717714549E+02 -0.42358807838E+02 -0.10101624531E+03  0.11251644884E+03  0.00000000000E+00 0.  1.
        -13    1    4    4    0    0 -0.25831782966E+02  0.18028642049E+02  0.17158459299E+01  0.31547695202E+02  0.00000000000E+00 0. -1.
         13    1    4    4    0    0  0.65148346910E+02  0.73927412017E+02  0.75614836203E+02  0.12420617057E+03  0.00000000000E+00 0.  1.
          4    1    1    2  501    0 -0.30269423004E+02  0.17169686535E+02  0.11641144771E+02  0.36695399661E+02  0.00000000000E+00 0. -1.
<scales pt_clust_5="13000.00000" pt_clust_6="13000.00000" pt_clust_7="13000.00000" pt_clust_8="13000.00000" pt_clust_9="34.79994"></scales>
<clustering>
<clus scale="   34.800">  1  9  2 -1</clus>
<clus scale="   63.488">  5  6 -1 -1</clus>
<clus scale="   90.981">  7  8 -1 -1</clus>
<clus scale="  125.434">  2  5  1 -1</clus>
<clus scale="   34.800">  1  5  2 -1</clus>
</clustering>
</event>
<event>
 9    1  0.8429841E-005  0.1752734E+03  0.7546771E-02  0.1173586E+00
          1   -1    0    0  502    0 -0.00000000000E+00  0.00000000000E+00  0.78965631661E+03  0.78965631661E+03  0.00000000000E+00 0. -1.
         21   -1    0    0  501  502  0.00000000000E+00 -0.00000000000E+00 -0.47971359874E+02  0.47971359874E+02  0.00000000000E+00 0. -1.
        -24    2    1    2    0    0  0.16575566550E+02  0.16231191792E+03  0.45922646594E+03  0.49413886311E+03  0.81635537079E+02 0.  0.
         23    2    1    2    0    0 -0.28213610628E+02 -0.12874295093E+03  0.22980610673E+03  0.27997036595E+03  0.90563811111E+02 0.  0.
         11    1    3    3    0    0  0.92370424577E+01  0.17069783708E+03  0.43771946636E+03  0.46991638167E+03  0.00000000000E+00 0. -1.
        -12    1    3    3    0    0  0.73385240925E+01 -0.83859191615E+01  0.21506999584E+02  0.24222481441E+02  0.00000000000E+00 0.  1.
        -11    1    4    4    0    0  0.19424631598E+02 -0.21065007626E+02  0.10307100118E+03  0.10697982119E+03  0.00000000000E+00 0.  1.
         11    1    4    4    0    0 -0.47638242225E+02 -0.10767794331E+03  0.12673510555E+03  0.17299054476E+03  0.00000000000E+00 0. -1.
          2    1    1    2  501    0  0.11638044077E+02 -0.33568966984E+02  0.52652384068E+02  0.63518447418E+02  0.00000000000E+00 0. -1.
<scales pt_clust_5="13000.00000" pt_clust_6="13000.00000" pt_clust_7="13000.00000" pt_clust_8="13000.00000" pt_clust_9="35.52914"></scales>
<clustering>
<clus scale="   35.529">  2  9  1 -1</clus>
<clus scale="   81.636">  5  6 -1 -1</clus>
<clus scale="   90.564">  7  8 -1 -1</clus>
<clus scale="  170.831">  1  5  2 -1</clus>
<clus scale="   35.529">  2  5  1 -1</clus>
</clustering>
</event>
<event>
 9    1  0.9116446E-005  0.2558223E+03  0.7546771E-02  0.1110143E+00
          1   -1    0    0  502    0 -0.00000000000E+00  0.00000000000E+00  0.91477337768E+03  0.91477337768E+03  0.00000000000E+00 0. -1.
         21   -1    0    0  501  502  0.00000000000E+00 -0.00000000000E+00 -0.30044156264E+03  0.30044156264E+03  0.00000000000E+00 0.  1.
        -24    2    1    2    0    0  0.41286142541E+02 -0.21727451422E+03  0.22870774248E+03  0.32835170173E+03  0.81208672323E+02 0.  0.
         23    2    1    2    0    0  0.80198843455E+02  0.33938973985E+03 -0.98160537542E+02  0.37332815787E+03  0.90117547234E+02 0.  0.
         11    1    3    3    0    0  0.45986327833E+02 -0.19290425273E+03  0.15844374786E+03  0.25383304415E+03  0.00000000000E+00 0. -1.
        -12    1    3    3    0    0 -0.47001852921E+01 -0.24370261496E+02  0.70263994614E+02  0.74518657572E+02  0.00000000000E+00 0.  1.
        -13    1    4    4    0    0  0.48456887598E+02  0.14632485156E+03 -0.87812057769E+02  0.17739782871E+03  0.00000000000E+00 0. -1.
         13    1    4    4    0    0  0.31741955856E+02  0.19306488829E+03 -0.10348479773E+02  0.19593032916E+03  0.00000000000E+00 0.  1.
          2    1    1    2  501    0 -0.12148498600E+03 -0.12211522563E+03  0.48378461011E+03  0.51353508072E+03  0.00000000000E+00 0. -1.
<scales pt_clust_5="13000.00000" pt_clust_6="13000.00000" pt_clust_7="13000.00000" pt_clust_8="13000.00000" pt_clust_9="172.25202"></scales>
<clustering>
<clus scale="   81.209">  5  6 -1 -1</clus>
<clus scale="   90.118">  7  8 -1 -1</clus>
<clus scale="  172.252">  2  9  1 -1</clus>
<clus scale="  252.822">  1  5  2 -1</clus>
<clus scale="  172.252">  2  5  1 -1</clus>
</clustering>
</event>
<event>
 9    1  0.8429841E-005  0.9228974E+02  0.7546771E-02  0.1303537E+00
          1   -1    0    0  502    0 -0.00000000000E+00  0.00000000000E+00  0.13142946311E+03  0.13142946311E+03  0.00000000000E+00 0. -1.
         21   -1    0    0  501  502  0.00000000000E+00 -0.00000000000E+00 -0.14310071212E+03  0.14310071212E+03  0.00000000000E+00 0. -1.
         23    2    1    2    0    0 -0.99350601011E+01  0.68606932863E+01  0.64133879009E+02  0.11170702109E+03  0.90661621385E+02 0.  0.
        -24    2    1    2    0    0 -0.48094676421E+01 -0.36508615213E+02 -0.10020273815E+02  0.89175021677E+02  0.80596331430E+02 0.  0.
         11    1    4    4    0    0 -0.24685071066E+02  0.10711600919E+02  0.16418799985E+02  0.31522501816E+02  0.00000000000E+00 0. -1.
        -12    1    4    4    0    0  0.19875603424E+02 -0.47220216131E+02 -0.26439073800E+02  0.57652519861E+02  0.00000000000E+00 0.  1.
        -13    1    3    3    0    0 -0.32213420526E+02 -0.32603645296E+02  0.36842977081E+02  0.58805672420E+02  0.00000000000E+00 0.  1.
         13    1    3    3    0    0  0.22278360425E+02  0.39464338582E+02  0.27290901928E+02  0.52901348669E+02  0.00000000000E+00 0. -1.
          2    1    1    2  501    0  0.14744527743E+02  0.29647921926E+02 -0.65784854200E+02  0.73648132461E+02  0.00000000000E+00 0. -1.
<scales pt_clust_5="13000.00000" pt_clust_6="13000.00000" pt_clust_7="13000.00000" pt_clust_8="13000.00000" pt_clust_9="33.11194"></scales>
<clustering>
<clus scale="   33.112">  2  9  1 -1</clus>
<clus scale="   80.596">  5  6 -1 -1</clus>
<clus scale="   82.424">  2  5  1 -1</clus>
<clus scale="   90.662">  7  8 -1 -1</clus>
<clus scale="   33.112">  2  5  1 -1</clus>
</clustering>
</event>
<event>
 9    1  0.8429841E-005  0.1406238E+03  0.7546771E-02  0.1213898E+00
          1   -1    0    0  502    0 -0.00000000000E+00  0.00000000000E+00  0.15163502847E+03  0.15163502847E+03  0.00000000000E+00 0. -1.
         21   -1    0    0  501  502  0.00000000000E+00 -0.00000000000E+00 -0.39475149792E+03  0.39475149792E+03  0.00000000000E+00 0.  1.
        -24    2    1    2    0    0  0.87729009782E+01  0.10362083136E+03  0.66045598428E+02  0.14850684581E+03  0.82933839289E+02 0.  0.
         23    2    1    2    0    0 -0.82050935882E+02 -0.12481542632E+03 -0.21479302089E+03  0.27653554893E+03  0.89580250458E+02 0.  0.
         13    1    3    3    0    0  0.40501176963E+02  0.51187393735E+02  0.56803265445E+02  0.86528062373E+02  0.00000000000E+00 0. -1.
        -14    1    3    3    0    0 -0.31728275985E+02  0.52433437622E+02  0.92423329828E+01  0.61978783441E+02  0.00000000000E+00 0.  1.
        -13    1    4    4    0    0 -0.18782254134E+02 -0.42556429207E+02 -0.10937321379E+02  0.47785434352E+02  0.00000000000E+00 0. -1.
         13    1    4    4    0    0 -0.63268681748E+02 -0.82258997110E+02 -0.20385569951E+03  0.22875011458E+03  0.00000000000E+00 0.  1.
          2    1    1    2  501    0  0.73278034904E+02  0.21194594960E+02 -0.94369046985E+02  0.12134413164E+03  0.00000000000E+00 0. -1.
<scales pt_clust_5="13000.00000" pt_clust_6="13000.00000" pt_clust_7="13000.00000" pt_clust_8="13000.00000" pt_clust_9="76.28159"></scales>
<clustering>
<clus scale="   76.282">  2  9  1 -1</clus>
<clus scale="   82.934">  5  6 -1 -1</clus>
<clus scale="   89.580">  7  8 -1 -1</clus>
<clus scale="  136.486">  1  5  2 -1</clus>
<clus scale="   76.282">  2  5  1 -1</clus>
</clustering>
</event>
<event>
 9    1  0.8429841E-005  0.2030964E+03  0.7546771E-02  0.1166774E+00
         21   -1    0    0  501  502  0.00000000000E+00  0.00000000000E+00  0.76416295199E+02  0.76416295199E+02  0.00000000000E+00 0. -1.
          3   -1    0    0  502    0 -0.00000000000E+00 -0.00000000000E+00 -0.11426888628E+04  0.11426888628E+04  0.00000000000E+00 0. -1.
        -24    2    1    2    0    0  0.91690263111E+02  0.37718868474E+02 -0.56811919318E+03  0.58242802716E+03  0.81444286301E+02 0.  0.
         23    2    1    2    0    0  0.12007619709E+03  0.38931834562E+02 -0.29152710815E+03  0.33103881868E+03  0.93084176098E+02 0.  0.
         13    1    3    3    0    0  0.87024155553E+02  0.53836041793E+02 -0.54057746147E+03  0.55017771210E+03  0.00000000000E+00 0. -1.
        -14    1    3    3    0    0  0.46661075578E+01 -0.16117173319E+02 -0.27541731710E+02  0.32250315054E+02  0.00000000000E+00 0.  1.
        -11    1    4    4    0    0  0.69558152619E+02  0.63705352958E+02 -0.13483941669E+03  0.16455508769E+03  0.00000000000E+00 0.  1.
         11    1    4    4    0    0  0.50518044474E+02 -0.24773518397E+02 -0.15668769146E+03  0.16648373099E+03  0.00000000000E+00 0. -1.
          4    1    1    2  501    0 -0.21176646020E+03 -0.76650703036E+02 -0.20662626627E+03  0.30563831215E+03  0.00000000000E+00 0. -1.
<scales pt_clust_5="13000.00000" pt_clust_6="13000.00000" pt_clust_7="13000.00000" pt_clust_8="13000.00000" pt_clust_9="180.50897"></scales>
<clustering>
<clus scale="   81.444">  5  6 -1 -1</clus>
<clus scale="   93.084">  7  8 -1 -1</clus>
<clus scale="  128.308">  2  5  1 -1</clus>
<clus scale="  180.509">  1  9  2 -1</clus>
<clus scale="  180.509">  1  5  2 -1</clus>
</clustering>
</event>
<event>
 9    1  0.8429841E-005  0.9745633E+02  0.7546771E-02  0.1292657E+00
          1   -1    0    0  502    0 -0.00000000000E+00  0.00000000000E+00  0.39786819630E+03  0.39786819630E+03  0.00000000000E+00 0. -1.
         21   -1    0    0  501  502  0.00000000000E+00 -0.00000000000E+00 -0.44053549446E+02  0.44053549446E+02  0.00000000000E+00 0. -1.
         23    2    1    2    0    0  0.29377295764E+02  0.18424469998E+02  0.29374725817E+03  0.30925340000E+03  0.90264761275E+02 0.  0.
        -24    2    1    2    0    0 -0.24630997203E+02 -0.42660242469E+02  0.36937596747E+02  0.98832162564E+02  0.77309947568E+02 0.  0.
         11    1    4    4    0    0 -0.51004291428E+02 -0.22003001922E+02  0.34173301011E+02  0.65217975587E+02  0.00000000000E+00 0. -1.
        -12    1    4    4    0    0  0.26373294224E+02 -0.20657240547E+02  0.27642957363E+01  0.33614186977E+02  0.00000000000E+00 0.  1.
        -13    1    3    3    0    0  0.97452742920E+01  0.46953119402E+02  0.24382220055E+03  0.24849312118E+03  0.00000000000E+00 0. -1.
         13    1    3    3    0    0  0.19632021472E+02 -0.28528649404E+02  0.49925057616E+02  0.60760278816E+02  0.00000000000E+00 0.  1.
          2    1    1    2  501    0 -0.47462985603E+01  0.24235772471E+02  0.23129791939E+02  0.33836183183E+02  0.00000000000E+00 0. -1.
<scales pt_clust_5="13000.00000" pt_clust_6="13000.00000" pt_clust_7="13000.00000" pt_clust_8="13000.00000" pt_clust_9="24.69615"></scales>
<clustering>
<clus scale="   24.696">  2  9  1 -1</clus>
<clus scale="   77.310">  5  6 -1 -1</clus>
<clus scale="   85.597">  2  5  1 -1</clus>
<clus scale="   90.265">  7  8 -1 -1</clus>
<clus scale="   24.696">  2  5  1 -1</clus>
</clustering>
</event>
<event>
 9    1  0.8429841E-005  0.1229428E+03  0.7546771E-02  0.1242348E+00
          1   -1    0    0  502    0 -0.00000000000E+00  0.00000000000E+00  0.32008469617E+03  0.32008469617E+03  0.00000000000E+00 0. -1.
         21   -1    0    0  501  502  0.00000000000E+00 -0.00000000000E+00 -0.99223683195E+02  0.99223683195E+02  0.00000000000E+00 0. -1.
         23    2    1    2    0    0 -0.51478420783E+02 -0.24116041507E+02  0.10978498890E+03  0.15389380084E+03  0.91645768508E+02 0.  0.
        -24    2    1    2    0    0  0.11607168253E+03  0.20542306999E+02  0.13585738200E+03  0.19613848782E+03  0.78220561853E+02 0.  0.
         13    1    4    4    0    0  0.12256091063E+03  0.32205727163E+02  0.13005768944E+03  0.18158576006E+03  0.00000000000E+00 0. -1.
        -14    1    4    4    0    0 -0.64892280986E+01 -0.11663420163E+02  0.57996925650E+01  0.14552727754E+02  0.00000000000E+00 0.  1.
        -13    1    3    3    0    0 -0.49659948557E+02  0.32670383759E+01  0.10469774609E+02  0.50856663387E+02  0.00000000000E+00 0. -1.
         13    1    3    3    0    0 -0.18184722258E+01 -0.27383079883E+02  0.99315214294E+02  0.10303713746E+03  0.00000000000E+00 0.  1.
          2    1    1    2  501    0 -0.64593261750E+02  0.35737345079E+01 -0.24781357932E+02  0.69276090700E+02  0.00000000000E+00 0. -1.
<scales pt_clust_5="13000.00000" pt_clust_6="13000.00000" pt_clust_7="13000.00000" pt_clust_8="13000.00000" pt_clust_9="64.69205"></scales>
<clustering>
<clus scale="   64.692">  2  9  1 -1</clus>
<clus scale="   78.221">  5  6 -1 -1</clus>
<clus scale="   91.646">  7  8 -1 -1</clus>
<clus scale="  113.289">  2  5  1 -1</clus>
<clus scale="   64.692">  2  5  1 -1</clus>
</clustering>
</event>
<event>
 9    1  0.8429841E-005  0.1392261E+03  0.7546771E-02  0.1216408E+00
         -2   -1    0    0    0  501 -0.00000000000E+00  0.00000000000E+00  0.61058676916E+02  0.61058676916E+02  0.00000000000E+00 0.  1.
         21   -1    0    0  501  502  0.00000000000E+00 -0.00000000000E+00 -0.78925679823E+03  0.78925679823E+03  0.00000000000E+00 0.  1.
        -24    2    1    2    0    0  0.11000894526E+03 -0.85405843267E+02 -0.11105162125E+03  0.19680479713E+03  0.83687152481E+02 0.  0.
         23    2    1    2    0    0 -0.55414298304E+02  0.91173019067E+01 -0.21783985436E+03  0.24333228472E+03  0.92749819354E+02 0.  0.
         13    1    3    3    0    0  0.33215807910E+01 -0.39098990157E+02 -0.52726361940E+01  0.39592481896E+02  0.00000000000E+00 0. -1.
        -14    1    3    3    0    0  0.10668736447E+03 -0.46306853110E+02 -0.10577898505E+03  0.15721231524E+03  0.00000000000E+00 0.  1.
        -13    1    4    4    0    0 -0.77407290523E+02 -0.11526918381E+02 -0.15658077013E+03  0.17504941030E+03  0.00000000000E+00 0. -1.
         13    1    4    4    0    0  0.21992992219E+02  0.20644220288E+02 -0.61259084236E+02  0.68282874423E+02  0.00000000000E+00 0.  1.
         -1    1    1    2    0  502 -0.54594646957E+02  0.76288541360E+02 -0.39930664570E+03  0.41017839329E+03  0.00000000000E+00 0.  1.
<scales pt_clust_5="13000.00000" pt_clust_6="13000.00000" pt_clust_7="13000.00000" pt_clust_8="13000.00000" pt_clust_9="93.81107"></scales>
<clustering>
<clus scale="   83.687">  5  6 -1 -1</clus>
<clus scale="   92.750">  7  8 -1 -1</clus>
<clus scale="   93.811">  2  9  1 -1</clus>
<clus scale="  133.360">  1  5  2 -1</clus>
<clus scale="   93.811">  2  5  1 -1</clus>
</clustering>
</event>
<event>
 9    1  0.8429841E-005  0.1083093E+03  0.7546771E-02  0.1266689E+00
         21   -1    0    0  501  502  0.00000000000E+00  0.00000000000E+00  0.14875632034E+03  0.14875632034E+03  0.00000000000E+00 0. -1.
          3   -1    0    0  502    0 -0.00000000000E+00 -0.00000000000E+00 -0.27198763782E+03  0.27198763782E+03  0.00000000000E+00 0. -1.
         23    2    1    2    0    0 -0.48912000307E+02  0.25809078636E+02 -0.18488431447E+03  0.21207769760E+03  0.87955942214E+02 0.  0.
        -24    2    1    2    0    0  0.88595474873E+02 -0.67431123926E+02  0.22630509328E+02  0.13916858182E+03  0.80371882964E+02 0.  0.
         11    1    4    4    0    0  0.34703617070E+02 -0.52821917689E+02 -0.22795671610E+02  0.67187340104E+02  0.00000000000E+00 0. -1.
        -12    1    4    4    0    0  0.53891857802E+02 -0.14609206237E+02  0.45426180938E+02  0.71981241715E+02  0.00000000000E+00 0.  1.
        -11    1    3    3    0    0 -0.93229554548E+01  0.49282954239E+02 -0.13591371044E+03  0.14487326794E+03  0.00000000000E+00 0.  1.
         11    1    3    3    0    0 -0.39589044852E+02 -0.23473875603E+02 -0.48970604027E+02  0.67204429667E+02  0.00000000000E+00 0. -1.
          4    1    1    2  501    0 -0.39683474566E+02  0.41622045290E+02  0.39022487648E+02  0.69497678738E+02  0.00000000000E+00 0. -1.
<scales pt_clust_5="13000.00000" pt_clust_6="13000.00000" pt_clust_7="13000.00000" pt_clust_8="13000.00000" pt_clust_9="57.50802"></scales>
<clustering>
<clus scale="   57.508">  1  9  2 -1</clus>
<clus scale="   80.372">  5  6 -1 -1</clus>
<clus scale="   87.956">  7  8 -1 -1</clus>
<clus scale="  102.246">  1  5  2 -1</clus>
<clus scale="   57.508">  1  5  2 -1</clus>
</clustering>
</event>
<event>
 9    1  0.8429841E-005  0.1567241E+03  0.7546771E-02  0.1194044E+00
          3   -1    0    0  502    0 -0.00000000000E+00  0.00000000000E+00  0.25975907162E+03  0.25975907162E+03  0.00000000000E+00 0. -1.
         21   -1    0    0  501  502  0.00000000000E+00 -0.00000000000E+00 -0.38295477807E+03  0.38295477807E+03  0.00000000000E+00 0.  1.
         23    2    1    2    0    0 -0.35946981117E+02 -0.11997792854E+03  0.17905676011E+03  0.23632791569E+03  0.90014841042E+02 0.  0.
        -24    2    1    2    0    0  0.24011076807E+02  0.16379074699E+03 -0.30985176972E+03  0.36034488405E+03  0.80227025680E+02 0.  0.
         11    1    4    4    0    0  0.43085533033E+01  0.70843243809E+02 -0.59655186227E+02  0.92714993764E+02  0.00000000000E+00 0. -1.
        -12    1    4    4    0    0  0.19702523504E+02  0.92947503184E+02 -0.25019658349E+03  0.26762989028E+03  0.00000000000E+00 0.  1.
        -13    1    3    3    0    0 -0.54932614673E+02 -0.32539781271E+02  0.87421493224E+02  0.10825408536E+03  0.00000000000E+00 0. -1.
         13    1    3    3    0    0  0.18985633555E+02 -0.87438147265E+02  0.91635266881E+02  0.12807383033E+03  0.00000000000E+00 0.  1.
          4    1    1    2  501    0  0.11935904311E+02 -0.43812818457E+02  0.75993031607E+01  0.46041049960E+02  0.00000000000E+00 0. -1.
<scales pt_clust_5="13000.00000" pt_clust_6="13000.00000" pt_clust_7="13000.00000" pt_clust_8="13000.00000" pt_clust_9="45.40959"></scales>
<clustering>
<clus scale="   45.410">  2  9  1 -1</clus>
<clus scale="   80.227">  5  6 -1 -1</clus>
<clus scale="   90.015">  7  8 -1 -1</clus>
<clus scale="  151.315">  2  5  1 -1</clus>
<clus scale="   45.410">  2  5  1 -1</clus>
</clustering>
</event>
<event>
 9    1  0.8429841E-005  0.1168795E+03  0.7546771E-02  0.1250812E+00
         21   -1    0    0  501  502  0.00000000000E+00  0.00000000000E+00  0.90032786725E+02  0.90032786725E+02  0.00000000000E+00 0.  1.
          1   -1    0    0  502    0 -0.00000000000E+00 -0.00000000000E+00 -0.24931568817E+03  0.24931568817E+03  0.00000000000E+00 0. -1.
        -24    2    1    2    0    0 -0.10227732911E+02  0.72661074830E+02 -0.11017874751E+03  0.15495851258E+03  0.80551510866E+02 0.  0.
         23    2    1    2    0    0 -0.46818758635E+01 -0.87526365511E+02  0.69323548716E+01  0.12452875935E+03  0.88184861175E+02 0.  0.
         13    1    3    3    0    0 -0.39350616533E+02  0.35182311767E+02 -0.87888210676E+02  0.10252123516E+03  0.00000000000E+00 0. -1.
        -14    1    3    3    0    0  0.29122883622E+02  0.37478763062E+02 -0.22290536837E+02  0.52437277424E+02  0.00000000000E+00 0.  1.
        -11    1    4    4    0    0 -0.89070609710E+01 -0.42020212113E+02 -0.40233074605E+02  0.58853498225E+02  0.00000000000E+00 0. -1.
         11    1    4    4    0    0  0.42251851075E+01 -0.45506153398E+02  0.47165429477E+02  0.65675261126E+02  0.00000000000E+00 0.  1.
          2    1    1    2  501    0  0.14909608774E+02  0.14865290681E+02 -0.56036508806E+02  0.59861202962E+02  0.00000000000E+00 0. -1.
<scales pt_clust_5="13000.00000" pt_clust_6="13000.00000" pt_clust_7="13000.00000" pt_clust_8="13000.00000" pt_clust_9="21.05407"></scales>
<clustering>
<clus scale="   21.054">  1  9  2 -1</clus>
<clus scale="   80.552">  5  6 -1 -1</clus>
<clus scale="   88.185">  7  8 -1 -1</clus>
<clus scale="  111.233">  2  5  1 -1</clus>
<clus scale="   21.054">  1  5  2 -1</clus>
</clustering>
</event>
<event>
 9    1  0.8429841E-005  0.1937588E+03  0.7546771E-02  0.1157586E+00
         21   -1    0    0  501  502  0.00000000000E+00  0.00000000000E+00  0.11395212959E+04  0.11395212959E+04  0.00000000000E+00 0.  1.
          1   -1    0    0  502    0 -0.00000000000E+00 -0.00000000000E+00 -0.12120125320E+03  0.12120125320E+03  0.00000000000E+00 0. -1.
         23    2    1    2    0    0  0.61831029403E+02 -0.15551009558E+03 -0.21230545928E+02  0.19627030361E+03  0.10032362620E+03 0.  0.
        -24    2    1    2    0    0 -0.15974365009E+02  0.15329580462E+03  0.92713849477E+03  0.94302648381E+03  0.77190521744E+02 0.  0.
         13    1    4    4    0    0 -0.73017236155E+01  0.29690904425E+02  0.62757629067E+02  0.69809633858E+02  0.00000000000E+00 0. -1.
        -14    1    4    4    0    0 -0.86726413938E+01  0.12360490020E+03  0.86438086570E+03  0.87321684996E+03  0.00000000000E+00 0.  1.
        -13    1    3    3    0    0 -0.27825580614E+02 -0.36364930900E+02 -0.89432327497E+01  0.46654609074E+02  0.00000000000E+00 0.  1.
         13    1    3    3    0    0  0.89656610017E+02 -0.11914516468E+03 -0.12287313179E+02  0.14961569454E+03  0.00000000000E+00 0. -1.
          2    1    1    2  501    0 -0.45856664394E+02  0.22142909593E+01  0.11241209387E+03  0.12142576169E+03  0.00000000000E+00 0. -1.
<scales pt_clust_5="13000.00000" pt_clust_6="13000.00000" pt_clust_7="13000.00000" pt_clust_8="13000.00000" pt_clust_9="45.91009"></scales>
<clustering>
<clus scale="   45.910">  1  9  2 -1</clus>
<clus scale="   77.191">  5  6 -1 -1</clus>
<clus scale="  100.324">  7  8 -1 -1</clus>
<clus scale="  182.855">  1  5  2 -1</clus>
<clus scale="   45.910">  1  5  2 -1</clus>
</clustering>
</event>
<event>
 9    1  0.8429841E-005  0.8839171E+02  0.7546771E-02  0.1310250E+00
         21   -1    0    0  501  502  0.00000000000E+00  0.00000000000E+00  0.47287598121E+02  0.47287598121E+02  0.00000000000E+00 0.  1.
          3   -1    0    0  502    0 -0.00000000000E+00 -0.00000000000E+00 -0.26346617045E+03  0.26346617045E+03  0.00000000000E+00 0. -1.
         23    2    1    2    0    0 -0.10534865029E+02 -0.10310402504E+02 -0.90298947541E+02  0.12543964380E+03  0.85813265452E+02 0.  0.
        -24    2    1    2    0    0  0.61136780020E+01  0.33595567049E+02 -0.39504347428E+02  0.95746081806E+02  0.80253844340E+02 0.  0.
         13    1    4    4    0    0 -0.55913727050E+01 -0.21712747515E+02  0.59595735819E+01  0.23199641607E+02  0.00000000000E+00 0. -1.
        -14    1    4    4    0    0  0.11705050707E+02  0.55308314564E+02 -0.45463921010E+02  0.72546440199E+02  0.00000000000E+00 0.  1.
        -13    1    3    3    0    0 -0.36417487719E+02 -0.35532458469E+02 -0.50684007152E+02  0.71816833664E+02  0.00000000000E+00 0.  1.
         13    1    3    3    0    0  0.25882622689E+02  0.25222055965E+02 -0.39614940389E+02  0.53622810131E+02  0.00000000000E+00 0. -1.
          4    1    1    2  501    0  0.44211870274E+01 -0.23285164544E+02 -0.86375277364E+02  0.89568042975E+02  0.00000000000E+00 0. -1.
<scales pt_clust_5="13000.00000" pt_clust_6="13000.00000" pt_clust_7="13000.00000" pt_clust_8="13000.00000" pt_clust_9="23.70119"></scales>
<clustering>
<clus scale="   23.701">  1  9  2 -1</clus>
<clus scale="   80.254">  5  6 -1 -1</clus>
<clus scale="   83.005">  1  5  2 -1</clus>
<clus scale="   85.813">  7  8 -1 -1</clus>
<clus scale="   23.701">  1  5  2 -1</clus>
</clustering>
</event>
<event>
 9    1  0.8429841E-005  0.1476702E+03  0.7546771E-02  0.1223546E+00
          1   -1    0    0  502    0 -0.00000000000E+00  0.00000000000E+00  0.87546615758E+03  0.87546615758E+03  0.00000000000E+00 0. -1.
         21   -1    0    0  501  502  0.00000000000E+00 -0.00000000000E+00 -0.74845873097E+02  0.74845873097E+02  0.00000000000E+00 0.  1.
         23    2    1    2    0    0 -0.22127203725E+02 -0.21863444225E+02  0.45267136627E+02  0.10632698514E+03  0.91042247188E+02 0.  0.
        -24    2    1    2    0    0 -0.56523036263E+00  0.12759493064E+03  0.10291082048E+03  0.18264165187E+03  0.80539122282E+02 0.  0.
         11    1    4    4    0    0 -0.19450762031E+02  0.39199270466E+02  0.77075354036E+02  0.88631400465E+02  0.00000000000E+00 0. -1.
        -12    1    4    4    0    0  0.18885531669E+02  0.88395660172E+02  0.25835466442E+02  0.94010251409E+02  0.00000000000E+00 0.  1.
        -13    1    3    3    0    0 -0.23747725102E+02  0.68898935518E+01  0.66237254670E+02  0.70702185163E+02  0.00000000000E+00 0.  1.
         13    1    3    3    0    0  0.16205213770E+01 -0.28753337777E+02 -0.20970118043E+02  0.35624799979E+02  0.00000000000E+00 0. -1.
          2    1    1    2  501    0  0.22692434088E+02 -0.10573148641E+03  0.65244232738E+03  0.66134339367E+03  0.00000000000E+00 0. -1.
<scales pt_clust_5="13000.00000" pt_clust_6="13000.00000" pt_clust_7="13000.00000" pt_clust_8="13000.00000" pt_clust_9="123.77381"></scales>
<clustering>
<clus scale="   80.539">  5  6 -1 -1</clus>
<clus scale="   91.042">  7  8 -1 -1</clus>
<clus scale="   96.210">  1  7  2 -1</clus>
<clus scale="  123.774">  2  9  1 -1</clus>
<clus scale="  123.774">  2  5  1 -1</clus>
</clustering>
</event>
<event>
 9    1  0.8429841E-005  0.1536809E+03  0.7546771E-02  0.1196140E+00
         21   -1    0    0  501  502  0.00000000000E+00  0.00000000000E+00  0.59592964906E+02  0.59592964906E+02  0.00000000000E+00 0.  1.
          3   -1    0    0  502    0 -0.00000000000E+00 -0.00000000000E+00 -0.75238647707E+03  0.75238647707E+03  0.00000000000E+00 0. -1.
        -24    2    1    2    0    0 -0.48655971101E+02  0.13017259797E+03 -0.30277700833E+03  0.34276976818E+03  0.80652888473E+02 0.  0.
         23    2    1    2    0    0  0.14268718362E+02 -0.11512386295E+03 -0.92275969436E+02  0.16911240056E+03  0.81406691029E+02 0.  0.
         11    1    3    3    0    0  0.83991996359E+01  0.88190409779E+02 -0.14676728309E+03  0.17143141578E+03  0.00000000000E+00 0. -1.
        -12    1    3    3    0    0 -0.57055170737E+02  0.41982188193E+02 -0.15600972524E+03  0.17133835240E+03  0.00000000000E+00 0.  1.
        -13    1    4    4    0    0  0.16132448372E+02 -0.68916559546E+02 -0.57613924760E+01  0.71013672722E+02  0.00000000000E+00 0.  1.
         13    1    4    4    0    0 -0.18637300094E+01 -0.46207303406E+02 -0.86514576960E+02  0.98098727842E+02  0.00000000000E+00 0. -1.
          4    1    1    2  501    0  0.34387252738E+02 -0.15048735020E+02 -0.29774053441E+03  0.30009727324E+03  0.00000000000E+00 0. -1.
<scales pt_clust_5="13000.00000" pt_clust_6="13000.00000" pt_clust_7="13000.00000" pt_clust_8="13000.00000" pt_clust_9="37.53597"></scales>
<clustering>
<clus scale="   37.536">  1  9  2 -1</clus>
<clus scale="   80.653">  5  6 -1 -1</clus>
<clus scale="   81.407">  7  8 -1 -1</clus>
<clus scale="  153.283">  2  5  1 -1</clus>
<clus scale="   37.536">  1  5  2 -1</clus>
</clustering>
</event>
<event>
 9    1  0.8429841E-005  0.1031573E+03  0.7546771E-02  0.1281268E+00
         21   -1    0    0  501  502  0.00000000000E+00  0.00000000000E+00  0.34927839091E+03  0.34927839091E+03  0.00000000000E+00 0. -1.
         -2   -1    0    0    0  501 -0.00000000000E+00 -0.00000000000E+00 -0.19024640098E+03  0.19024640098E+03  0.00000000000E+00 0.  1.
         23    2    1    2    0    0  0.14005283582E+02 -0.35154696190E+02 -0.15840524466E+03  0.18872190887E+03  0.95350598939E+02 0.  0.
        -24    2    1    2    0    0  0.49716497075E+01  0.62160321118E+02  0.15727473046E+03  0.18727473404E+03  0.80298582478E+02 0.  0.
         11    1    4    4    0    0 -0.27827003697E+02 -0.37078511624E+01  0.44789652890E+02  0.52860224186E+02  0.00000000000E+00 0. -1.
        -12    1    4    4    0    0  0.32798653404E+02  0.65868172280E+02  0.11248507757E+03  0.13441450986E+03  0.00000000000E+00 0.  1.
        -11    1    3    3    0    0  0.27009425279E+02 -0.64559752474E+02 -0.11649785507E+03  0.13590151188E+03  0.00000000000E+00 0. -1.
         11    1    3    3    0    0 -0.13004141697E+02  0.29405056284E+02 -0.41907389591E+02  0.52820396995E+02  0.00000000000E+00 0.  1.
         -1    1    1    2    0  502 -0.18976933290E+02 -0.27005624928E+02  0.16016250414E+03  0.16352814897E+03  0.00000000000E+00 0.  1.
<scales pt_clust_5="13000.00000" pt_clust_6="13000.00000" pt_clust_7="13000.00000" pt_clust_8="13000.00000" pt_clust_9="33.00648"></scales>
<clustering>
<clus scale="   33.006">  1  9  2 -1</clus>
<clus scale="   80.299">  5  6 -1 -1</clus>
<clus scale="   89.429">  1  5  2 -1</clus>
<clus scale="   95.351">  7  8 -1 -1</clus>
<clus scale="   33.006">  1  5  2 -1</clus>
</clustering>
</event>
<event>
 9    1  0.9003689E-005  0.1800263E+03  0.7546771E-02  0.1169276E+00
         21   -1    0    0  501  502  0.00000000000E+00  0.00000000000E+00  0.20989893718E+03  0.20989893718E+03  0.00000000000E+00 0.  1.
          3   -1    0    0  502    0 -0.00000000000E+00 -0.00000000000E+00 -0.49798782799E+03  0.49798782799E+03  0.00000000000E+00 0. -1.
         23    2    1    2    0    0 -0.94475496945E+02  0.12716326675E+03 -0.43379105506E+03  0.47076817419E+03  0.91388612244E+02 0.  0.
        -24    2    1    2    0    0  0.76825547517E+02 -0.10534343471E+03  0.95998929347E+02  0.18003937107E+03  0.78733580594E+02 0.  0.
         11    1    4    4    0    0 -0.11354646226E+02 -0.19866234741E+02 -0.19330166379E+01  0.22963706735E+02  0.00000000000E+00 0. -1.
        -12    1    4    4    0    0  0.88180193743E+02 -0.85477199970E+02  0.97931945985E+02  0.15707566434E+03  0.00000000000E+00 0.  1.
        -11    1    3    3    0    0  0.17186870242E+02  0.16919157987E+02 -0.38005293543E+02  0.45011651303E+02  0.00000000000E+00 0.  1.
         11    1    3    3    0    0 -0.11166236719E+03  0.11024410876E+03 -0.39578576152E+03  0.42575652289E+03  0.00000000000E+00 0. -1.
          4    1    1    2  501    0  0.17649949428E+02 -0.21819832039E+02  0.49703234900E+02  0.57079219901E+02  0.00000000000E+00 0. -1.
<scales pt_clust_5="13000.00000" pt_clust_6="13000.00000" pt_clust_7="13000.00000" pt_clust_8="13000.00000" pt_clust_9="28.06467"></scales>
<clustering>
<clus scale="   28.065">  1  9  2 -1</clus>
<clus scale="   78.734">  5  6 -1 -1</clus>
<clus scale="   91.389">  7  8 -1 -1</clus>
<clus scale="  173.944">  1  5  2 -1</clus>
<clus scale="   28.065">  1  5  2 -1</clus>
</clustering>
</event>
<event>
 9    1  0.8429841E-005  0.2065358E+03  0.7546771E-02  0.1180485E+00
          1   -1    0    0  502    0 -0.00000000000E+00  0.00000000000E+00  0.28456353502E+03  0.28456353502E+03  0.00000000000E+00 0. -1.
         21   -1    0    0  501  502  0.00000000000E+00 -0.00000000000E+00 -0.28065409533E+03  0.28065409533E+03  0.00000000000E+00 0.  1.
        -24    2    1    2    0    0 -0.34008411144E+02  0.16250380675E+02  0.11619802792E+03  0.14657075965E+03  0.80996043071E+02 0.  0.
         23    2    1    2    0    0  0.20173741143E+03 -0.56042563183E+02 -0.37959106324E+02  0.23092018852E+03  0.89691067865E+02 0.  0.
         11    1    3    3    0    0 -0.33670890434E+02  0.22921376298E+02  0.12428133156E+02  0.42586110972E+02  0.00000000000E+00 0. -1.
        -12    1    3    3    0    0 -0.33752071026E+00 -0.66709956226E+01  0.10376989476E+03  0.10398464868E+03  0.00000000000E+00 0.  1.
        -11    1    4    4    0    0  0.12453145218E+03 -0.90744536325E+01  0.15660815836E+02  0.12583993580E+03  0.00000000000E+00 0.  1.
         11    1    4    4    0    0  0.77205959252E+02 -0.46968109551E+02 -0.53619922160E+02  0.10508025272E+03  0.00000000000E+00 0. -1.
          2    1    1    2  501    0 -0.16772900028E+03  0.39792182508E+02 -0.74329481901E+02  0.18772668219E+03  0.00000000000E+00 0. -1.
<scales pt_clust_5="13000.00000" pt_clust_6="13000.00000" pt_clust_7="13000.00000" pt_clust_8="13000.00000" pt_clust_9="186.04447"></scales>
<clustering>
<clus scale="   80.996">  5  6 -1 -1</clus>
<clus scale="   89.336">  1  5  2 -1</clus>
<clus scale="   89.691">  7  8 -1 -1</clus>
<clus scale="  186.044">  2  9  1 -1</clus>
<clus scale="  186.044">  2  5  1 -1</clus>
</clustering>
</event>
<event>
 9    1  0.8429841E-005  0.9906093E+02  0.7546771E-02  0.1290005E+00
         21   -1    0    0  501  502  0.00000000000E+00  0.00000000000E+00  0.91687599945E+02  0.91687599945E+02  0.00000000000E+00 0. -1.
          3   -1    0    0  502    0 -0.00000000000E+00 -0.00000000000E+00 -0.26964970061E+03  0.26964970061E+03  0.00000000000E+00 0. -1.
        -24    2    1    2    0    0 -0.15212585030E+02 -0.55413802970E+02 -0.12265698341E+03  0.15611704814E+03  0.77625284792E+02 0.  0.
         23    2    1    2    0    0  0.16113094479E+02 -0.34613711872E+02 -0.47671165430E+00  0.99807167806E+02  0.92214438284E+02 0.  0.
         11    1    3    3    0    0  0.68018766640E+01 -0.61730601323E+02 -0.49376186696E+02  0.79340660940E+02  0.00000000000E+00 0. -1.
        -12    1    3    3    0    0 -0.22014461694E+02  0.63167983528E+01 -0.73280796711E+02  0.76776387201E+02  0.00000000000E+00 0.  1.
        -11    1    4    4    0    0  0.16792380276E+02  0.27853267644E+02 -0.14772949613E+02  0.35721542437E+02  0.00000000000E+00 0.  1.
         11    1    4    4    0    0 -0.67928579711E+00 -0.62466979517E+02  0.14296237959E+02  0.64085625369E+02  0.00000000000E+00 0. -1.
          4    1    1    2  501    0 -0.90050944881E+00  0.90027514842E+02 -0.54828405607E+02  0.10541308461E+03  0.00000000000E+00 0. -1.
<scales pt_clust_5="13000.00000" pt_clust_6="13000.00000" pt_clust_7="13000.00000" pt_clust_8="13000.00000" pt_clust_9="90.03206"></scales>
<clustering>
<clus scale="   77.625">  5  6 -1 -1</clus>
<clus scale="   90.032">  1  9  2 -1</clus>
<clus scale="   85.646">  2  5  1 -1</clus>
<clus scale="   92.214">  7  8 -1 -1</clus>
<clus scale="   90.032">  1  5  2 -1</clus>
</clustering>
</event>
<event>
 9    1  0.8429841E-005  0.1661302E+03  0.7546771E-02  0.1205062E+00
         -2   -1    0    0    0  501 -0.00000000000E+00  0.00000000000E+00  0.25140841506E+03  0.25140841506E+03  0.00000000000E+00 0.  1.
         21   -1    0    0  501  502  0.00000000000E+00 -0.00000000000E+00 -0.32513954267E+03  0.32513954267E+03  0.00000000000E+00 0.  1.
        -24    2    1    2    0    0  0.14630324137E+02  0.59108087509E+02  0.14145979023E+03  0.17322834544E+03  0.79305580007E+02 0.  0.
         23    2    1    2    0    0  0.61206791011E+01 -0.18030262285E+03 -0.75152332308E+02  0.21696101986E+03  0.94221614112E+02 0.  0.
         11    1    3    3    0    0 -0.91264943512E+01  0.31891817612E+02  0.68719958258E+01  0.33876322947E+02  0.00000000000E+00 0. -1.
        -12    1    3    3    0    0  0.23756818488E+02  0.27216269897E+02  0.13458779440E+03  0.13935202250E+03  0.00000000000E+00 0.  1.
        -11    1    4    4    0    0  0.25226209274E+02 -0.11339379330E+03 -0.22591367212E+01  0.11618785519E+03  0.00000000000E+00 0.  1.
         11    1    4    4    0    0 -0.19105530173E+02 -0.66908829548E+02 -0.72893195587E+02  0.10077316467E+03  0.00000000000E+00 0. -1.
         -1    1    1    2    0  502 -0.20751003238E+02  0.12119453534E+03 -0.14003858553E+03  0.18635859242E+03  0.00000000000E+00 0.  1.
<scales pt_clust_5="13000.00000" pt_clust_6="13000.00000" pt_clust_7="13000.00000" pt_clust_8="13000.00000" pt_clust_9="136.82671"></scales>
<clustering>
<clus scale="   79.306">  5  6 -1 -1</clus>
<clus scale="   94.222">  7  8 -1 -1</clus>
<clus scale="   99.986">  1  5  2 -1</clus>
<clus scale="  136.827">  2  9  1 -1</clus>
<clus scale="  136.827">  2  5  1 -1</clus>
</clustering>
</event>
<event>
 9    1  0.8429841E-005  0.1565109E+03  0.7546771E-02  0.1195277E+00
         21   -1    0    0  501  502  0.00000000000E+00  0.00000000000E+00  0.10468943178E+03  0.10468943178E+03  0.00000000000E+00 0. -1.
          1   -1    0    0  502    0 -0.00000000000E+00 -0.00000000000E+00 -0.36233831652E+03  0.36233831652E+03  0.00000000000E+00 0. -1.
         23    2    1    2    0    0 -0.90331050435E+02  0.10787813893E+03 -0.16733764230E+03  0.23840621202E+03  0.95069679007E+02 0.  0.
        -24    2    1    2    0    0  0.33259376077E+02 -0.95902947093E+02 -0.10414633602E+02  0.12970718274E+03  0.80074510941E+02 0.  0.
         11    1    4    4    0    0  0.40812962129E+02 -0.10641268225E+03 -0.16922786976E+02  0.11522038683E+03  0.00000000000E+00 0. -1.
        -12    1    4    4    0    0 -0.75535860519E+01  0.10509735159E+02  0.65081533747E+01  0.14486795909E+02  0.00000000000E+00 0.  1.
        -13    1    3    3    0    0  0.19235314595E+02  0.28567050327E+02 -0.30542373461E+02  0.46031622485E+02  0.00000000000E+00 0.  1.
         13    1    3    3    0    0 -0.10956636503E+03  0.79311088604E+02 -0.13679526884E+03  0.19237458953E+03  0.00000000000E+00 0. -1.
          2    1    1    2  501    0  0.57071674359E+02 -0.11975191839E+02 -0.79896608838E+02  0.98914353547E+02  0.00000000000E+00 0. -1.
<scales pt_clust_5="13000.00000" pt_clust_6="13000.00000" pt_clust_7="13000.00000" pt_clust_8="13000.00000" pt_clust_9="58.31453"></scales>
<clustering>
<clus scale="   58.315">  1  9  2 -1</clus>
<clus scale="   80.075">  5  6 -1 -1</clus>
<clus scale="   95.070">  7  8 -1 -1</clus>
<clus scale="  147.883">  1  5  2 -1</clus>
<clus scale="   58.315">  1  5  2 -1</clus>
</clustering>
</event>
<event>
 9    1  0.8429841E-005  0.1938585E+03  0.7546771E-02  0.1192109E+00
         -2   -1    0    0    0  501 -0.00000000000E+00  0.00000000000E+00  0.40648883498E+02  0.40648883498E+02  0.00000000000E+00 0.  1.
         21   -1    0    0  501  502  0.00000000000E+00 -0.00000000000E+00 -0.13936594611E+04  0.13936594611E+04  0.00000000000E+00 0.  1.
        -24    2    1    2    0    0 -0.31510451011E+02 -0.11934043469E+01 -0.18930962997E+03  0.20687755898E+03  0.77238951792E+02 0.  0.
         23    2    1    2    0    0  0.33632365152E+02 -0.16731898204E+03 -0.84148296165E+03  0.86380273750E+03  0.94524160034E+02 0.  0.
         11    1    3    3    0    0  0.35330608923E+01 -0.30429222068E+02 -0.37859775940E+02  0.48700951830E+02  0.00000000000E+00 0. -1.
        -12    1    3    3    0    0 -0.35043511903E+02  0.29235817721E+02 -0.15144985402E+03  0.15817660715E+03  0.00000000000E+00 0.  1.
        -13    1    4    4    0    0 -0.24933598357E+02 -0.37260848463E+02 -0.11461114403E+03  0.12306814979E+03  0.00000000000E+00 0. -1.
         13    1    4    4    0    0  0.58565963509E+02 -0.13005813358E+03 -0.72687181762E+03  0.74073458771E+03  0.00000000000E+00 0.  1.
         -1    1    1    2    0  502 -0.21219141410E+01  0.16851238639E+03 -0.32221798599E+03  0.36362804812E+03  0.00000000000E+00 0.  1.
<scales pt_clust_5="13000.00000" pt_clust_6="13000.00000" pt_clust_7="13000.00000" pt_clust_8="13000.00000" pt_clust_9="169.25223"></scales>
<clustering>
<clus scale="   77.239">  5  6 -1 -1</clus>
<clus scale="   83.428">  1  5  2 -1</clus>
<clus scale="   94.524">  7  8 -1 -1</clus>
<clus scale="  169.252">  2  9  1 -1</clus>
<clus scale="  169.252">  2  5  1 -1</clus>
</clustering>
</event>
<event>
 9    1  0.8429841E-005  0.2926911E+03  0.7546771E-02  0.1089447E+00
          1   -1    0    0  502    0 -0.00000000000E+00  0.00000000000E+00  0.72863040925E+03  0.72863040925E+03  0.00000000000E+00 0. -1.
         21   -1    0    0  501  502  0.00000000000E+00 -0.00000000000E+00 -0.46383096932E+03  0.46383096932E+03  0.00000000000E+00 0. -1.
         23    2    1    2    0    0 -0.10561781583E+03  0.27898522520E+03  0.61389913689E+03  0.68882902247E+03  0.92872994043E+02 0.  0.
        -24    2    1    2    0    0  0.12465308002E+03 -0.14042370203E+03 -0.12467328998E+03  0.23919172167E+03  0.80075239816E+02 0.  0.
         13    1    4    4    0    0  0.13035587346E+03 -0.13047618420E+03 -0.95178853572E+02  0.20754686833E+03  0.00000000000E+00 0. -1.
        -14    1    4    4    0    0 -0.57027934336E+01 -0.99475178326E+01 -0.29494436406E+02  0.31644853340E+02  0.00000000000E+00 0.  1.
        -13    1    3    3    0    0  0.11671116602E+02  0.82426334292E+02  0.17710745830E+03  0.19569713164E+03  0.00000000000E+00 0.  1.
         13    1    3    3    0    0 -0.11728893243E+03  0.19655889091E+03  0.43679167859E+03  0.49313189083E+03  0.00000000000E+00 0. -1.
          2    1    1    2  501    0 -0.19035264194E+02 -0.13856152317E+03 -0.22442640698E+03  0.26444063443E+03  0.00000000000E+00 0. -1.
<scales pt_clust_5="13000.00000" pt_clust_6="13000.00000" pt_clust_7="13000.00000" pt_clust_8="13000.00000" pt_clust_9="139.86292"></scales>
<clustering>
<clus scale="   80.075">  5  6 -1 -1</clus>
<clus scale="   92.873">  7  8 -1 -1</clus>
<clus scale="  139.863">  2  9  1 -1</clus>
<clus scale="  288.885">  2  5  1 -1</clus>
<clus scale="  139.863">  2  5  1 -1</clus>
</clustering>
</event>
<event>
 9    1  0.8429841E-005  0.1396214E+03  0.7546771E-02  0.1229848E+00
         -4   -1    0    0    0  501 -0.00000000000E+00  0.00000000000E+00  0.89097711664E+02  0.89097711664E+02  0.00000000000E+00 0.  1.
         21   -1    0    0  501  502  0.00000000000E+00 -0.00000000000E+00 -0.55998062302E+03  0.55998062302E+03  0.00000000000E+00 0.  1.
        -24    2    1    2    0    0 -0.24140081072E+02  0.35120487348E+01  0.13714152018E+02  0.10080279064E+03  0.96840315132E+02 0.  0.
         23    2    1    2    0    0  0.10400792399E+02  0.10439433882E+03 -0.19486519342E+03  0.23879676772E+03  0.89694471438E+02 0.  0.
         13    1    3    3    0    0 -0.49806321111E+02  0.11077779383E+02 -0.22509386191E+02  0.55767905514E+02  0.00000000000E+00 0. -1.
        -14    1    3    3    0    0  0.25666240039E+02 -0.75657306487E+01  0.36223538209E+02  0.45034885127E+02  0.00000000000E+00 0.  1.
        -13    1    4    4    0    0  0.23531423800E+02 -0.75191446649E+01 -0.26753424801E+02  0.36414436438E+02  0.00000000000E+00 0. -1.
         13    1    4    4    0    0 -0.13130631401E+02  0.11191348348E+03 -0.16811176861E+03  0.20238233128E+03  0.00000000000E+00 0.  1.
         -3    1    1    2    0  502  0.13739288674E+02 -0.10790638755E+03 -0.28973186996E+03  0.30947877633E+03  0.00000000000E+00 0.  1.
<scales pt_clust_5="13000.00000" pt_clust_6="13000.00000" pt_clust_7="13000.00000" pt_clust_8="13000.00000" pt_clust_9="107.00018"></scales>
<clustering>
<clus scale="   89.694">  7  8 -1 -1</clus>
<clus scale="   96.840">  5  6 -1 -1</clus>
<clus scale="   99.866">  1  5  2 -1</clus>
<clus scale="  107.000">  2  9  1 -1</clus>
<clus scale="  107.000">  2  5  1 -1</clus>
</clustering>
</event>
<event>
 9    1  0.8429841E-005  0.1068034E+03  0.7546771E-02  0.1273622E+00
         -4   -1    0    0    0  501 -0.00000000000E+00  0.00000000000E+00  0.73177141126E+03  0.73177141126E+03  0.00000000000E+00 0.  1.
         21   -1    0    0  501  502  0.00000000000E+00 -0.00000000000E+00 -0.28000632919E+02  0.28000632919E+02  0.00000000000E+00 0. -1.
        -24    2    1    2    0    0  0.15608768455E+00  0.56941107321E+02  0.45397962269E+03  0.46408649467E+03  0.77694675849E+02 0.  0.
         23    2    1    2    0    0 -0.42191014411E+02 -0.31950921198E+02  0.19156980249E+03  0.21965154112E+03  0.93524687799E+02 0.  0.
         11    1    3    3    0    0 -0.23823611564E+02  0.61990651828E+02  0.38922643773E+03  0.39485139636E+03  0.00000000000E+00 0. -1.
        -12    1    3    3    0    0  0.23979699248E+02 -0.50495445065E+01  0.64753184965E+02  0.69235098316E+02  0.00000000000E+00 0.  1.
        -11    1    4    4    0    0  0.10327301686E+02 -0.35346852207E+02  0.14425665212E+03  0.14888262089E+03  0.00000000000E+00 0.  1.
         11    1    4    4    0    0 -0.52518316096E+02  0.33959310091E+01  0.47313150367E+02  0.70768920231E+02  0.00000000000E+00 0. -1.
         -3    1    1    2    0  502  0.42034926726E+02 -0.24990186124E+02  0.58221353167E+02  0.76034008391E+02  0.00000000000E+00 0.  1.
<scales pt_clust_5="13000.00000" pt_clust_6="13000.00000" pt_clust_7="13000.00000" pt_clust_8="13000.00000" pt_clust_9="48.90240"></scales>
<clustering>
<clus scale="   48.902">  2  9  1 -1</clus>
<clus scale="   77.695">  5  6 -1 -1</clus>
<clus scale="   93.255">  1  5  2 -1</clus>
<clus scale="   93.525">  7  8 -1 -1</clus>
<clus scale="   48.902">  2  5  1 -1</clus>
</clustering>
</event>
<event>
 9    1  0.8429841E-005  0.1439150E+03  0.7546771E-02  0.1210186E+00
         21   -1    0    0  501  502  0.00000000000E+00  0.00000000000E+00  0.26372049739E+02  0.26372049739E+02  0.00000000000E+00 0. -1.
          1   -1    0    0  502    0 -0.00000000000E+00 -0.00000000000E+00 -0.12630665185E+04  0.12630665185E+04  0.00000000000E+00 0. -1.
         23    2    1    2    0    0  0.14268285048E+03 -0.13472115858E+02 -0.78529264121E+03  0.80348034844E+03  0.91412495088E+02 0.  0.
        -24    2    1    2    0    0 -0.74550474985E+02 -0.34617396266E+00 -0.28208791452E+03  0.30292771177E+03  0.81447614366E+02 0.  0.
         11    1    4    4    0    0  0.14047039808E+02  0.14824042834E+02 -0.47229159997E+02  0.51455467419E+02  0.00000000000E+00 0. -1.
        -12    1    4    4    0    0 -0.88597514793E+02 -0.15170216797E+02 -0.23485875452E+03  0.25147224436E+03  0.00000000000E+00 0.  1.
        -11    1    3    3    0    0  0.10860807538E+03 -0.49960018333E+02 -0.52443815662E+03  0.53789134366E+03  0.00000000000E+00 0. -1.
         11    1    3    3    0    0  0.34074775095E+02  0.36487902475E+02 -0.26085448460E+03  0.26558900478E+03  0.00000000000E+00 0.  1.
          2    1    1    2  501    0 -0.68132375494E+02  0.13818289820E+02 -0.16931391307E+03  0.18303050807E+03  0.00000000000E+00 0. -1.
<scales pt_clust_5="13000.00000" pt_clust_6="13000.00000" pt_clust_7="13000.00000" pt_clust_8="13000.00000" pt_clust_9="69.51953"></scales>
<clustering>
<clus scale="   69.520">  1  9  2 -1</clus>
<clus scale="   81.448">  5  6 -1 -1</clus>
<clus scale="   91.412">  7  8 -1 -1</clus>
<clus scale="  137.801">  1  5  2 -1</clus>
<clus scale="   69.520">  1  5  2 -1</clus>
</clustering>
</event>
<event>
 9    1  0.8429841E-005  0.1004800E+03  0.7546771E-02  0.1285012E+00
         21   -1    0    0  501  502  0.00000000000E+00  0.00000000000E+00  0.20891419034E+02  0.20891419034E+02  0.00000000000E+00 0.  1.
          1   -1    0    0  502    0 -0.00000000000E+00 -0.00000000000E+00 -0.88941832594E+03  0.88941832594E+03  0.00000000000E+00 0. -1.
        -24    2    1    2    0    0 -0.35651758653E+02  0.12631800063E+02 -0.38410653841E+03  0.39462738784E+03  0.82233400258E+02 0.  0.
         23    2    1    2    0    0  0.36896211159E+02  0.50519214586E+02 -0.28043733254E+03  0.30214388689E+03  0.93446826943E+02 0.  0.
         13    1    3    3    0    0 -0.58232591183E+02  0.25382417777E+02 -0.29825581086E+03  0.30494561896E+03  0.00000000000E+00 0. -1.
        -14    1    3    3    0    0  0.22580832530E+02 -0.12750617714E+02 -0.85850727549E+02  0.89681768886E+02  0.00000000000E+00 0.  1.
        -11    1    4    4    0    0  0.26349796334E+02  0.73154401935E+02 -0.25461147972E+03  0.26621961591E+03  0.00000000000E+00 0.  1.
         11    1    4    4    0    0  0.10546414825E+02 -0.22635187349E+02 -0.25825852817E+02  0.35924270984E+02  0.00000000000E+00 0. -1.
          2    1    1    2  501    0 -0.12444525060E+01 -0.63151014649E+02 -0.20398303596E+03  0.21353847024E+03  0.00000000000E+00 0. -1.
<scales pt_clust_5="13000.00000" pt_clust_6="13000.00000" pt_clust_7="13000.00000" pt_clust_8="13000.00000" pt_clust_9="63.16331"></scales>
<clustering>
<clus scale="   63.163">  1  9  2 -1</clus>
<clus scale="   82.233">  5  6 -1 -1</clus>
<clus scale="   90.146">  2  5  1 -1</clus>
<clus scale="   93.447">  7  8 -1 -1</clus>
<clus scale="   63.163">  1  5  2 -1</clus>
</clustering>
</event>
<event>
 9    1  0.8429841E-005  0.1541346E+03  0.7546771E-02  0.1197110E+00
         21   -1    0    0  501  502  0.00000000000E+00  0.00000000000E+00  0.47702453526E+03  0.47702453526E+03  0.00000000000E+00 0. -1.
          3   -1    0    0  502    0 -0.00000000000E+00 -0.00000000000E+00 -0.10097935303E+03  0.10097935303E+03  0.00000000000E+00 0. -1.
         23    2    1    2    0    0  0.29096677758E+02  0.10973720415E+03  0.29949920941E+02  0.14834942755E+03  0.90673503617E+02 0.  0.
        -24    2    1    2    0    0 -0.74882335276E+02 -0.15016248431E+03  0.29975656645E+03  0.35298762079E+03  0.81179587743E+02 0.  0.
         11    1    4    4    0    0 -0.73750783302E+02 -0.14858343165E+03  0.23199380472E+03  0.28519701897E+03  0.00000000000E+00 0. -1.
        -12    1    4    4    0    0 -0.11315519748E+01 -0.15790526549E+01  0.67762761734E+02  0.67790601819E+02  0.00000000000E+00 0.  1.
        -13    1    3    3    0    0  0.47465685548E+02  0.17184624593E+02  0.48680074296E+01  0.50714890548E+02  0.00000000000E+00 0. -1.
         13    1    3    3    0    0 -0.18369007790E+02  0.92552579558E+02  0.25081913511E+02  0.97634537001E+02  0.00000000000E+00 0.  1.
          4    1    1    2  501    0  0.45785657518E+02  0.40425280158E+02  0.46338694835E+02  0.76666839958E+02  0.00000000000E+00 0. -1.
<scales pt_clust_5="13000.00000" pt_clust_6="13000.00000" pt_clust_7="13000.00000" pt_clust_8="13000.00000" pt_clust_9="61.07809"></scales>
<clustering>
<clus scale="   61.078">  1  9  2 -1</clus>
<clus scale="   81.180">  5  6 -1 -1</clus>
<clus scale="   90.674">  7  8 -1 -1</clus>
<clus scale="  148.748">  1  5  2 -1</clus>
<clus scale="   61.078">  1  5  2 -1</clus>
</clustering>
</event>
<event>
 9    1  0.8429841E-005  0.9515386E+02  0.7546771E-02  0.1297388E+00
         21   -1    0    0  501  502  0.00000000000E+00  0.00000000000E+00  0.13011246084E+03  0.13011246084E+03  0.00000000000E+00 0.  1.
          1   -1    0    0  502    0 -0.00000000000E+00 -0.00000000000E+00 -0.15093229185E+03  0.15093229185E+03  0.00000000000E+00 0. -1.
        -24    2    1    2    0    0 -0.61922362546E+01  0.26607127702E+02 -0.97790916976E+02  0.12923501738E+03  0.79952130935E+02 0.  0.
         23    2    1    2    0    0 -0.23177716264E+02 -0.25066680803E+02  0.73590951421E+02  0.12220580993E+03  0.91395223249E+02 0.  0.
         13    1    3    3    0    0 -0.22444252789E+02  0.49343685794E+02 -0.49335951350E+02  0.73297884735E+02  0.00000000000E+00 0. -1.
        -14    1    3    3    0    0  0.16252016534E+02 -0.22736558092E+02 -0.48454965626E+02  0.55937132650E+02  0.00000000000E+00 0.  1.
        -13    1    4    4    0    0  0.26236523762E+02 -0.54252498208E+01  0.62340820349E+02  0.67854007962E+02  0.00000000000E+00 0.  1.
         13    1    4    4    0    0 -0.49414240026E+02 -0.19641430982E+02  0.11250131072E+02  0.54351801971E+02  0.00000000000E+00 0. -1.
          2    1    1    2  501    0  0.29369952519E+02 -0.15404468996E+01  0.33801345498E+01  0.29603925368E+02  0.00000000000E+00 0. -1.
<scales pt_clust_5="13000.00000" pt_clust_6="13000.00000" pt_clust_7="13000.00000" pt_clust_8="13000.00000" pt_clust_9="29.41032"></scales>
<clustering>
<clus scale="   29.410">  1  9  2 -1</clus>
<clus scale="   79.952">  5  6 -1 -1</clus>
<clus scale="   84.223">  2  5  1 -1</clus>
<clus scale="   91.395">  7  8 -1 -1</clus>
<clus scale="   29.410">  1  5  2 -1</clus>
</clustering>
</event>
<event>
 9    1  0.8429841E-005  0.1399640E+03  0.7546771E-02  0.1215647E+00
          1   -1    0    0  502    0 -0.00000000000E+00  0.00000000000E+00  0.22927509432E+03  0.22927509432E+03  0.00000000000E+00 0. -1.
         21   -1    0    0  501  502  0.00000000000E+00 -0.00000000000E+00 -0.14511558035E+03  0.14511558035E+03  0.00000000000E+00 0.  1.
        -24    2    1    2    0    0 -0.22142165906E+02  0.12550239236E+03  0.78023779259E+02  0.16971385843E+03  0.80460907368E+02 0.  0.
         23    2    1    2    0    0  0.64928881751E+02 -0.61485984755E+02  0.17719928740E+01  0.12755453841E+03  0.90943577581E+02 0.  0.
         11    1    3    3    0    0 -0.24715740944E+02  0.93496054262E+01 -0.50296056146E+01  0.26899440602E+02  0.00000000000E+00 0. -1.
        -12    1    3    3    0    0  0.25735750382E+01  0.11615278693E+03  0.83053384873E+02  0.14281441783E+03  0.00000000000E+00 0.  1.
        -13    1    4    4    0    0  0.72858209396E+02 -0.22886392667E+02 -0.24490738928E+02  0.80199139266E+02  0.00000000000E+00 0.  1.
         13    1    4    4    0    0 -0.79293276457E+01 -0.38599592088E+02  0.26262731802E+02  0.47355399143E+02  0.00000000000E+00 0. -1.
          2    1    1    2  501    0 -0.42786715845E+02 -0.64016407603E+02  0.43637418319E+01  0.77122277832E+02  0.00000000000E+00 0. -1.
<scales pt_clust_5="13000.00000" pt_clust_6="13000.00000" pt_clust_7="13000.00000" pt_clust_8="13000.00000" pt_clust_9="76.99872"></scales>
<clustering>
<clus scale="   76.999">  2  9  1 -1</clus>
<clus scale="   80.461">  5  6 -1 -1</clus>
<clus scale="   90.944">  7  8 -1 -1</clus>
<clus scale="  133.391">  1  5  2 -1</clus>
<clus scale="   76.999">  2  5  1 -1</clus>
</clustering>
</event>
<event>
 9    1  0.8429841E-005  0.1537943E+03  0.7546771E-02  0.1197795E+00
         21   -1    0    0  501  502  0.00000000000E+00  0.00000000000E+00  0.84810017532E+02  0.84810017532E+02  0.00000000000E+00 0.  1.
          1   -1    0    0  502    0 -0.00000000000E+00 -0.00000000000E+00 -0.50525472529E+03  0.50525472529E+03  0.00000000000E+00 0. -1.
         23    2    1    2    0    0  0.12570109498E+03 -0.61978378599E+02 -0.21327769548E+03  0.27096137848E+03  0.91052778882E+02 0.  0.
        -24    2    1    2    0    0 -0.54604012860E+02  0.96820358284E+02 -0.55018433994E+02  0.14758675142E+03  0.79994006761E+02 0.  0.
         11    1    4    4    0    0 -0.28818583723E+02  0.82992489974E+02 -0.72148149550E+02  0.11368209905E+03  0.00000000000E+00 0. -1.
        -12    1    4    4    0    0 -0.25785429137E+02  0.13827868310E+02  0.17129715556E+02  0.33904652377E+02  0.00000000000E+00 0.  1.
        -13    1    3    3    0    0  0.46740896939E+02 -0.59332664158E+02 -0.53005814698E+02  0.92275093468E+02  0.00000000000E+00 0. -1.
         13    1    3    3    0    0  0.78960198045E+02 -0.26457144409E+01 -0.16027188078E+03  0.17868628501E+03  0.00000000000E+00 0.  1.
          2    1    1    2  501    0 -0.71097082124E+02 -0.34841979685E+02 -0.15214857829E+03  0.17151661292E+03  0.00000000000E+00 0. -1.
<scales pt_clust_5="13000.00000" pt_clust_6="13000.00000" pt_clust_7="13000.00000" pt_clust_8="13000.00000" pt_clust_9="79.17553"></scales>
<clustering>
<clus scale="   79.176">  1  9  2 -1</clus>
<clus scale="   79.994">  5  6 -1 -1</clus>
<clus scale="   91.053">  7  8 -1 -1</clus>
<clus scale="  147.516">  1  5  2 -1</clus>
<clus scale="   79.176">  1  5  2 -1</clus>
</clustering>
</event>
<event>
 9    1  0.8429841E-005  0.9255587E+02  0.7546771E-02  0.1303629E+00
          3   -1    0    0  502    0 -0.00000000000E+00  0.00000000000E+00  0.84630821800E+02  0.84630821800E+02  0.00000000000E+00 0. -1.
         21   -1    0    0  501  502  0.00000000000E+00 -0.00000000000E+00 -0.23308198719E+03  0.23308198719E+03  0.00000000000E+00 0. -1.
         23    2    1    2    0    0  0.34503722300E+01 -0.16051859351E+01  0.10425700305E+02  0.92040626039E+02  0.91369031539E+02 0.  0.
        -24    2    1    2    0    0 -0.14047086523E+01  0.58762239535E+02 -0.12291201482E+03  0.15811047772E+03  0.80228335239E+02 0.  0.
         11    1    4    4    0    0  0.24259767826E+02  0.48899965724E+01 -0.82270387765E+02  0.85911961358E+02  0.00000000000E+00 0. -1.
        -12    1    4    4    0    0 -0.25664476478E+02  0.53872242962E+02 -0.40641627054E+02  0.72198516358E+02  0.00000000000E+00 0.  1.
        -13    1    3    3    0    0  0.37828799930E+02  0.92023941004E+01  0.31688485623E+02  0.50198229874E+02  0.00000000000E+00 0.  1.
         13    1    3    3    0    0 -0.34378427700E+02 -0.10807580036E+02 -0.21262785318E+02  0.41842396165E+02  0.00000000000E+00 0. -1.
          4    1    1    2  501    0 -0.20456635777E+01 -0.57157053599E+02 -0.35964850877E+02  0.67561705235E+02  0.00000000000E+00 0. -1.
<scales pt_clust_5="13000.00000" pt_clust_6="13000.00000" pt_clust_7="13000.00000" pt_clust_8="13000.00000" pt_clust_9="57.19365"></scales>
<clustering>
<clus scale="   57.194">  2  9  1 -1</clus>
<clus scale="   80.228">  5  6 -1 -1</clus>
<clus scale="   81.577">  2  5  1 -1</clus>
<clus scale="   91.369">  7  8 -1 -1</clus>
<clus scale="   57.194">  2  5  1 -1</clus>
</clustering>
</event>
<event>
 9    1  0.8429841E-005  0.9130802E+02  0.7546771E-02  0.1306882E+00
          1   -1    0    0  502    0 -0.00000000000E+00  0.00000000000E+00  0.44512293526E+03  0.44512293526E+03  0.00000000000E+00 0. -1.
         21   -1    0    0  501  502  0.00000000000E+00 -0.00000000000E+00 -0.92950392559E+02  0.92950392559E+02  0.00000000000E+00 0. -1.
        -24    2    1    2    0    0  0.28398891597E+00 -0.66093675736E+01  0.29722040775E+03  0.30784178707E+03  0.79892619760E+02 0.  0.
         23    2    1    2    0    0  0.19519096157E+02 -0.38835089912E+02  0.11454994862E+03  0.15271212198E+03  0.91159981056E+02 0.  0.
         11    1    3    3    0    0  0.39630166860E+02  0.19010335334E+01  0.15929600516E+03  0.16416266724E+03  0.00000000000E+00 0. -1.
        -12    1    3    3    0    0 -0.39346177944E+02 -0.85104011069E+01  0.13792440259E+03  0.14367911983E+03  0.00000000000E+00 0.  1.
        -11    1    4    4    0    0  0.41896079605E+02 -0.35904353562E+02  0.11763679397E+03  0.12993390392E+03  0.00000000000E+00 0. -1.
         11    1    4    4    0    0 -0.22376983448E+02 -0.29307363500E+01 -0.30868453505E+01  0.22778218060E+02  0.00000000000E+00 0.  1.
          2    1    1    2  501    0 -0.19803085073E+02  0.45444457485E+02 -0.59597813664E+02  0.77519418780E+02  0.00000000000E+00 0. -1.
<scales pt_clust_5="13000.00000" pt_clust_6="13000.00000" pt_clust_7="13000.00000" pt_clust_8="13000.00000" pt_clust_9="49.57178"></scales>
<clustering>
<clus scale="   49.572">  2  9  1 -1</clus>
<clus scale="   79.893">  5  6 -1 -1</clus>
<clus scale="   80.061">  1  5  2 -1</clus>
<clus scale="   91.160">  7  8 -1 -1</clus>
<clus scale="   49.572">  2  5  1 -1</clus>
</clustering>
</event>
<event>
 9    1  0.8429841E-005  0.1143093E+03  0.7546771E-02  0.1258347E+00
         21   -1    0    0  501  502  0.00000000000E+00  0.00000000000E+00  0.39232144844E+03  0.39232144844E+03  0.00000000000E+00 0. -1.
         -4   -1    0    0    0  501 -0.00000000000E+00 -0.00000000000E+00 -0.38392218994E+02  0.38392218994E+02  0.00000000000E+00 0.  1.
         23    2    1    2    0    0 -0.12890939307E+02  0.76272972315E+02  0.16092752524E+03  0.20128086855E+03  0.92911662573E+02 0.  0.
        -24    2    1    2    0    0  0.11369954463E+02 -0.54039479082E+02  0.17976520110E+03  0.20351279443E+03  0.77797100253E+02 0.  0.
         13    1    4    4    0    0 -0.25126166845E+02 -0.11290742501E+02  0.11265084486E+03  0.11596990116E+03  0.00000000000E+00 0. -1.
        -14    1    4    4    0    0  0.36496121308E+02 -0.42748736581E+02  0.67114356239E+02  0.87542893276E+02  0.00000000000E+00 0.  1.
        -11    1    3    3    0    0 -0.16753160106E+02  0.96126160585E+02  0.11322894177E+03  0.14947140321E+03  0.00000000000E+00 0.  1.
         11    1    3    3    0    0  0.38622207996E+01 -0.19853188270E+02  0.47698583472E+02  0.51809465343E+02  0.00000000000E+00 0. -1.
         -3    1    1    2    0  502  0.15209848433E+01 -0.22233493233E+02  0.13236503103E+02  0.25920004449E+02  0.00000000000E+00 0.  1.
<scales pt_clust_5="13000.00000" pt_clust_6="13000.00000" pt_clust_7="13000.00000" pt_clust_8="13000.00000" pt_clust_9="22.28547"></scales>
<clustering>
<clus scale="   22.285">  1  9  2 -1</clus>
<clus scale="   77.797">  5  6 -1 -1</clus>
<clus scale="   92.912">  7  8 -1 -1</clus>
<clus scale="  102.403">  1  5  2 -1</clus>
<clus scale="   22.285">  1  5  2 -1</clus>
</clustering>
</event>
<event>
 9    1  0.8429841E-005  0.1182346E+03  0.7546771E-02  0.1250193E+00
         21   -1    0    0  501  502  0.00000000000E+00  0.00000000000E+00  0.78119642822E+03  0.78119642822E+03  0.00000000000E+00 0.  1.
         -2   -1    0    0    0  501 -0.00000000000E+00 -0.00000000000E+00 -0.26618597632E+02  0.26618597632E+02  0.00000000000E+00 0.  1.
         23    2    1    2    0    0  0.30646721752E+02  0.97301448222E+02  0.29384884908E+03  0.32386246631E+03  0.90182911876E+02 0.  0.
        -24    2    1    2    0    0 -0.59006378108E+01 -0.49093667250E+02  0.32732162314E+03  0.33995991361E+03  0.77384056485E+02 0.  0.
         11    1    4    4    0    0  0.21998663804E+01 -0.68537177612E+02  0.21467476117E+03  0.22536068249E+03  0.00000000000E+00 0. -1.
        -12    1    4    4    0    0 -0.81005041912E+01  0.19443510361E+02  0.11264686196E+03  0.11459923112E+03  0.00000000000E+00 0.  1.
        -11    1    3    3    0    0  0.35803267524E+01  0.10187375714E+03  0.18107694358E+03  0.20779783596E+03  0.00000000000E+00 0.  1.
         11    1    3    3    0    0  0.27066395000E+02 -0.45723089146E+01  0.11277190550E+03  0.11606463034E+03  0.00000000000E+00 0. -1.
         -1    1    1    2    0  502 -0.24746083942E+02 -0.48207780972E+02  0.13340735837E+03  0.14399264594E+03  0.00000000000E+00 0.  1.
<scales pt_clust_5="13000.00000" pt_clust_6="13000.00000" pt_clust_7="13000.00000" pt_clust_8="13000.00000" pt_clust_9="54.18821"></scales>
<clustering>
<clus scale="   54.188">  1  9  2 -1</clus>
<clus scale="   77.384">  5  6 -1 -1</clus>
<clus scale="   90.183">  7  8 -1 -1</clus>
<clus scale="  108.788">  1  5  2 -1</clus>
<clus scale="   54.188">  1  5  2 -1</clus>
</clustering>
</event>
<event>
 9    1  0.8429841E-005  0.9547553E+02  0.7546771E-02  0.1293074E+00
          1   -1    0    0  502    0 -0.00000000000E+00  0.00000000000E+00  0.51079783900E+03  0.51079783900E+03  0.00000000000E+00 0. -1.
         21   -1    0    0  501  502  0.00000000000E+00 -0.00000000000E+00 -0.12305812126E+03  0.12305812126E+03  0.00000000000E+00 0. -1.
        -24    2    1    2    0    0 -0.41001276313E+02 -0.19449842374E+02  0.42375024225E+03  0.43363659297E+03  0.80106341417E+02 0.  0.
         23    2    1    2    0    0 -0.22400585676E+02 -0.19199045064E+02 -0.73706628877E+02  0.11694554854E+03  0.85867366408E+02 0.  0.
         13    1    3    3    0    0 -0.19616268131E+02  0.27346631140E+02  0.92869175705E+02  0.98779147628E+02  0.00000000000E+00 0. -1.
        -14    1    3    3    0    0 -0.21385008182E+02 -0.46796473514E+02  0.33088106654E+03  0.33485744535E+03  0.00000000000E+00 0.  1.
        -13    1    4    4    0    0 -0.15193630820E+02 -0.51707278044E+02 -0.28996899071E+02  0.61198931166E+02  0.00000000000E+00 0. -1.
         13    1    4    4    0    0 -0.72069548564E+01  0.32508232979E+02 -0.44709729806E+02  0.55746617378E+02  0.00000000000E+00 0.  1.
          2    1    1    2  501    0  0.63401861989E+02  0.38648887438E+02  0.37696104367E+02  0.83273818745E+02  0.00000000000E+00 0. -1.
<scales pt_clust_5="13000.00000" pt_clust_6="13000.00000" pt_clust_7="13000.00000" pt_clust_8="13000.00000" pt_clust_9="74.25317"></scales>
<clustering>
<clus scale="   74.253">  2  9  1 -1</clus>
<clus scale="   80.106">  5  6 -1 -1</clus>
<clus scale="   85.867">  7  8 -1 -1</clus>
<clus scale="   90.329">  1  5  2 -1</clus>
<clus scale="   74.253">  2  5  1 -1</clus>
</clustering>
</event>
<event>
 9    1  0.8429841E-005  0.1051877E+03  0.7546771E-02  0.1273960E+00
         -2   -1    0    0    0  501 -0.00000000000E+00  0.00000000000E+00  0.38267072229E+03  0.38267072229E+03  0.00000000000E+00 0.  1.
         21   -1    0    0  501  502  0.00000000000E+00 -0.00000000000E+00 -0.11345035678E+03  0.11345035678E+03  0.00000000000E+00 0.  1.
         23    2    1    2    0    0  0.19937423105E+02 -0.47643213323E+02  0.31009672417E+03  0.32793199223E+03  0.93338291038E+02 0.  0.
        -24    2    1    2    0    0  0.19162074450E+02  0.24603732267E+02 -0.70491783348E+02  0.11399811179E+03  0.83987792169E+02 0.  0.
         13    1    4    4    0    0  0.23406382794E+02  0.30696423363E+02 -0.87392399029E+02  0.95538267573E+02  0.00000000000E+00 0. -1.
        -14    1    4    4    0    0 -0.42443083449E+01 -0.60926910960E+01  0.16900615681E+02  0.18459844217E+02  0.00000000000E+00 0.  1.
        -11    1    3    3    0    0  0.33465979280E+02  0.15667975574E+02  0.68732476475E+02  0.78035956777E+02  0.00000000000E+00 0. -1.
         11    1    3    3    0    0 -0.13528556175E+02 -0.63311188897E+02  0.24136424770E+03  0.24989603546E+03  0.00000000000E+00 0.  1.
         -1    1    1    2    0  502 -0.39099497554E+02  0.23039481056E+02  0.29615424686E+02  0.54190975039E+02  0.00000000000E+00 0.  1.
<scales pt_clust_5="13000.00000" pt_clust_6="13000.00000" pt_clust_7="13000.00000" pt_clust_8="13000.00000" pt_clust_9="45.38271"></scales>
<clustering>
<clus scale="   45.383">  2  9  1 -1</clus>
<clus scale="   83.988">  5  6 -1 -1</clus>
<clus scale="   93.338">  7  8 -1 -1</clus>
<clus scale="   96.986">  2  5  1 -1</clus>
<clus scale="   45.383">  2  5  1 -1</clus>
</clustering>
</event>
<event>
 9    1  0.8429841E-005  0.9834337E+02  0.7546771E-02  0.1288383E+00
         21   -1    0    0  501  502  0.00000000000E+00  0.00000000000E+00  0.16569457378E+03  0.16569457378E+03  0.00000000000E+00 0. -1.
         -4   -1    0    0    0  501 -0.00000000000E+00 -0.00000000000E+00 -0.72458397615E+02  0.72458397615E+02  0.00000000000E+00 0.  1.
         23    2    1    2    0    0  0.26615642889E+02  0.17488340895E+02  0.20056152241E+02  0.96909331389E+02  0.89302490189E+02 0.  0.
        -24    2    1    2    0    0 -0.45664082911E+02 -0.30979186088E+02  0.60491690149E+02  0.11467599455E+03  0.80289605238E+02 0.  0.
         11    1    4    4    0    0 -0.28385182937E+02 -0.49799926419E+02  0.67134691096E+02  0.88276939402E+02  0.00000000000E+00 0. -1.
        -12    1    4    4    0    0 -0.17278899973E+02  0.18820740331E+02 -0.66430009471E+01  0.26399055144E+02  0.00000000000E+00 0.  1.
        -13    1    3    3    0    0  0.11440110919E+02 -0.24815804799E+02 -0.22210131153E+02  0.35213495019E+02  0.00000000000E+00 0.  1.
         13    1    3    3    0    0  0.15175531971E+02  0.42304145694E+02  0.42266283394E+02  0.61695836370E+02  0.00000000000E+00 0. -1.
         -3    1    1    2    0  502  0.19048440021E+02  0.13490845193E+02  0.12688333776E+02  0.26567645460E+02  0.00000000000E+00 0.  1.
<scales pt_clust_5="13000.00000" pt_clust_6="13000.00000" pt_clust_7="13000.00000" pt_clust_8="13000.00000" pt_clust_9="23.34194"></scales>
<clustering>
<clus scale="   23.342">  1  9  2 -1</clus>
<clus scale="   80.290">  5  6 -1 -1</clus>
<clus scale="   89.302">  7  8 -1 -1</clus>
<clus scale="   90.238">  1  5  2 -1</clus>
<clus scale="   23.342">  1  5  2 -1</clus>
</clustering>
</event>
<event>
 9    1  0.8429841E-005  0.9935037E+02  0.7546771E-02  0.1287100E+00
          3   -1    0    0  502    0 -0.00000000000E+00  0.00000000000E+00  0.73069275994E+03  0.73069275994E+03  0.00000000000E+00 0. -1.
         21   -1    0    0  501  502  0.00000000000E+00 -0.00000000000E+00 -0.16318205314E+03  0.16318205314E+03  0.00000000000E+00 0. -1.
         23    2    1    2    0    0  0.26675609746E+02  0.20339278453E+02  0.42466412479E+03  0.43536779414E+03  0.89890060021E+02 0.  0.
        -24    2    1    2    0    0 -0.41798054195E+02 -0.35775600215E+02  0.29216711099E+03  0.30763094817E+03  0.79045611010E+02 0.  0.
         11    1    4    4    0    0 -0.61342815714E+02 -0.31978207475E+02  0.26541975673E+03  0.27428670047E+03  0.00000000000E+00 0. -1.
        -12    1    4    4    0    0  0.19544761519E+02 -0.37973927403E+01  0.26747354269E+02  0.33344247702E+02  0.00000000000E+00 0.  1.
        -13    1    3    3    0    0 -0.12443673963E+02 -0.29421262205E+02  0.11857514166E+03  0.12280276834E+03  0.00000000000E+00 0. -1.
         13    1    3    3    0    0  0.39119283708E+02  0.49760540658E+02  0.30608898312E+03  0.31256502580E+03  0.00000000000E+00 0.  1.
          4    1    1    2  501    0  0.15122444449E+02  0.15436321762E+02 -0.14932052898E+03  0.15087607077E+03  0.00000000000E+00 0. -1.
<scales pt_clust_5="13000.00000" pt_clust_6="13000.00000" pt_clust_7="13000.00000" pt_clust_8="13000.00000" pt_clust_9="21.60945"></scales>
<clustering>
<clus scale="   21.609">  2  9  1 -1</clus>
<clus scale="   79.046">  5  6 -1 -1</clus>
<clus scale="   89.658">  2  5  1 -1</clus>
<clus scale="   89.890">  7  8 -1 -1</clus>
<clus scale="   21.609">  2  5  1 -1</clus>
</clustering>
</event>
<event>
 9    1  0.8429841E-005  0.2103831E+03  0.7546771E-02  0.1166065E+00
          1   -1    0    0  502    0 -0.00000000000E+00  0.00000000000E+00  0.11397184506E+03  0.11397184506E+03  0.00000000000E+00 0. -1.
         21   -1    0    0  501  502  0.00000000000E+00 -0.00000000000E+00 -0.69443833004E+03  0.69443833004E+03  0.00000000000E+00 0. -1.
        -24    2    1    2    0    0  0.26746149736E+02  0.80490255333E+02 -0.29405667638E+02  0.12096078299E+03  0.81072683458E+02 0.  0.
         23    2    1    2    0    0  0.14687408983E+03  0.52438833035E+02 -0.16866879552E+03  0.24695218613E+03  0.90633273026E+02 0.  0.
         13    1    3    3    0    0  0.47714948996E+02  0.69736283548E+02 -0.16008006211E+01  0.84512887558E+02  0.00000000000E+00 0. -1.
        -14    1    3    3    0    0 -0.20968799261E+02  0.10753971785E+02 -0.27804867017E+02  0.36447895432E+02  0.00000000000E+00 0.  1.
        -13    1    4    4    0    0  0.98322977381E+02 -0.12091595098E+02 -0.83202867819E+02  0.12936897529E+03  0.00000000000E+00 0. -1.
         13    1    4    4    0    0  0.48551112448E+02  0.64530428133E+02 -0.85465927698E+02  0.11758321084E+03  0.00000000000E+00 0.  1.
          2    1    1    2  501    0 -0.17362023957E+03 -0.13292908837E+03 -0.38239202183E+03  0.44049720598E+03  0.00000000000E+00 0. -1.
<scales pt_clust_5="13000.00000" pt_clust_6="13000.00000" pt_clust_7="13000.00000" pt_clust_8="13000.00000" pt_clust_9="189.85952"></scales>
<clustering>
<clus scale="   81.073">  5  6 -1 -1</clus>
<clus scale="   90.633">  7  8 -1 -1</clus>
<clus scale="  117.332">  1  5  2 -1</clus>
<clus scale="  189.860">  2  9  1 -1</clus>
<clus scale="  189.860">  2  5  1 -1</clus>
</clustering>
</event>
<event>
 9    1  0.8429841E-005  0.1246317E+03  0.7546771E-02  0.1236712E+00
         21   -1    0    0  501  502  0.00000000000E+00  0.00000000000E+00  0.41255412344E+03  0.41255412344E+03  0.00000000000E+00 0. -1.
         -2   -1    0    0    0  501 -0.00000000000E+00 -0.00000000000E+00 -0.51331873632E+02  0.51331873632E+02  0.00000000000E+00 0.  1.
         23    2    1    2    0    0 -0.41830805962E+02  0.73855121630E+02  0.94284538757E+02  0.15184977286E+03  0.83452884606E+02 0.  0.
        -24    2    1    2    0    0  0.66252562491E+02 -0.85807402337E+02  0.22434097102E+03  0.26150146918E+03  0.79384096451E+02 0.  0.
         13    1    4    4    0    0  0.58486540728E+02 -0.33555800406E+02  0.18106466827E+03  0.19321252880E+03  0.00000000000E+00 0. -1.
        -14    1    4    4    0    0  0.77660217630E+01 -0.52251601931E+02  0.43276302748E+02  0.68288940378E+02  0.00000000000E+00 0.  1.
        -11    1    3    3    0    0 -0.65525175785E+02  0.55855881339E+02  0.84208035673E+02  0.12043430331E+03  0.00000000000E+00 0.  1.
         11    1    3    3    0    0  0.23694369823E+02  0.17999240292E+02  0.10076503084E+02  0.31415469545E+02  0.00000000000E+00 0. -1.
         -1    1    1    2    0  502 -0.24421756528E+02  0.11952280707E+02  0.42596740024E+02  0.50534755037E+02  0.00000000000E+00 0.  1.
<scales pt_clust_5="13000.00000" pt_clust_6="13000.00000" pt_clust_7="13000.00000" pt_clust_8="13000.00000" pt_clust_9="27.18969"></scales>
<clustering>
<clus scale="   27.190">  1  9  2 -1</clus>
<clus scale="   79.384">  5  6 -1 -1</clus>
<clus scale="   83.453">  7  8 -1 -1</clus>
<clus scale="  121.945">  1  5  2 -1</clus>
<clus scale="   27.190">  1  5  2 -1</clus>
</clustering>
</event>
<event>
 9    1  0.8429841E-005  0.2454160E+03  0.7546771E-02  0.1150603E+00
         21   -1    0    0  501  502  0.00000000000E+00  0.00000000000E+00  0.95566660826E+02  0.95566660826E+02  0.00000000000E+00 0. -1.
          1   -1    0    0  502    0 -0.00000000000E+00 -0.00000000000E+00 -0.12317868554E+04  0.12317868554E+04  0.00000000000E+00 0. -1.
         23    2    1    2    0    0  0.53871976337E+02 -0.10377800195E+02 -0.13276160113E+03  0.16992026915E+03  0.90759939196E+02 0.  0.
        -24    2    1    2    0    0 -0.24402887710E+03 -0.10546739828E+03 -0.82943518486E+03  0.87483122364E+03  0.81813684670E+02 0.  0.
         13    1    4    4    0    0 -0.20010014503E+03 -0.11573010367E+03 -0.72798197207E+03  0.76380054765E+03  0.00000000000E+00 0. -1.
        -14    1    4    4    0    0 -0.43928732067E+02  0.10262705387E+02 -0.10145321279E+03  0.11103067598E+03  0.00000000000E+00 0.  1.
        -13    1    3    3    0    0  0.41863998543E+02  0.33658579987E+02 -0.10073068342E+03  0.11415850807E+03  0.00000000000E+00 0.  1.
         13    1    3    3    0    0  0.12007977793E+02 -0.44036380182E+02 -0.32030917701E+02  0.55761761082E+02  0.00000000000E+00 0. -1.
          2    1    1    2  501    0  0.19015690076E+03  0.11584519848E+03 -0.17402340858E+03  0.28260202344E+03  0.00000000000E+00 0. -1.
<scales pt_clust_5="13000.00000" pt_clust_6="13000.00000" pt_clust_7="13000.00000" pt_clust_8="13000.00000" pt_clust_9="231.37742"></scales>
<clustering>
<clus scale="   81.814">  5  6 -1 -1</clus>
<clus scale="   90.760">  7  8 -1 -1</clus>
<clus scale="  106.053">  2  7  1 -1</clus>
<clus scale="  231.377">  1  9  2 -1</clus>
<clus scale="  231.377">  1  5  2 -1</clus>
</clustering>
</event>
<event>
 9    1  0.8429841E-005  0.2044981E+03  0.7546771E-02  0.1147040E+00
          1   -1    0    0  502    0 -0.00000000000E+00  0.00000000000E+00  0.11625768397E+04  0.11625768397E+04  0.00000000000E+00 0. -1.
         21   -1    0    0  501  502  0.00000000000E+00 -0.00000000000E+00 -0.43188340945E+02  0.43188340945E+02  0.00000000000E+00 0. -1.
         23    2    1    2    0    0  0.46715085882E+02  0.19536590069E+03  0.66332119495E+03  0.69893033448E+03  0.90324251371E+02 0.  0.
        -24    2    1    2    0    0 -0.49849637409E+02 -0.15580613237E+03  0.37825525055E+03  0.41948774366E+03  0.78309611685E+02 0.  0.
         13    1    4    4    0    0  0.10896145696E+02 -0.59644545403E+02  0.19102429316E+03  0.20041576376E+03  0.00000000000E+00 0. -1.
        -14    1    4    4    0    0 -0.60745783106E+02 -0.96161586963E+02  0.18723095739E+03  0.21907197990E+03  0.00000000000E+00 0.  1.
        -13    1    3    3    0    0  0.17546724282E+02  0.16196842414E+03  0.40004806775E+03  0.43194920357E+03  0.00000000000E+00 0.  1.
         13    1    3    3    0    0  0.29168361601E+02  0.33397476548E+02  0.26327312720E+03  0.26698113091E+03  0.00000000000E+00 0. -1.
          2    1    1    2  501    0  0.31345515269E+01 -0.39559768320E+02  0.77812053211E+02  0.87347102457E+02  0.00000000000E+00 0. -1.
<scales pt_clust_5="13000.00000" pt_clust_6="13000.00000" pt_clust_7="13000.00000" pt_clust_8="13000.00000" pt_clust_9="39.68376"></scales>
<clustering>
<clus scale="   39.684">  2  9  1 -1</clus>
<clus scale="   78.310">  5  6 -1 -1</clus>
<clus scale="   90.324">  7  8 -1 -1</clus>
<clus scale="  199.483">  2  5  1 -1</clus>
<clus scale="   39.684">  2  5  1 -1</clus>
</clustering>
</event>
<event>
 9    1  0.8429841E-005  0.1294565E+03  0.7546771E-02  0.1232967E+00
         21   -1    0    0  501  502  0.00000000000E+00  0.00000000000E+00  0.12119414310E+03  0.12119414310E+03  0.00000000000E+00 0. -1.
         -2   -1    0    0    0  501 -0.00000000000E+00 -0.00000000000E+00 -0.49142567887E+03  0.49142567887E+03  0.00000000000E+00 0.  1.
        -24    2    1    2    0    0  0.55448855753E+02 -0.72181904971E+02 -0.37765277799E+03  0.39525877642E+03  0.72959417531E+02 0.  0.
         23    2    1    2    0    0 -0.91887393472E+02  0.51305363293E+02 -0.48585581008E+02  0.14735846510E+03  0.90985851494E+02 0.  0.
         13    1    3    3    0    0  0.12248193442E+02 -0.31634867393E+02 -0.40003061790E+02  0.52450243375E+02  0.00000000000E+00 0. -1.
        -14    1    3    3    0    0  0.43200662311E+02 -0.40547037578E+02 -0.33764971620E+03  0.34280853304E+03  0.00000000000E+00 0.  1.
        -13    1    4    4    0    0 -0.85647744101E+02  0.17097189748E+02  0.33577229323E+00  0.87338208763E+02  0.00000000000E+00 0. -1.
         13    1    4    4    0    0 -0.62396493710E+01  0.34208173546E+02 -0.48921353301E+02  0.60020256334E+02  0.00000000000E+00 0.  1.
         -1    1    1    2    0  502  0.36438537719E+02  0.20876541678E+02  0.56006823216E+02  0.70002580454E+02  0.00000000000E+00 0.  1.
<scales pt_clust_5="13000.00000" pt_clust_6="13000.00000" pt_clust_7="13000.00000" pt_clust_8="13000.00000" pt_clust_9="41.99520"></scales>
<clustering>
<clus scale="   41.995">  1  9  2 -1</clus>
<clus scale="   72.959">  5  6 -1 -1</clus>
<clus scale="   90.986">  7  8 -1 -1</clus>
<clus scale="  117.489">  2  5  1 -1</clus>
<clus scale="   41.995">  1  5  2 -1</clus>
</clustering>
</event>
<event>
 9    1  0.8429841E-005  0.9967685E+02  0.7546771E-02  0.1286299E+00
         21   -1    0    0  501  502  0.00000000000E+00  0.00000000000E+00  0.29231450921E+03  0.29231450921E+03  0.00000000000E+00 0.  1.
         -2   -1    0    0    0  501 -0.00000000000E+00 -0.00000000000E+00 -0.10224992893E+03  0.10224992893E+03  0.00000000000E+00 0.  1.
         23    2    1    2    0    0 -0.20078276886E+02  0.26784740846E+02 -0.45301647955E+02  0.10694635075E+03  0.90910522423E+02 0.  0.
        -24    2    1    2    0    0  0.57250053367E+02 -0.46400182271E+02  0.10781345279E+03  0.15331910365E+03  0.80327214682E+02 0.  0.
         11    1    4    4    0    0  0.74983709064E+02 -0.22752691475E+02  0.68122830824E+02  0.10383140986E+03  0.00000000000E+00 0. -1.
        -12    1    4    4    0    0 -0.17733655696E+02 -0.23647490796E+02  0.39690621962E+02  0.49487693794E+02  0.00000000000E+00 0.  1.
        -13    1    3    3    0    0  0.24627325328E+02  0.98179405997E+01  0.14626508787E+02  0.30279231657E+02  0.00000000000E+00 0. -1.
         13    1    3    3    0    0 -0.44705602214E+02  0.16966800246E+02 -0.59928156742E+02  0.76667119096E+02  0.00000000000E+00 0.  1.
         -1    1    1    2    0  502 -0.37171776482E+02  0.19615441425E+02  0.12755277545E+03  0.13429898374E+03  0.00000000000E+00 0.  1.
<scales pt_clust_5="13000.00000" pt_clust_6="13000.00000" pt_clust_7="13000.00000" pt_clust_8="13000.00000" pt_clust_9="42.02983"></scales>
<clustering>
<clus scale="   42.030">  1  9  2 -1</clus>
<clus scale="   80.327">  5  6 -1 -1</clus>
<clus scale="   90.129">  1  5  2 -1</clus>
<clus scale="   90.911">  7  8 -1 -1</clus>
<clus scale="   42.030">  1  5  2 -1</clus>
</clustering>
</event>
<event>
 9    1  0.8429841E-005  0.1072481E+03  0.7546771E-02  0.1272696E+00
         -2   -1    0    0    0  501 -0.00000000000E+00  0.00000000000E+00  0.19231442841E+03  0.19231442841E+03  0.00000000000E+00 0.  1.
         21   -1    0    0  501  502  0.00000000000E+00 -0.00000000000E+00 -0.27448331799E+03  0.27448331799E+03  0.00000000000E+00 0.  1.
         23    2    1    2    0    0  0.14177608967E+02 -0.58435228484E+02  0.15741703826E+03  0.19212572715E+03  0.92284833938E+02 0.  0.
        -24    2    1    2    0    0 -0.22803058742E+02  0.10230325492E+02 -0.10984478133E+03  0.13599658466E+03  0.76187636839E+02 0.  0.
         13    1    4    4    0    0 -0.13551552776E+02  0.43532142024E+02 -0.64208990885E+02  0.78749517346E+02  0.00000000000E+00 0. -1.
        -14    1    4    4    0    0 -0.92515059657E+01 -0.33301816531E+02 -0.45635790445E+02  0.57247067318E+02  0.00000000000E+00 0.  1.
        -13    1    3    3    0    0 -0.19612807153E+02 -0.35892808038E+02  0.14258144490E+02  0.43315707977E+02  0.00000000000E+00 0.  1.
         13    1    3    3    0    0  0.33790416120E+02 -0.22542420446E+02  0.14315889377E+03  0.14881001918E+03  0.00000000000E+00 0. -1.
         -1    1    1    2    0  502  0.86254497743E+01  0.48204902992E+02 -0.12974114651E+03  0.13867543457E+03  0.00000000000E+00 0.  1.
<scales pt_clust_5="13000.00000" pt_clust_6="13000.00000" pt_clust_7="13000.00000" pt_clust_8="13000.00000" pt_clust_9="48.97051"></scales>
<clustering>
<clus scale="   48.971">  2  9  1 -1</clus>
<clus scale="   76.188">  5  6 -1 -1</clus>
<clus scale="   92.285">  7  8 -1 -1</clus>
<clus scale="   93.756">  2  5  1 -1</clus>
<clus scale="   48.971">  2  5  1 -1</clus>
</clustering>
</event>
<event>
 9    1  0.8429841E-005  0.3380110E+03  0.7546771E-02  0.1121427E+00
          1   -1    0    0  502    0 -0.00000000000E+00  0.00000000000E+00  0.84059541484E+03  0.84059541484E+03  0.00000000000E+00 0. -1.
         21   -1    0    0  501  502  0.00000000000E+00 -0.00000000000E+00 -0.18452888123E+03  0.18452888123E+03  0.00000000000E+00 0. -1.
        -24    2    1    2    0    0 -0.77460094108E+01  0.20512492653E+02  0.81095291985E+02  0.11566612344E+03  0.79507500984E+02 0.  0.
         23    2    1    2    0    0 -0.31415282131E+03  0.39181900074E+02  0.45077701044E+03  0.55930608453E+03  0.96933825942E+02 0.  0.
         13    1    3    3    0    0 -0.15189254360E+02 -0.17366543014E+02  0.72547274014E+02  0.76127637762E+02  0.00000000000E+00 0. -1.
        -14    1    3    3    0    0  0.74432449494E+01  0.37879035667E+02  0.85480179707E+01  0.39538485677E+02  0.00000000000E+00 0.  1.
        -13    1    4    4    0    0 -0.21425783581E+03 -0.19562882389E+02  0.29791742597E+03  0.36748322311E+03  0.00000000000E+00 0.  1.
         13    1    4    4    0    0 -0.99894985504E+02  0.58744782463E+02  0.15285958447E+03  0.19182286141E+03  0.00000000000E+00 0. -1.
          2    1    1    2  501    0  0.32189883072E+03 -0.59694392727E+02  0.12419423119E+03  0.35015208810E+03  0.00000000000E+00 0. -1.
<scales pt_clust_5="13000.00000" pt_clust_6="13000.00000" pt_clust_7="13000.00000" pt_clust_8="13000.00000" pt_clust_9="323.81363"></scales>
<clustering>
<clus scale="   79.508">  5  6 -1 -1</clus>
<clus scale="   82.475">  1  5  2 -1</clus>
<clus scale="   96.934">  7  8 -1 -1</clus>
<clus scale="  323.814">  2  9  1 -1</clus>
<clus scale="  323.814">  2  5  1 -1</clus>
</clustering>
</event>
<event>
 9    1  0.2439054E-004  0.9850309E+02  0.7546771E-02  0.1290864E+00
          3   -1    0    0  502    0 -0.00000000000E+00  0.00000000000E+00  0.44430286210E+03  0.44430286210E+03  0.00000000000E+00 0. -1.
         21   -1    0    0  501  502  0.00000000000E+00 -0.00000000000E+00 -0.10460943029E+03  0.10460943029E+03  0.00000000000E+00 0. -1.
         23    2    1    2    0    0 -0.25008098658E+02  0.16228500225E+02  0.40574895440E+03  0.41770190734E+03  0.94625050478E+02 0.  0.
        -24    2    1    2    0    0  0.81333861717E+00  0.46933791571E+01 -0.48218937760E+02  0.94587233791E+02  0.81234164672E+02 0.  0.
         13    1    4    4    0    0 -0.16746552165E+02  0.36477817523E+02 -0.41356546651E+02  0.57631954084E+02  0.00000000000E+00 0. -1.
        -14    1    4    4    0    0  0.17559890782E+02 -0.31784438366E+02 -0.68623911090E+01  0.36955279707E+02  0.00000000000E+00 0.  1.
        -13    1    3    3    0    0  0.23759372719E+01 -0.37478627301E+02  0.12335424136E+03  0.12894402446E+03  0.00000000000E+00 0.  1.
         13    1    3    3    0    0 -0.27384035930E+02  0.53707127526E+02  0.28239471304E+03  0.28875788287E+03  0.00000000000E+00 0. -1.
          4    1    1    2  501    0  0.24194760041E+02 -0.20921879382E+02 -0.17836584824E+02  0.36623151264E+02  0.00000000000E+00 0. -1.
<scales pt_clust_5="13000.00000" pt_clust_6="13000.00000" pt_clust_7="13000.00000" pt_clust_8="13000.00000" pt_clust_9="31.98611"></scales>
<clustering>
<clus scale="   31.986">  2  9  1 -1</clus>
<clus scale="   81.234">  5  6 -1 -1</clus>
<clus scale="   85.720">  2  5  1 -1</clus>
<clus scale="   94.625">  7  8 -1 -1</clus>
<clus scale="   31.986">  2  5  1 -1</clus>
</clustering>
</event>
<event>
 9    1  0.8429841E-005  0.1395143E+03  0.7546771E-02  0.1216982E+00
         21   -1    0    0  501  502  0.00000000000E+00  0.00000000000E+00  0.79609734930E+03  0.79609734930E+03  0.00000000000E+00 0. -1.
         -2   -1    0    0    0  501 -0.00000000000E+00 -0.00000000000E+00 -0.13269674371E+03  0.13269674371E+03  0.00000000000E+00 0.  1.
        -24    2    1    2    0    0  0.12583438924E+03 -0.19477114532E+02  0.34966024338E+03  0.38119989765E+03  0.82688721502E+02 0.  0.
         23    2    1    2    0    0 -0.73592916388E+02 -0.25805425680E+02  0.41050838301E+03  0.42866678145E+03  0.95688241995E+02 0.  0.
         13    1    3    3    0    0  0.16702495329E+02  0.21414524878E+02  0.12714234509E+03  0.13001050396E+03  0.00000000000E+00 0. -1.
        -14    1    3    3    0    0  0.10913189391E+03 -0.40891639410E+02  0.22251789829E+03  0.25118939368E+03  0.00000000000E+00 0.  1.
        -13    1    4    4    0    0 -0.73370434741E+01  0.31699226121E+02  0.72640762294E+02  0.79594933823E+02  0.00000000000E+00 0.  1.
         13    1    4    4    0    0 -0.66255872914E+02 -0.57504651800E+02  0.33786762072E+03  0.34907184762E+03  0.00000000000E+00 0. -1.
         -1    1    1    2    0  502 -0.52241472848E+02  0.45282540212E+02 -0.96768020791E+02  0.11892741392E+03  0.00000000000E+00 0.  1.
<scales pt_clust_5="13000.00000" pt_clust_6="13000.00000" pt_clust_7="13000.00000" pt_clust_8="13000.00000" pt_clust_9="69.13526"></scales>
<clustering>
<clus scale="   69.135">  1  9  2 -1</clus>
<clus scale="   82.689">  5  6 -1 -1</clus>
<clus scale="   95.688">  7  8 -1 -1</clus>
<clus scale="  130.941">  2  5  1 -1</clus>
<clus scale="   69.135">  1  5  2 -1</clus>
</clustering>
</event>
<event>
 9    1  0.8429841E-005  0.1067242E+03  0.7546771E-02  0.1266985E+00
          1   -1    0    0  502    0 -0.00000000000E+00  0.00000000000E+00  0.64838931662E+02  0.64838931662E+02  0.00000000000E+00 0. -1.
         21   -1    0    0  501  502  0.00000000000E+00 -0.00000000000E+00 -0.25846354384E+03  0.25846354384E+03  0.00000000000E+00 0.  1.
         23    2    1    2    0    0 -0.50958103287E+02 -0.38242962666E+02 -0.47510529057E+02  0.12133325182E+03  0.91680178564E+02 0.  0.
        -24    2    1    2    0    0  0.35905036521E+02  0.22277046737E+02 -0.71271398681E+02  0.12397606562E+03  0.92222633436E+02 0.  0.
         11    1    4    4    0    0  0.49366508711E+02  0.40685790480E+02 -0.77348040423E+02  0.10037482297E+03  0.00000000000E+00 0. -1.
        -12    1    4    4    0    0 -0.13461472189E+02 -0.18408743744E+02  0.60766417416E+01  0.23601242649E+02  0.00000000000E+00 0.  1.
        -13    1    3    3    0    0 -0.68431249092E+01  0.24228289047E+02  0.84632781391E+01  0.26560599118E+02  0.00000000000E+00 0. -1.
         13    1    3    3    0    0 -0.44114978378E+02 -0.62471251713E+02 -0.55973807197E+02  0.94772652700E+02  0.00000000000E+00 0.  1.
          2    1    1    2  501    0  0.15053066765E+02  0.15965915929E+02 -0.74842684437E+02  0.77993158060E+02  0.00000000000E+00 0. -1.
<scales pt_clust_5="13000.00000" pt_clust_6="13000.00000" pt_clust_7="13000.00000" pt_clust_8="13000.00000" pt_clust_9="21.94323"></scales>
<clustering>
<clus scale="   21.943">  2  9  1 -1</clus>
<clus scale="   91.680">  7  8 -1 -1</clus>
<clus scale="   92.223">  5  6 -1 -1</clus>
<clus scale="  106.256">  1  7  2 -1</clus>
<clus scale="   21.943">  2  5  1 -1</clus>
</clustering>
</event>
<event>
 9    1  0.8429841E-005  0.1766649E+03  0.7546771E-02  0.1172703E+00
         -4   -1    0    0    0  501 -0.00000000000E+00  0.00000000000E+00  0.24038052041E+03  0.24038052041E+03  0.00000000000E+00 0.  1.
         21   -1    0    0  501  502  0.00000000000E+00 -0.00000000000E+00 -0.44123416167E+03  0.44123416167E+03  0.00000000000E+00 0. -1.
         23    2    1    2    0    0 -0.44511062319E+02  0.14741906837E+03  0.10741086957E+03  0.20951642599E+03  0.92986135899E+02 0.  0.
        -24    2    1    2    0    0 -0.26580399427E+01 -0.12765989404E+03 -0.36549619360E+03  0.39534661316E+03  0.80046007268E+02 0.  0.
         13    1    4    4    0    0 -0.10608156965E+02 -0.13617570335E+03 -0.35168534616E+03  0.37727832946E+03  0.00000000000E+00 0. -1.
        -14    1    4    4    0    0  0.79501170221E+01  0.85158093117E+01 -0.13810847446E+02  0.18068283706E+02  0.00000000000E+00 0.  1.
        -13    1    3    3    0    0 -0.68275477620E+02  0.10224771543E+03  0.50077474322E+02  0.13275499836E+03  0.00000000000E+00 0. -1.
         13    1    3    3    0    0  0.23764415301E+02  0.45171352936E+02  0.57333395245E+02  0.76761427625E+02  0.00000000000E+00 0.  1.
         -3    1    1    2    0  502  0.47169102261E+02 -0.19759174332E+02  0.57231682779E+02  0.76751642928E+02  0.00000000000E+00 0.  1.
<scales pt_clust_5="13000.00000" pt_clust_6="13000.00000" pt_clust_7="13000.00000" pt_clust_8="13000.00000" pt_clust_9="51.14051"></scales>
<clustering>
<clus scale="   51.141">  2  9  1 -1</clus>
<clus scale="   80.046">  5  6 -1 -1</clus>
<clus scale="   92.986">  7  8 -1 -1</clus>
<clus scale="  170.210">  2  5  1 -1</clus>
<clus scale="   51.141">  2  5  1 -1</clus>
</clustering>
</event>
<event>
 9    1  0.8429841E-005  0.1675968E+03  0.7546771E-02  0.1206029E+00
         21   -1    0    0  501  502  0.00000000000E+00  0.00000000000E+00  0.16976517832E+03  0.16976517832E+03  0.00000000000E+00 0.  1.
         -2   -1    0    0    0  501 -0.00000000000E+00 -0.00000000000E+00 -0.26266560788E+03  0.26266560788E+03  0.00000000000E+00 0.  1.
        -24    2    1    2    0    0  0.40786063125E+02 -0.33473639193E+02 -0.71125258880E+02  0.11897812025E+03  0.79454409455E+02 0.  0.
         23    2    1    2    0    0  0.28168948850E+02 -0.11197836399E+03 -0.36594286766E+02  0.15180278160E+03  0.91500267739E+02 0.  0.
         11    1    3    3    0    0  0.30593069780E+02 -0.29445658345E+02  0.43751524660E+01  0.42686352305E+02  0.00000000000E+00 0. -1.
        -12    1    3    3    0    0  0.10192993344E+02 -0.40279808475E+01 -0.75500411346E+02  0.76291767947E+02  0.00000000000E+00 0.  1.
        -11    1    4    4    0    0 -0.23621781130E+02  0.35697044196E+00 -0.61753987133E+01  0.24418262037E+02  0.00000000000E+00 0. -1.
         11    1    4    4    0    0  0.51790729980E+02 -0.11233533443E+03 -0.30418888053E+02  0.12738451956E+03  0.00000000000E+00 0.  1.
         -1    1    1    2    0  502 -0.68955011975E+02  0.14545200319E+03  0.14819116081E+02  0.16164988434E+03  0.00000000000E+00 0.  1.
<scales pt_clust_5="13000.00000" pt_clust_6="13000.00000" pt_clust_7="13000.00000" pt_clust_8="13000.00000" pt_clust_9="140.41507"></scales>
<clustering>
<clus scale="   79.454">  5  6 -1 -1</clus>
<clus scale="   91.500">  7  8 -1 -1</clus>
<clus scale="   95.378">  2  5  1 -1</clus>
<clus scale="  140.415">  1  9  2 -1</clus>
<clus scale="  140.415">  1  5  2 -1</clus>
</clustering>
</event>
<event>
 9    1  0.8429841E-005  0.9281287E+02  0.7546771E-02  0.1297044E+00
         -4   -1    0    0    0  501 -0.00000000000E+00  0.00000000000E+00  0.19672349267E+03  0.19672349267E+03  0.00000000000E+00 0.  1.
         21   -1    0    0  501  502  0.00000000000E+00 -0.00000000000E+00 -0.11949649515E+03  0.11949649515E+03  0.00000000000E+00 0. -1.
         23    2    1    2    0    0 -0.17945482488E+02 -0.46586235587E+01  0.14284048985E+03  0.17060921229E+03  0.91434975059E+02 0.  0.
        -24    2    1    2    0    0 -0.37912450543E+01  0.33444420832E+01 -0.79198655916E+02  0.11994427856E+03  0.89936889140E+02 0.  0.
         11    1    4    4    0    0  0.24680058979E+01  0.24649416981E+02 -0.91337637690E+02  0.94637460181E+02  0.00000000000E+00 0. -1.
        -12    1    4    4    0    0 -0.62592509522E+01 -0.21304974898E+02  0.12138981774E+02  0.25306818378E+02  0.00000000000E+00 0.  1.
        -13    1    3    3    0    0  0.33506977835E+02 -0.89352426986E+01  0.27561840587E+02  0.44296852961E+02  0.00000000000E+00 0. -1.
         13    1    3    3    0    0 -0.51452460322E+02  0.42766191399E+01  0.11527864926E+03  0.12631235933E+03  0.00000000000E+00 0.  1.
         -3    1    1    2    0  502  0.21736727542E+02  0.13141814755E+01  0.13585163583E+02  0.25666496971E+02  0.00000000000E+00 0.  1.
<scales pt_clust_5="13000.00000" pt_clust_6="13000.00000" pt_clust_7="13000.00000" pt_clust_8="13000.00000" pt_clust_9="21.77643"></scales>
<clustering>
<clus scale="   21.776">  2  9  1 -1</clus>
<clus scale="   89.937">  5  6 -1 -1</clus>
<clus scale="   91.337">  2  5  1 -1</clus>
<clus scale="   91.435">  7  8 -1 -1</clus>
<clus scale="   21.776">  2  5  1 -1</clus>
</clustering>
</event>
<event>
 9    1  0.8429841E-005  0.1554038E+03  0.7546771E-02  0.1219386E+00
          1   -1    0    0  502    0 -0.00000000000E+00  0.00000000000E+00  0.47184955228E+03  0.47184955228E+03  0.00000000000E+00 0. -1.
         21   -1    0    0  501  502  0.00000000000E+00 -0.00000000000E+00 -0.30489035704E+03  0.30489035704E+03  0.00000000000E+00 0. -1.
        -24    2    1    2    0    0 -0.22980711383E+02 -0.33697655849E+02 -0.81013554751E+02  0.12114024948E+03  0.80300179861E+02 0.  0.
         23    2    1    2    0    0 -0.36365717931E+02 -0.80033285077E+02  0.42140957704E+03  0.43987516292E+03  0.90423089786E+02 0.  0.
         13    1    3    3    0    0 -0.25494771321E+02 -0.58171831516E+02 -0.46325316394E+02  0.78612850639E+02  0.00000000000E+00 0. -1.
        -14    1    3    3    0    0  0.25140599380E+01  0.24474175667E+02 -0.34688238357E+02  0.42527398842E+02  0.00000000000E+00 0.  1.
        -13    1    4    4    0    0 -0.64813438401E+02 -0.65956353383E+02  0.27731448824E+03  0.29232575620E+03  0.00000000000E+00 0. -1.
         13    1    4    4    0    0  0.28447720470E+02 -0.14076931694E+02  0.14409508880E+03  0.14754940672E+03  0.00000000000E+00 0.  1.
          2    1    1    2  501    0  0.59346429314E+02  0.11373094093E+03 -0.17343682705E+03  0.21572449693E+03  0.00000000000E+00 0. -1.
<scales pt_clust_5="13000.00000" pt_clust_6="13000.00000" pt_clust_7="13000.00000" pt_clust_8="13000.00000" pt_clust_9="126.38826"></scales>
<clustering>
<clus scale="   80.300">  5  6 -1 -1</clus>
<clus scale="   90.065">  1  5  2 -1</clus>
<clus scale="   90.423">  7  8 -1 -1</clus>
<clus scale="  126.388">  2  9  1 -1</clus>
<clus scale="  126.388">  2  5  1 -1</clus>
</clustering>
</event>
<event>
 9    1  0.8429841E-005  0.1676573E+03  0.7546771E-02  0.1201841E+00
         21   -1    0    0  501  502  0.00000000000E+00  0.00000000000E+00  0.15727912423E+03  0.15727912423E+03  0.00000000000E+00 0. -1.
          1   -1    0    0  502    0 -0.00000000000E+00 -0.00000000000E+00 -0.42551727962E+03  0.42551727962E+03  0.00000000000E+00 0. -1.
        -24    2    1    2    0    0  0.49647126324E+02  0.45192561731E+02  0.65224034104E+02  0.12300238072E+03  0.79801041660E+02 0.  0.
         23    2    1    2    0    0 -0.15962884907E+03  0.26160005742E+02 -0.18397619493E+03  0.26096437043E+03  0.89941352986E+02 0.  0.
         13    1    3    3    0    0  0.45629128669E+02  0.20204567539E+01  0.65245834273E+02  0.79643697293E+02  0.00000000000E+00 0. -1.
        -14    1    3    3    0    0  0.40179976555E+01  0.43172104977E+02 -0.21800169119E-01  0.43358683427E+02  0.00000000000E+00 0.  1.
        -11    1    4    4    0    0 -0.42498172470E+02  0.43153284090E+02 -0.95930521325E+02  0.11345027771E+03  0.00000000000E+00 0.  1.
         11    1    4    4    0    0 -0.11713067660E+03 -0.16993278348E+02 -0.88045673604E+02  0.14751409272E+03  0.00000000000E+00 0. -1.
          2    1    1    2  501    0  0.10998172275E+03 -0.71352567473E+02 -0.14948599456E+03  0.19882965270E+03  0.00000000000E+00 0. -1.
<scales pt_clust_5="13000.00000" pt_clust_6="13000.00000" pt_clust_7="13000.00000" pt_clust_8="13000.00000" pt_clust_9="141.49039"></scales>
<clustering>
<clus scale="   79.801">  5  6 -1 -1</clus>
<clus scale="   89.941">  7  8 -1 -1</clus>
<clus scale="  104.285">  2  5  1 -1</clus>
<clus scale="  141.490">  1  9  2 -1</clus>
<clus scale="  141.490">  1  5  2 -1</clus>
</clustering>
</event>
<event>
 9    1  0.8429841E-005  0.1226874E+03  0.7546771E-02  0.1258991E+00
         21   -1    0    0  501  502  0.00000000000E+00  0.00000000000E+00  0.44059546672E+02  0.44059546672E+02  0.00000000000E+00 0. -1.
          1   -1    0    0  502    0 -0.00000000000E+00 -0.00000000000E+00 -0.72654159330E+03  0.72654159330E+03  0.00000000000E+00 0. -1.
        -24    2    1    2    0    0  0.91979434112E+01  0.10159921521E+01 -0.13063294602E+03  0.15412018353E+03  0.81255338187E+02 0.  0.
         23    2    1    2    0    0  0.48793221947E+02  0.60544021412E+02 -0.50708650982E+03  0.52079239879E+03  0.89675175855E+02 0.  0.
         11    1    3    3    0    0 -0.97803890309E+00  0.40249047017E+02 -0.77047629814E+02  0.86932615317E+02  0.00000000000E+00 0. -1.
        -12    1    3    3    0    0  0.10175982314E+02 -0.39233054865E+02 -0.53585316204E+02  0.67187568216E+02  0.00000000000E+00 0.  1.
        -13    1    4    4    0    0  0.62308965621E+02  0.11305756208E+02 -0.34793311913E+03  0.35364909544E+03  0.00000000000E+00 0.  1.
         13    1    4    4    0    0 -0.13515743673E+02  0.49238265204E+02 -0.15915339069E+03  0.16714330335E+03  0.00000000000E+00 0. -1.
          2    1    1    2  501    0 -0.57991165358E+02 -0.61560013564E+02 -0.44762590791E+02  0.95688557644E+02  0.00000000000E+00 0. -1.
<scales pt_clust_5="13000.00000" pt_clust_6="13000.00000" pt_clust_7="13000.00000" pt_clust_8="13000.00000" pt_clust_9="83.72912"></scales>
<clustering>
<clus scale="   81.255">  5  6 -1 -1</clus>
<clus scale="   81.781">  2  5  1 -1</clus>
<clus scale="   83.729">  1  9  2 -1</clus>
<clus scale="   89.675">  7  8 -1 -1</clus>
<clus scale="   83.729">  1  5  2 -1</clus>
</clustering>
</event>
<event>
 9    1  0.8429841E-005  0.1326527E+03  0.7546771E-02  0.1224328E+00
          1   -1    0    0  502    0 -0.00000000000E+00  0.00000000000E+00  0.78488621473E+03  0.78488621473E+03  0.00000000000E+00 0. -1.
         21   -1    0    0  501  502  0.00000000000E+00 -0.00000000000E+00 -0.34188931813E+02  0.34188931813E+02  0.00000000000E+00 0.  1.
         23    2    1    2    0    0 -0.47873596535E+01  0.88049896009E+02  0.34934375680E+03  0.37015865883E+03  0.84856757482E+02 0.  0.
        -24    2    1    2    0    0  0.28286350326E+02 -0.12628796503E+03  0.27297770961E+03  0.31292125711E+03  0.81572761854E+02 0.  0.
         11    1    4    4    0    0 -0.20643679301E+02 -0.56789074605E+02  0.16359532402E+03  0.17439779394E+03  0.00000000000E+00 0. -1.
        -12    1    4    4    0    0  0.48930029628E+02 -0.69498890428E+02  0.10938238560E+03  0.13852346317E+03  0.00000000000E+00 0.  1.
        -13    1    3    3    0    0  0.37979838454E+02  0.58931184120E+02  0.18377826995E+03  0.19669724222E+03  0.00000000000E+00 0.  1.
         13    1    3    3    0    0 -0.42767198107E+02  0.29118711889E+02  0.16556548685E+03  0.17346141661E+03  0.00000000000E+00 0. -1.
          2    1    1    2  501    0 -0.23498990673E+02  0.38238069024E+02  0.12837581650E+03  0.13599523060E+03  0.00000000000E+00 0. -1.
<scales pt_clust_5="13000.00000" pt_clust_6="13000.00000" pt_clust_7="13000.00000" pt_clust_8="13000.00000" pt_clust_9="44.88156"></scales>
<clustering>
<clus scale="   44.882">  2  9  1 -1</clus>
<clus scale="   81.573">  5  6 -1 -1</clus>
<clus scale="   84.857">  7  8 -1 -1</clus>
<clus scale="  130.576">  2  5  1 -1</clus>
<clus scale="   44.882">  2  5  1 -1</clus>
</clustering>
</event>
<event>
 9    1  0.8429841E-005  0.1050776E+03  0.7546771E-02  0.1275252E+00
         21   -1    0    0  501  502  0.00000000000E+00  0.00000000000E+00  0.11156345578E+03  0.11156345578E+03  0.00000000000E+00 0.  1.
         -4   -1    0    0    0  501 -0.00000000000E+00 -0.00000000000E+00 -0.23086717426E+03  0.23086717426E+03  0.00000000000E+00 0.  1.
        -24    2    1    2    0    0 -0.24128508769E+02  0.54546893577E+02 -0.11466467869E+03  0.15373147652E+03  0.83233585767E+02 0.  0.
         23    2    1    2    0    0  0.25273215333E+02 -0.15990565301E+02 -0.63846077419E+02  0.11803534307E+03  0.94665659143E+02 0.  0.
         11    1    3    3    0    0 -0.20722350119E+02  0.47371668176E+02 -0.15121063126E+02  0.53871488659E+02  0.00000000000E+00 0. -1.
        -12    1    3    3    0    0 -0.34061586498E+01  0.71752254009E+01 -0.99543615559E+02  0.99859987858E+02  0.00000000000E+00 0.  1.
        -11    1    4    4    0    0 -0.60313524480E+01 -0.21898162699E+02  0.18785509373E+02  0.29475449180E+02  0.00000000000E+00 0. -1.
         11    1    4    4    0    0  0.31304567781E+02  0.59075973976E+01 -0.82631586792E+02  0.88559893895E+02  0.00000000000E+00 0.  1.
         -3    1    1    2    0  502 -0.11447065640E+01 -0.38556328276E+02  0.59207037627E+02  0.70663810453E+02  0.00000000000E+00 0.  1.
<scales pt_clust_5="13000.00000" pt_clust_6="13000.00000" pt_clust_7="13000.00000" pt_clust_8="13000.00000" pt_clust_9="38.57332"></scales>
<clustering>
<clus scale="   38.573">  1  9  2 -1</clus>
<clus scale="   83.234">  5  6 -1 -1</clus>
<clus scale="   94.666">  7  8 -1 -1</clus>
<clus scale="   94.908">  2  5  1 -1</clus>
<clus scale="   38.573">  1  5  2 -1</clus>
</clustering>
</event>
<event>
 9    1  0.8429841E-005  0.2062440E+03  0.7546771E-02  0.1145289E+00
          1   -1    0    0  502    0 -0.00000000000E+00  0.00000000000E+00  0.84519012490E+03  0.84519012490E+03  0.00000000000E+00 0. -1.
         21   -1    0    0  501  502  0.00000000000E+00 -0.00000000000E+00 -0.68887552015E+02  0.68887552015E+02  0.00000000000E+00 0. -1.
         23    2    1    2    0    0  0.20860305235E+03  0.22193461796E+01  0.52752154336E+03  0.57473192746E+03  0.92291119751E+02 0.  0.
        -24    2    1    2    0    0 -0.14963854406E+03 -0.45243325767E+01  0.18338347411E+03  0.25126075383E+03  0.84203945200E+02 0.  0.
         13    1    4    4    0    0 -0.73125003114E+02  0.17057730224E+02  0.34830655375E+02  0.82773225107E+02  0.00000000000E+00 0. -1.
        -14    1    4    4    0    0 -0.76513540948E+02 -0.21582062801E+02  0.14855281873E+03  0.16848752873E+03  0.00000000000E+00 0.  1.
        -11    1    3    3    0    0  0.14820801247E+03  0.16126534312E+02  0.45772214610E+03  0.48138886890E+03  0.00000000000E+00 0. -1.
         11    1    3    3    0    0  0.60395039875E+02 -0.13907188132E+02  0.69799397260E+02  0.93343058559E+02  0.00000000000E+00 0.  1.
          2    1    1    2  501    0 -0.58964508283E+02  0.23049863971E+01  0.65397555419E+02  0.88084995624E+02  0.00000000000E+00 0. -1.
<scales pt_clust_5="13000.00000" pt_clust_6="13000.00000" pt_clust_7="13000.00000" pt_clust_8="13000.00000" pt_clust_9="59.00954"></scales>
<clustering>
<clus scale="   59.010">  2  9  1 -1</clus>
<clus scale="   84.204">  5  6 -1 -1</clus>
<clus scale="   92.291">  7  8 -1 -1</clus>
<clus scale="  202.754">  2  5  1 -1</clus>
<clus scale="   59.010">  2  5  1 -1</clus>
</clustering>
</event>
<event>
 9    1  0.8429841E-005  0.3805981E+03  0.7546771E-02  0.1050713E+00
          1   -1    0    0  502    0 -0.00000000000E+00  0.00000000000E+00  0.25899502205E+03  0.25899502205E+03  0.00000000000E+00 0. -1.
         21   -1    0    0  501  502  0.00000000000E+00 -0.00000000000E+00 -0.11197188280E+04  0.11197188280E+04  0.00000000000E+00 0. -1.
        -24    2    1    2    0    0 -0.19133999886E+03  0.12620372166E+03  0.46861880078E+02  0.24743440501E+03  0.80556653686E+02 0.  0.
         23    2    1    2    0    0 -0.11381467080E+03  0.43605471098E+02  0.21028305628E+02  0.13917134615E+03  0.63806406828E+02 0.  0.
         11    1    3    3    0    0 -0.60162924008E+02  0.58101282523E+02  0.53838274865E+02  0.99468066717E+02  0.00000000000E+00 0. -1.
        -12    1    3    3    0    0 -0.13117707485E+03  0.68102439140E+02 -0.69763947871E+01  0.14796633830E+03  0.00000000000E+00 0.  1.
        -11    1    4    4    0    0 -0.10035426330E+03  0.21962114245E+02  0.36888909563E+02  0.10915174883E+03  0.00000000000E+00 0. -1.
         11    1    4    4    0    0 -0.13460407503E+02  0.21643356852E+02 -0.15860603935E+02  0.30019597319E+02  0.00000000000E+00 0.  1.
          2    1    1    2  501    0  0.30515466966E+03 -0.16980919276E+03 -0.92861399171E+03  0.99210809893E+03  0.00000000000E+00 0. -1.
<scales pt_clust_5="13000.00000" pt_clust_6="13000.00000" pt_clust_7="13000.00000" pt_clust_8="13000.00000" pt_clust_9="349.21989"></scales>
<clustering>
<clus scale="   63.806">  7  8 -1 -1</clus>
<clus scale="   80.557">  5  6 -1 -1</clus>
<clus scale="   84.782">  5  7 -1 -1</clus>
<clus scale="  349.220">  2  9  1 -1</clus>
<clus scale="  349.220">  2  5  1 -1</clus>
</clustering>
</event>
<event>
 9    1  0.8429841E-005  0.2469472E+03  0.7546771E-02  0.1159621E+00
         -4   -1    0    0    0  501 -0.00000000000E+00  0.00000000000E+00  0.46163699038E+03  0.46163699038E+03  0.00000000000E+00 0.  1.
         21   -1    0    0  501  502  0.00000000000E+00 -0.00000000000E+00 -0.18177145169E+03  0.18177145169E+03  0.00000000000E+00 0.  1.
        -24    2    1    2    0    0 -0.10251348825E+02 -0.30566537346E+02  0.84959994038E+02  0.11963593783E+03  0.77814867964E+02 0.  0.
         23    2    1    2    0    0 -0.21558788826E+03 -0.39973238947E+02  0.15564308679E+03  0.28393764095E+03  0.91213025863E+02 0.  0.
         13    1    3    3    0    0  0.89112286082E+01  0.20919938644E+02  0.61284882615E+01  0.23550205871E+02  0.00000000000E+00 0. -1.
        -14    1    3    3    0    0 -0.19162577434E+02 -0.51486475990E+02  0.78831505776E+02  0.96085731963E+02  0.00000000000E+00 0.  1.
        -13    1    4    4    0    0 -0.17880110186E+03 -0.34496438460E+02  0.16483922977E+03  0.24562534471E+03  0.00000000000E+00 0.  1.
         13    1    4    4    0    0 -0.36786786405E+02 -0.54768004862E+01 -0.91961429839E+01  0.38312296243E+02  0.00000000000E+00 0. -1.
         -3    1    1    2    0  502  0.22583923709E+03  0.70539776292E+02  0.39262457855E+02  0.23983486328E+03  0.00000000000E+00 0.  1.
<scales pt_clust_5="13000.00000" pt_clust_6="13000.00000" pt_clust_7="13000.00000" pt_clust_8="13000.00000" pt_clust_9="229.48448"></scales>
<clustering>
<clus scale="   77.815">  5  6 -1 -1</clus>
<clus scale="   84.229">  1  5  2 -1</clus>
<clus scale="   91.213">  7  8 -1 -1</clus>
<clus scale="  229.484">  2  9  1 -1</clus>
<clus scale="  229.484">  2  5  1 -1</clus>
</clustering>
</event>
<event>
 9    1  0.8429841E-005  0.5216201E+03  0.7546771E-02  0.1008285E+00
         21   -1    0    0  501  502  0.00000000000E+00  0.00000000000E+00  0.11981590807E+04  0.11981590807E+04  0.00000000000E+00 0. -1.
          3   -1    0    0  502    0 -0.00000000000E+00 -0.00000000000E+00 -0.19994112692E+03  0.19994112692E+03  0.00000000000E+00 0. -1.
        -24    2    1    2    0    0  0.19995291326E+03 -0.10494898851E+03  0.20936499714E+03  0.31885250750E+03  0.82690760063E+02 0.  0.
         23    2    1    2    0    0  0.25493681911E+03  0.62379337979E+02  0.34274316452E+03  0.44069402937E+03  0.88624980429E+02 0.  0.
         11    1    3    3    0    0  0.19267487458E+03 -0.11173466194E+03  0.17552364450E+03  0.28357854600E+03  0.00000000000E+00 0. -1.
        -12    1    3    3    0    0  0.72780386802E+01  0.67856734358E+01  0.33841352642E+02  0.35273961496E+02  0.00000000000E+00 0.  1.
        -11    1    4    4    0    0  0.16377750809E+03  0.30694807997E+02  0.14594815231E+03  0.22150870537E+03  0.00000000000E+00 0.  1.
         11    1    4    4    0    0  0.91159311024E+02  0.31684529982E+02  0.19679501221E+03  0.21918532400E+03  0.00000000000E+00 0. -1.
          4    1    1    2  501    0 -0.45488973238E+03  0.42569650527E+02  0.44610979209E+03  0.63855367070E+03  0.00000000000E+00 0. -1.
<scales pt_clust_5="13000.00000" pt_clust_6="13000.00000" pt_clust_7="13000.00000" pt_clust_8="13000.00000" pt_clust_9="456.87750"></scales>
<clustering>
<clus scale="   82.691">  5  6 -1 -1</clus>
<clus scale="   88.625">  7  8 -1 -1</clus>
<clus scale="  192.531">  5  7 -1 -1</clus>
<clus scale="  456.878">  1  9  2 -1</clus>
<clus scale="  456.878">  1  5  2 -1</clus>
</clustering>
</event>
<event>
 9    1  0.8429841E-005  0.1555533E+03  0.7546771E-02  0.1215370E+00
         21   -1    0    0  501  502  0.00000000000E+00  0.00000000000E+00  0.72632901613E+02  0.72632901613E+02  0.00000000000E+00 0.  1.
         -4   -1    0    0    0  501 -0.00000000000E+00 -0.00000000000E+00 -0.64364647793E+03  0.64364647793E+03  0.00000000000E+00 0.  1.
        -24    2    1    2    0    0 -0.51295448270E+02 -0.19760488557E+02 -0.24322281575E+03  0.26212813362E+03  0.80821534337E+02 0.  0.
         23    2    1    2    0    0  0.11952799457E+03  0.11066563724E+03 -0.26468747363E+03  0.32414566429E+03  0.92071321448E+02 0.  0.
         11    1    3    3    0    0  0.11987073647E+02 -0.16375604564E+02 -0.14907983659E+02  0.25181309264E+02  0.00000000000E+00 0. -1.
        -12    1    3    3    0    0 -0.63282521917E+02 -0.33848839929E+01 -0.22831483209E+03  0.23694682436E+03  0.00000000000E+00 0.  1.
        -13    1    4    4    0    0  0.46819488400E+02  0.10854765468E+02 -0.24206991824E+02  0.53813277921E+02  0.00000000000E+00 0. -1.
         13    1    4    4    0    0  0.72708506168E+02  0.99810871775E+02 -0.24048048180E+03  0.27033238637E+03  0.00000000000E+00 0.  1.
         -3    1    1    2    0  502 -0.68232546299E+02 -0.90905148686E+02 -0.63103286937E+02  0.13000558163E+03  0.00000000000E+00 0.  1.
<scales pt_clust_5="13000.00000" pt_clust_6="13000.00000" pt_clust_7="13000.00000" pt_clust_8="13000.00000" pt_clust_9="125.37822"></scales>
<clustering>
<clus scale="   80.822">  5  6 -1 -1</clus>
<clus scale="   92.071">  7  8 -1 -1</clus>
<clus scale="   97.744">  2  5  1 -1</clus>
<clus scale="  125.378">  1  9  2 -1</clus>
<clus scale="  125.378">  1  5  2 -1</clus>
</clustering>
</event>
<event>
 9    1  0.8429841E-005  0.9671797E+02  0.7546771E-02  0.1293692E+00
          1   -1    0    0  502    0 -0.00000000000E+00  0.00000000000E+00  0.10777018336E+04  0.10777018336E+04  0.00000000000E+00 0. -1.
         21   -1    0    0  501  502  0.00000000000E+00 -0.00000000000E+00 -0.14615305120E+02  0.14615305120E+02  0.00000000000E+00 0.  1.
        -24    2    1    2    0    0  0.81677427916E+01 -0.26031191462E+02  0.75909995661E+03  0.76400912676E+03  0.82054047425E+02 0.  0.
         23    2    1    2    0    0 -0.27440268868E+02  0.80900766647E+01  0.24389460431E+03  0.26270040244E+03  0.93319374904E+02 0.  0.
         13    1    3    3    0    0  0.29517868595E+02 -0.39652865847E+02  0.28667509437E+03  0.29090593681E+03  0.00000000000E+00 0. -1.
        -14    1    3    3    0    0 -0.21350125804E+02  0.13621674386E+02  0.47242486224E+03  0.47310318995E+03  0.00000000000E+00 0.  1.
        -11    1    4    4    0    0 -0.44544841639E+02 -0.26876843885E+02  0.89958896719E+02  0.10391925112E+03  0.00000000000E+00 0.  1.
         11    1    4    4    0    0  0.17104572772E+02  0.34966920550E+02  0.15393570759E+03  0.15878115132E+03  0.00000000000E+00 0. -1.
          2    1    1    2  501    0  0.19272526076E+02  0.17941114797E+02  0.60091967517E+02  0.65607609479E+02  0.00000000000E+00 0. -1.
<scales pt_clust_5="13000.00000" pt_clust_6="13000.00000" pt_clust_7="13000.00000" pt_clust_8="13000.00000" pt_clust_9="26.33085"></scales>
<clustering>
<clus scale="   26.331">  2  9  1 -1</clus>
<clus scale="   82.054">  5  6 -1 -1</clus>
<clus scale="   85.900">  1  5  2 -1</clus>
<clus scale="   93.319">  7  8 -1 -1</clus>
<clus scale="   26.331">  2  5  1 -1</clus>
</clustering>
</event>
<event>
 9    1  0.8429841E-005  0.1737674E+03  0.7546771E-02  0.1201200E+00
         21   -1    0    0  501  502  0.00000000000E+00  0.00000000000E+00  0.21040837944E+03  0.21040837944E+03  0.00000000000E+00 0. -1.
          1   -1    0    0  502    0 -0.00000000000E+00 -0.00000000000E+00 -0.23173763156E+03  0.23173763156E+03  0.00000000000E+00 0. -1.
        -24    2    1    2    0    0  0.32173357470E+02 -0.38486880024E+02  0.46380385961E+02  0.10569486322E+03  0.80646754709E+02 0.  0.
         23    2    1    2    0    0  0.12127729900E+03 -0.42358698458E+02 -0.32450814233E+02  0.15945878582E+03  0.88722074154E+02 0.  0.
         11    1    3    3    0    0  0.54060163079E+02 -0.37573056166E+02  0.51035529118E+02  0.83299826015E+02  0.00000000000E+00 0. -1.
        -12    1    3    3    0    0 -0.21886805608E+02 -0.91382385772E+00 -0.46551431571E+01  0.22395037209E+02  0.00000000000E+00 0.  1.
        -11    1    4    4    0    0  0.54106981645E+02  0.23994718662E+02 -0.26511079539E+02  0.64854832702E+02  0.00000000000E+00 0.  1.
         11    1    4    4    0    0  0.67170317357E+02 -0.66353417119E+02 -0.59397346935E+01  0.94603953117E+02  0.00000000000E+00 0. -1.
          2    1    1    2  501    0 -0.15345065647E+03  0.80845578482E+02 -0.35258823849E+02  0.17699236196E+03  0.00000000000E+00 0. -1.
<scales pt_clust_5="13000.00000" pt_clust_6="13000.00000" pt_clust_7="13000.00000" pt_clust_8="13000.00000" pt_clust_9="149.41065"></scales>
<clustering>
<clus scale="   80.647">  5  6 -1 -1</clus>
<clus scale="   88.722">  7  8 -1 -1</clus>
<clus scale="   94.975">  2  5  1 -1</clus>
<clus scale="  149.411">  1  9  2 -1</clus>
<clus scale="  149.411">  1  5  2 -1</clus>
</clustering>
</event>
<event>
 9    1  0.8429841E-005  0.1501888E+03  0.7546771E-02  0.1229800E+00
         21   -1    0    0  501  502  0.00000000000E+00  0.00000000000E+00  0.93457872348E+02  0.93457872348E+02  0.00000000000E+00 0. -1.
          1   -1    0    0  502    0 -0.00000000000E+00 -0.00000000000E+00 -0.50192808311E+03  0.50192808311E+03  0.00000000000E+00 0. -1.
        -24    2    1    2    0    0  0.61254931546E+01  0.44775684945E+00 -0.26757352920E+03  0.27936678332E+03  0.80077986617E+02 0.  0.
         23    2    1    2    0    0  0.10897323201E+03 -0.27029973602E+02 -0.13205546887E+03  0.19756032771E+03  0.94792676182E+02 0.  0.
         11    1    3    3    0    0  0.14977174124E+02  0.38389111159E+02 -0.12911694615E+03  0.13553311545E+03  0.00000000000E+00 0. -1.
        -12    1    3    3    0    0 -0.88516809695E+01 -0.37941354310E+02 -0.13845658306E+03  0.14383366788E+03  0.00000000000E+00 0.  1.
        -13    1    4    4    0    0  0.14118052003E+02  0.23178297804E+02  0.32361773819E+00  0.27141437138E+02  0.00000000000E+00 0.  1.
         13    1    4    4    0    0  0.94855180007E+02 -0.50208271406E+02 -0.13237908661E+03  0.17041889057E+03  0.00000000000E+00 0. -1.
          2    1    1    2  501    0 -0.11509872516E+03  0.26582216752E+02 -0.88412126905E+01  0.11845884443E+03  0.00000000000E+00 0. -1.
<scales pt_clust_5="13000.00000" pt_clust_6="13000.00000" pt_clust_7="13000.00000" pt_clust_8="13000.00000" pt_clust_9="116.49478"></scales>
<clustering>
<clus scale="   80.078">  5  6 -1 -1</clus>
<clus scale="   80.313">  2  5  1 -1</clus>
<clus scale="   94.793">  7  8 -1 -1</clus>
<clus scale="  116.495">  1  9  2 -1</clus>
<clus scale="  116.495">  1  5  2 -1</clus>
</clustering>
</event>
<event>
 9    1  0.8429841E-005  0.1118785E+03  0.7546771E-02  0.1261713E+00
         21   -1    0    0  501  502  0.00000000000E+00  0.00000000000E+00  0.21452237000E+03  0.21452237000E+03  0.00000000000E+00 0. -1.
         -2   -1    0    0    0  501 -0.00000000000E+00 -0.00000000000E+00 -0.18693918205E+03  0.18693918205E+03  0.00000000000E+00 0.  1.
         23    2    1    2    0    0  0.22825090903E+02 -0.55052105471E+02 -0.13090335675E+03  0.17044523224E+03  0.91455832471E+02 0.  0.
        -24    2    1    2    0    0 -0.47900432883E+02  0.81270805581E+02  0.87118152849E+02  0.15095609019E+03  0.79364811473E+02 0.  0.
         11    1    4    4    0    0 -0.51329611106E+02  0.53439341984E+02  0.96246735798E+02  0.12146574167E+03  0.00000000000E+00 0. -1.
        -12    1    4    4    0    0  0.34291782231E+01  0.27831463597E+02 -0.91285829492E+01  0.29490348521E+02  0.00000000000E+00 0.  1.
        -13    1    3    3    0    0 -0.27207439086E+02 -0.47226752133E+02 -0.44793695749E+02  0.70548465876E+02  0.00000000000E+00 0.  1.
         13    1    3    3    0    0  0.50032529989E+02 -0.78253533378E+01 -0.86109660999E+02  0.99896766361E+02  0.00000000000E+00 0. -1.
         -1    1    1    2    0  502  0.25075341981E+02 -0.26218700110E+02  0.71368391855E+02  0.80060229620E+02  0.00000000000E+00 0.  1.
<scales pt_clust_5="13000.00000" pt_clust_6="13000.00000" pt_clust_7="13000.00000" pt_clust_8="13000.00000" pt_clust_9="36.27937"></scales>
<clustering>
<clus scale="   36.279">  1  9  2 -1</clus>
<clus scale="   79.365">  5  6 -1 -1</clus>
<clus scale="   91.456">  7  8 -1 -1</clus>
<clus scale="  102.232">  1  5  2 -1</clus>
<clus scale="   36.279">  1  5  2 -1</clus>
</clustering>
</event>
<event>
 9    1  0.8429841E-005  0.1160468E+03  0.7546771E-02  0.1251809E+00
         21   -1    0    0  501  502  0.00000000000E+00  0.00000000000E+00  0.24167643698E+03  0.24167643698E+03  0.00000000000E+00 0. -1.
          1   -1    0    0  502    0 -0.00000000000E+00 -0.00000000000E+00 -0.19511914034E+03  0.19511914034E+03  0.00000000000E+00 0. -1.
        -24    2    1    2    0    0 -0.46078130033E+02  0.64458390529E+02 -0.15382001904E+03  0.19198703388E+03  0.83188609461E+02 0.  0.
         23    2    1    2    0    0  0.17723030202E+02 -0.31767009026E+02  0.12472975915E+03  0.15765757719E+03  0.89303696249E+02 0.  0.
         13    1    3    3    0    0 -0.37966271611E+02 -0.53993796340E+01 -0.86558758074E+02  0.94673172967E+02  0.00000000000E+00 0. -1.
        -14    1    3    3    0    0 -0.81118584222E+01  0.69857770163E+02 -0.67261260967E+02  0.97313860914E+02  0.00000000000E+00 0.  1.
        -13    1    4    4    0    0 -0.34159067600E+02  0.10976539915E+01  0.34964090778E+02  0.48893091409E+02  0.00000000000E+00 0.  1.
         13    1    4    4    0    0  0.51882097802E+02 -0.32864663017E+02  0.89765668374E+02  0.10876448578E+03  0.00000000000E+00 0. -1.
          2    1    1    2  501    0  0.28355099831E+02 -0.32691381503E+02  0.75647556525E+02  0.87150966256E+02  0.00000000000E+00 0. -1.
<scales pt_clust_5="13000.00000" pt_clust_6="13000.00000" pt_clust_7="13000.00000" pt_clust_8="13000.00000" pt_clust_9="43.27514"></scales>
<clustering>
<clus scale="   43.275">  1  9  2 -1</clus>
<clus scale="   83.189">  5  6 -1 -1</clus>
<clus scale="   89.304">  7  8 -1 -1</clus>
<clus scale="  111.409">  2  5  1 -1</clus>
<clus scale="   43.275">  1  5  2 -1</clus>
</clustering>
</event>
<event>
 9    1  0.8429841E-005  0.1190883E+03  0.7546771E-02  0.1249925E+00
          1   -1    0    0  502    0 -0.00000000000E+00  0.00000000000E+00  0.49624404550E+03  0.49624404550E+03  0.00000000000E+00 0. -1.
         21   -1    0    0  501  502  0.00000000000E+00 -0.00000000000E+00 -0.62809510638E+02  0.62809510638E+02  0.00000000000E+00 0. -1.
        -24    2    1    2    0    0  0.47305619010E+02  0.48425611563E+01  0.15973242446E+03  0.18483275660E+03  0.79921389498E+02 0.  0.
         23    2    1    2    0    0 -0.95119178902E+02 -0.54922053673E+02  0.26773173700E+03  0.30472448713E+03  0.95460148157E+02 0.  0.
         13    1    3    3    0    0  0.17007699378E+02 -0.29562216656E+02  0.11803098593E+03  0.12285967659E+03  0.00000000000E+00 0. -1.
        -14    1    3    3    0    0  0.30297919632E+02  0.34404777812E+02  0.41701438528E+02  0.61973080008E+02  0.00000000000E+00 0.  1.
        -11    1    4    4    0    0 -0.29211448190E+02  0.24779646390E+02  0.10643777250E+03  0.11312090432E+03  0.00000000000E+00 0.  1.
         11    1    4    4    0    0 -0.65907730712E+02 -0.79701700062E+02  0.16129396450E+03  0.19160358281E+03  0.00000000000E+00 0. -1.
          2    1    1    2  501    0  0.47813559892E+02  0.50079492516E+02  0.59703734046E+01  0.69496312412E+02  0.00000000000E+00 0. -1.
<scales pt_clust_5="13000.00000" pt_clust_6="13000.00000" pt_clust_7="13000.00000" pt_clust_8="13000.00000" pt_clust_9="69.23938"></scales>
<clustering>
<clus scale="   69.239">  2  9  1 -1</clus>
<clus scale="   79.921">  5  6 -1 -1</clus>
<clus scale="   95.460">  7  8 -1 -1</clus>
<clus scale="  107.036">  1  5  2 -1</clus>
<clus scale="   69.239">  2  5  1 -1</clus>
</clustering>
</event>
<event>
 9    1  0.8429841E-005  0.1358513E+03  0.7546771E-02  0.1222772E+00
         21   -1    0    0  501  502  0.00000000000E+00  0.00000000000E+00  0.45422648849E+03  0.45422648849E+03  0.00000000000E+00 0.  1.
         -2   -1    0    0    0  501 -0.00000000000E+00 -0.00000000000E+00 -0.99953518524E+02  0.99953518524E+02  0.00000000000E+00 0.  1.
         23    2    1    2    0    0 -0.49540003657E+02 -0.87634894690E+02 -0.33892081658E+02  0.14200468271E+03  0.94247387135E+02 0.  0.
        -24    2    1    2    0    0  0.33087858372E+02  0.75851735772E+02  0.28484541393E+03  0.30689254580E+03  0.78726314752E+02 0.  0.
         11    1    4    4    0    0  0.53813048876E+02  0.76327705243E+02  0.23786372842E+03  0.25554043930E+03  0.00000000000E+00 0. -1.
        -12    1    4    4    0    0 -0.20725190504E+02 -0.47596947098E+00  0.46981685510E+02  0.51352106497E+02  0.00000000000E+00 0.  1.
        -11    1    3    3    0    0  0.23134812216E+02 -0.25300673057E+02  0.11343425542E+02  0.36111174122E+02  0.00000000000E+00 0. -1.
         11    1    3    3    0    0 -0.72674815873E+02 -0.62334221633E+02 -0.45235507200E+02  0.10589350859E+03  0.00000000000E+00 0.  1.
         -1    1    1    2    0  502  0.16452145285E+02  0.11783158918E+02  0.10331963769E+03  0.10528277851E+03  0.00000000000E+00 0.  1.
<scales pt_clust_5="13000.00000" pt_clust_6="13000.00000" pt_clust_7="13000.00000" pt_clust_8="13000.00000" pt_clust_9="20.23650"></scales>
<clustering>
<clus scale="   20.236">  1  9  2 -1</clus>
<clus scale="   78.726">  5  6 -1 -1</clus>
<clus scale="   94.247">  7  8 -1 -1</clus>
<clus scale="  125.582">  1  5  2 -1</clus>
<clus scale="   20.236">  1  5  2 -1</clus>
</clustering>
</event>
<event>
 9    1  0.8429841E-005  0.1471684E+03  0.7546771E-02  0.1215674E+00
         21   -1    0    0  501  502  0.00000000000E+00  0.00000000000E+00  0.70374182361E+03  0.70374182361E+03  0.00000000000E+00 0.  1.
         -4   -1    0    0    0  501 -0.00000000000E+00 -0.00000000000E+00 -0.81775160472E+02  0.81775160472E+02  0.00000000000E+00 0.  1.
         23    2    1    2    0    0 -0.45223286162E+02 -0.52108886516E+02  0.20614085174E+03  0.23589301431E+03  0.91602302257E+02 0.  0.
        -24    2    1    2    0    0 -0.82575635550E+02  0.19374106478E+02  0.36483766662E+01  0.11684877649E+03  0.80288444546E+02 0.  0.
         13    1    4    4    0    0 -0.16183846214E+02  0.18064852600E+02  0.35663508489E+02  0.43129359089E+02  0.00000000000E+00 0. -1.
        -14    1    4    4    0    0 -0.66391789336E+02  0.13092538789E+01 -0.32015131822E+02  0.73719417405E+02  0.00000000000E+00 0.  1.
        -13    1    3    3    0    0 -0.25636569958E+02 -0.73937129745E+02  0.10738146080E+03  0.13287103144E+03  0.00000000000E+00 0.  1.
         13    1    3    3    0    0 -0.19586716204E+02  0.21828243229E+02  0.98759390947E+02  0.10302198287E+03  0.00000000000E+00 0. -1.
         -3    1    1    2    0  502  0.12779892171E+03  0.32734780038E+02  0.41217743473E+03  0.43277519328E+03  0.00000000000E+00 0.  1.
<scales pt_clust_5="13000.00000" pt_clust_6="13000.00000" pt_clust_7="13000.00000" pt_clust_8="13000.00000" pt_clust_9="123.33812"></scales>
<clustering>
<clus scale="   80.288">  5  6 -1 -1</clus>
<clus scale="   91.602">  7  8 -1 -1</clus>
<clus scale="  114.680">  2  7  1 -1</clus>
<clus scale="  123.338">  1  9  2 -1</clus>
<clus scale="  123.338">  1  5  2 -1</clus>
</clustering>
</event>
<event>
 9    1  0.8429841E-005  0.1417065E+03  0.7546771E-02  0.1213477E+00
         21   -1    0    0  501  502  0.00000000000E+00  0.00000000000E+00  0.21987695026E+03  0.21987695026E+03  0.00000000000E+00 0.  1.
         -2   -1    0    0    0  501 -0.00000000000E+00 -0.00000000000E+00 -0.16712262871E+03  0.16712262871E+03  0.00000000000E+00 0.  1.
        -24    2    1    2    0    0 -0.68377562068E+02 -0.20846285226E+02  0.35700583033E+02  0.11323327251E+03  0.80232061993E+02 0.  0.
         23    2    1    2    0    0  0.13325252677E+03  0.84375178887E+02  0.10988776211E+02  0.18276375076E+03  0.91686578557E+02 0.  0.
         13    1    3    3    0    0 -0.28905749798E+02 -0.35086781875E+02 -0.14582047605E+02  0.47741603933E+02  0.00000000000E+00 0. -1.
        -14    1    3    3    0    0 -0.39471812270E+02  0.14240496649E+02  0.50282630638E+02  0.65491668574E+02  0.00000000000E+00 0.  1.
        -13    1    4    4    0    0  0.19651003284E+02  0.48175471980E+02  0.32870504363E+02  0.61542733833E+02  0.00000000000E+00 0. -1.
         13    1    4    4    0    0  0.11360152349E+03  0.36199706907E+02 -0.21881728152E+02  0.12122101693E+03  0.00000000000E+00 0.  1.
         -1    1    1    2    0  502 -0.64874964704E+02 -0.63528893661E+02  0.60649623030E+01  0.91002555694E+02  0.00000000000E+00 0.  1.
<scales pt_clust_5="13000.00000" pt_clust_6="13000.00000" pt_clust_7="13000.00000" pt_clust_8="13000.00000" pt_clust_9="90.80027"></scales>
<clustering>
<clus scale="   80.232">  5  6 -1 -1</clus>
<clus scale="   90.800">  1  9  2 -1</clus>
<clus scale="   91.687">  7  8 -1 -1</clus>
<clus scale="  134.579">  2  5  1 -1</clus>
<clus scale="   90.800">  1  5  2 -1</clus>
</clustering>
</event>
<event>
 9    1  0.8429841E-005  0.1031213E+03  0.7546771E-02  0.1277235E+00
         21   -1    0    0  501  502  0.00000000000E+00  0.00000000000E+00  0.52530097346E+03  0.52530097346E+03  0.00000000000E+00 0. -1.
         -2   -1    0    0    0  501 -0.00000000000E+00 -0.00000000000E+00 -0.69547435528E+02  0.69547435528E+02  0.00000000000E+00 0.  1.
         23    2    1    2    0    0 -0.29933449790E+02 -0.33940247573E+02  0.53477500738E+02  0.11235170345E+03  0.87835700954E+02 0.  0.
        -24    2    1    2    0    0  0.95963560700E+02  0.40203426061E+02  0.39440954865E+03  0.41570535434E+03  0.80166882880E+02 0.  0.
         11    1    4    4    0    0  0.62426308120E+02  0.63300273612E+02  0.29980352025E+03  0.31270772190E+03  0.00000000000E+00 0. -1.
        -12    1    4    4    0    0  0.33537252580E+02 -0.23096847551E+02  0.94606028406E+02  0.10299763244E+03  0.00000000000E+00 0.  1.
        -13    1    3    3    0    0 -0.20954246195E+02  0.87797321841E+01 -0.17736659514E+02  0.28822789968E+02  0.00000000000E+00 0.  1.
         13    1    3    3    0    0 -0.89792035948E+01 -0.42719979757E+02  0.71214160252E+02  0.83528913486E+02  0.00000000000E+00 0. -1.
         -1    1    1    2    0  502 -0.66030110910E+02 -0.62631784879E+01  0.78664885371E+01  0.66791351188E+02  0.00000000000E+00 0.  1.
<scales pt_clust_5="13000.00000" pt_clust_6="13000.00000" pt_clust_7="13000.00000" pt_clust_8="13000.00000" pt_clust_9="66.32652"></scales>
<clustering>
<clus scale="   66.327">  1  9  2 -1</clus>
<clus scale="   80.167">  5  6 -1 -1</clus>
<clus scale="   87.836">  7  8 -1 -1</clus>
<clus scale="   96.673">  1  5  2 -1</clus>
<clus scale="   66.327">  1  5  2 -1</clus>
</clustering>
</event>
<event>
 9    1  0.8429841E-005  0.2020233E+03  0.7546771E-02  0.1168738E+00
         -4   -1    0    0    0  501 -0.00000000000E+00  0.00000000000E+00  0.39443664252E+03  0.39443664252E+03  0.00000000000E+00 0.  1.
         21   -1    0    0  501  502  0.00000000000E+00 -0.00000000000E+00 -0.17733703721E+03  0.17733703721E+03  0.00000000000E+00 0.  1.
        -24    2    1    2    0    0 -0.97785896347E+01  0.96097993318E+02  0.74769207151E+02  0.14532580717E+03  0.78731891616E+02 0.  0.
         23    2    1    2    0    0 -0.17470946824E+03 -0.46364420852E+02  0.11866767294E+03  0.23391424875E+03  0.89223322936E+02 0.  0.
         11    1    3    3    0    0 -0.70167125039E+01  0.70969577918E+02  0.54299427171E+01  0.71522021239E+02  0.00000000000E+00 0. -1.
        -12    1    3    3    0    0 -0.27618771308E+01  0.25128415399E+02  0.69339264434E+02  0.73803785933E+02  0.00000000000E+00 0.  1.
        -11    1    4    4    0    0 -0.12967518331E+03 -0.41522469471E+02  0.12888060365E+03  0.18748327561E+03  0.00000000000E+00 0.  1.
         11    1    4    4    0    0 -0.45034284935E+02 -0.48419513805E+01 -0.10212930720E+02  0.46430973139E+02  0.00000000000E+00 0. -1.
         -3    1    1    2    0  502  0.18448805788E+03 -0.49733572466E+02  0.23662725219E+02  0.19253362380E+03  0.00000000000E+00 0.  1.
<scales pt_clust_5="13000.00000" pt_clust_6="13000.00000" pt_clust_7="13000.00000" pt_clust_8="13000.00000" pt_clust_9="181.25289"></scales>
<clustering>
<clus scale="   78.732">  5  6 -1 -1</clus>
<clus scale="   89.223">  7  8 -1 -1</clus>
<clus scale="  124.616">  1  5  2 -1</clus>
<clus scale="  181.253">  2  9  1 -1</clus>
<clus scale="  181.253">  2  5  1 -1</clus>
</clustering>
</event>
<event>
 9    1  0.8429841E-005  0.1040110E+03  0.7546771E-02  0.1280499E+00
         21   -1    0    0  501  502  0.00000000000E+00  0.00000000000E+00  0.69563589684E+02  0.69563589684E+02  0.00000000000E+00 0.  1.
         -4   -1    0    0    0  501 -0.00000000000E+00 -0.00000000000E+00 -0.23070954400E+03  0.23070954400E+03  0.00000000000E+00 0.  1.
         23    2    1    2    0    0 -0.15811720401E+02  0.26604377552E+02 -0.86253953674E+02  0.13013072234E+03  0.92392948674E+02 0.  0.
        -24    2    1    2    0    0  0.32653519225E+02 -0.68339711502E+02 -0.41405101530E+02  0.11404556028E+03  0.74534816698E+02 0.  0.
         13    1    4    4    0    0  0.35481783079E+02  0.63448498533E+00 -0.45114123477E+01  0.35773067286E+02  0.00000000000E+00 0. -1.
        -14    1    4    4    0    0 -0.28282638541E+01 -0.68974196488E+02 -0.36893689183E+02  0.78272492991E+02  0.00000000000E+00 0.  1.
        -11    1    3    3    0    0 -0.45525479721E+02  0.22761006284E+02 -0.15359738149E+02  0.53165348366E+02  0.00000000000E+00 0.  1.
         11    1    3    3    0    0  0.29713759320E+02  0.38433712679E+01 -0.70894215526E+02  0.76965373972E+02  0.00000000000E+00 0. -1.
         -3    1    1    2    0  502 -0.16841798824E+02  0.41735333950E+02 -0.33486899107E+02  0.56096851065E+02  0.00000000000E+00 0.  1.
<scales pt_clust_5="13000.00000" pt_clust_6="13000.00000" pt_clust_7="13000.00000" pt_clust_8="13000.00000" pt_clust_9="45.00540"></scales>
<clustering>
<clus scale="   45.005">  1  9  2 -1</clus>
<clus scale="   74.535">  5  6 -1 -1</clus>
<clus scale="   88.528">  1  5  2 -1</clus>
<clus scale="   92.393">  7  8 -1 -1</clus>
<clus scale="   45.005">  1  5  2 -1</clus>
</clustering>
</event>
<event>
 9    1  0.8429841E-005  0.1078816E+03  0.7546771E-02  0.1269718E+00
         21   -1    0    0  501  502  0.00000000000E+00  0.00000000000E+00  0.71823762396E+02  0.71823762396E+02  0.00000000000E+00 0.  1.
          1   -1    0    0  502    0 -0.00000000000E+00 -0.00000000000E+00 -0.19117064803E+03  0.19117064803E+03  0.00000000000E+00 0. -1.
        -24    2    1    2    0    0 -0.46580745001E+02 -0.45239781094E+02 -0.75189890643E+02  0.12716747377E+03  0.79382889418E+02 0.  0.
         23    2    1    2    0    0  0.23933036140E+02  0.37974456366E+02 -0.24709533586E+02  0.10510386039E+03  0.91768245397E+02 0.  0.
         11    1    3    3    0    0 -0.15981539371E+02 -0.59139868339E+02 -0.23712557768E+02  0.65690326713E+02  0.00000000000E+00 0. -1.
        -12    1    3    3    0    0 -0.30599205630E+02  0.13900087245E+02 -0.51477332875E+02  0.61477147059E+02  0.00000000000E+00 0.  1.
        -13    1    4    4    0    0 -0.22146131273E+02  0.44397899697E+02  0.50567466914E+01  0.49871788769E+02  0.00000000000E+00 0.  1.
         13    1    4    4    0    0  0.46079167414E+02 -0.64234433314E+01 -0.29766280277E+02  0.55232071619E+02  0.00000000000E+00 0. -1.
          2    1    1    2  501    0  0.22647708861E+02  0.72653247278E+01 -0.19447461400E+02  0.30723076261E+02  0.00000000000E+00 0. -1.
<scales pt_clust_5="13000.00000" pt_clust_6="13000.00000" pt_clust_7="13000.00000" pt_clust_8="13000.00000" pt_clust_9="23.78454"></scales>
<clustering>
<clus scale="   23.785">  1  9  2 -1</clus>
<clus scale="   79.383">  5  6 -1 -1</clus>
<clus scale="   91.768">  7  8 -1 -1</clus>
<clus scale="   97.564">  2  5  1 -1</clus>
<clus scale="   23.785">  1  5  2 -1</clus>
</clustering>
</event>
<event>
 9    1  0.8429841E-005  0.1147307E+03  0.7546771E-02  0.1255600E+00
          1   -1    0    0  502    0 -0.00000000000E+00  0.00000000000E+00  0.47893192851E+03  0.47893192851E+03  0.00000000000E+00 0. -1.
         21   -1    0    0  501  502  0.00000000000E+00 -0.00000000000E+00 -0.19071824079E+03  0.19071824079E+03  0.00000000000E+00 0. -1.
         23    2    1    2    0    0 -0.59470576516E+02 -0.25494167403E+02  0.37851688044E+03  0.39460902795E+03  0.90854576742E+02 0.  0.
        -24    2    1    2    0    0  0.14329544368E+03  0.15823747701E+01 -0.25596537597E+02  0.16648086594E+03  0.80775045038E+02 0.  0.
         13    1    4    4    0    0  0.14098271676E+03 -0.12736698382E+02 -0.54572755302E+01  0.14166203361E+03  0.00000000000E+00 0. -1.
        -14    1    4    4    0    0  0.23127269128E+01  0.14319073152E+02 -0.20139262066E+02  0.24818832331E+02  0.00000000000E+00 0.  1.
        -13    1    3    3    0    0  0.81868826786E+01 -0.24624942711E+02  0.30365336924E+02  0.39943291527E+02  0.00000000000E+00 0.  1.
         13    1    3    3    0    0 -0.67657459194E+02 -0.86922469247E+00  0.34815154352E+03  0.35466573642E+03  0.00000000000E+00 0. -1.
          2    1    1    2  501    0 -0.83824867160E+02  0.23911792633E+02 -0.64706655120E+02  0.10856027541E+03  0.00000000000E+00 0. -1.
<scales pt_clust_5="13000.00000" pt_clust_6="13000.00000" pt_clust_7="13000.00000" pt_clust_8="13000.00000" pt_clust_9="87.16870"></scales>
<clustering>
<clus scale="   80.775">  5  6 -1 -1</clus>
<clus scale="   87.169">  2  9  1 -1</clus>
<clus scale="   90.855">  7  8 -1 -1</clus>
<clus scale="  106.926">  2  5  1 -1</clus>
<clus scale="   87.169">  2  5  1 -1</clus>
</clustering>
</event>
<event>
 9    1  0.1066453E-004  0.2405555E+03  0.7546771E-02  0.1120150E+00
         21   -1    0    0  501  502  0.00000000000E+00  0.00000000000E+00  0.34825527575E+03  0.34825527575E+03  0.00000000000E+00 0.  1.
          1   -1    0    0  502    0 -0.00000000000E+00 -0.00000000000E+00 -0.10038858749E+04  0.10038858749E+04  0.00000000000E+00 0. -1.
         23    2    1    2    0    0 -0.95557695048E+02  0.20141150959E+03 -0.91064797175E+03  0.94206104017E+03  0.92203067584E+02 0.  0.
        -24    2    1    2    0    0  0.74175464413E+02 -0.20164534781E+03  0.94343506009E+02  0.24798956206E+03  0.80220196651E+02 0.  0.
         13    1    4    4    0    0  0.46848518731E+02 -0.51683591015E+02  0.20334202197E+01  0.69786188356E+02  0.00000000000E+00 0. -1.
        -14    1    4    4    0    0  0.27326945682E+02 -0.14996175679E+03  0.92310085789E+02  0.17820337370E+03  0.00000000000E+00 0.  1.
        -13    1    3    3    0    0 -0.27543171422E+02  0.59656998299E+00 -0.73862367575E+02  0.78832934307E+02  0.00000000000E+00 0.  1.
         13    1    3    3    0    0 -0.68014523627E+02  0.20081493961E+03 -0.83678560418E+03  0.86322810586E+03  0.00000000000E+00 0. -1.
          2    1    1    2  501    0  0.21382230635E+02  0.23383821703E+00  0.16067386661E+03  0.16209054840E+03  0.00000000000E+00 0. -1.
<scales pt_clust_5="13000.00000" pt_clust_6="13000.00000" pt_clust_7="13000.00000" pt_clust_8="13000.00000" pt_clust_9="21.38351"></scales>
<clustering>
<clus scale="   21.384">  1  9  2 -1</clus>
<clus scale="   80.220">  5  6 -1 -1</clus>
<clus scale="   92.203">  7  8 -1 -1</clus>
<clus scale="  236.222">  1  5  2 -1</clus>
<clus scale="   21.384">  1  5  2 -1</clus>
</clustering>
</event>
<event>
 9    1  0.8429841E-005  0.9192219E+02  0.7546771E-02  0.1305639E+00
         -2   -1    0    0    0  501 -0.00000000000E+00  0.00000000000E+00  0.15547986239E+03  0.15547986239E+03  0.00000000000E+00 0.  1.
         21   -1    0    0  501  502  0.00000000000E+00 -0.00000000000E+00 -0.99360283896E+02  0.99360283896E+02  0.00000000000E+00 0.  1.
         23    2    1    2    0    0 -0.23287240427E+02 -0.51115751136E+00  0.86365592689E+02  0.12773223396E+03  0.91180870488E+02 0.  0.
        -24    2    1    2    0    0 -0.11631026921E+02  0.58735925004E+01  0.18634739863E+00  0.80479919279E+02  0.79417899781E+02 0.  0.
         11    1    4    4    0    0 -0.30127343046E+02 -0.28453130082E+02  0.14755315495E+01  0.41465824528E+02  0.00000000000E+00 0. -1.
        -12    1    4    4    0    0  0.18496316125E+02  0.34326722582E+02 -0.12891841508E+01  0.39014094750E+02  0.00000000000E+00 0.  1.
        -11    1    3    3    0    0 -0.17617074614E+02 -0.43298028545E+02  0.63613874197E+02  0.78941786046E+02  0.00000000000E+00 0.  1.
         11    1    3    3    0    0 -0.56701658125E+01  0.42786871033E+02  0.22751718492E+02  0.48790447912E+02  0.00000000000E+00 0. -1.
         -1    1    1    2    0  502  0.34918267348E+02 -0.53624349890E+01 -0.30432361594E+02  0.46627993049E+02  0.00000000000E+00 0.  1.
<scales pt_clust_5="13000.00000" pt_clust_6="13000.00000" pt_clust_7="13000.00000" pt_clust_8="13000.00000" pt_clust_9="35.32763"></scales>
<clustering>
<clus scale="   35.328">  2  9  1 -1</clus>
<clus scale="   79.418">  5  6 -1 -1</clus>
<clus scale="   80.268">  2  5  1 -1</clus>
<clus scale="   91.181">  7  8 -1 -1</clus>
<clus scale="   35.328">  2  5  1 -1</clus>
</clustering>
</event>
<event>
 9    1  0.8429841E-005  0.1669312E+03  0.7546771E-02  0.1200559E+00
          1   -1    0    0  502    0 -0.00000000000E+00  0.00000000000E+00  0.50237594395E+03  0.50237594395E+03  0.00000000000E+00 0. -1.
         21   -1    0    0  501  502  0.00000000000E+00 -0.00000000000E+00 -0.29781314354E+03  0.29781314354E+03  0.00000000000E+00 0.  1.
        -24    2    1    2    0    0 -0.71980583540E+02  0.24078135254E+02  0.38558033514E+02  0.11526857282E+03  0.77712038492E+02 0.  0.
         23    2    1    2    0    0  0.10523997242E+03  0.11134509182E+03  0.38546319436E+03  0.42490582516E+03  0.92140679294E+02 0.  0.
         11    1    3    3    0    0 -0.86558598122E+02  0.31369840927E+02  0.35553696299E+02  0.98694088725E+02  0.00000000000E+00 0. -1.
        -12    1    3    3    0    0  0.14578014583E+02 -0.72917056727E+01  0.30043372145E+01  0.16574484091E+02  0.00000000000E+00 0.  1.
        -11    1    4    4    0    0  0.35014901640E+02 -0.11814638892E+02  0.75546822490E+02  0.84100840765E+02  0.00000000000E+00 0. -1.
         11    1    4    4    0    0  0.70225070778E+02  0.12315973071E+03  0.30991637187E+03  0.34080498439E+03  0.00000000000E+00 0.  1.
          2    1    1    2  501    0 -0.33259388879E+02 -0.13542322707E+03 -0.21945842747E+03  0.26001468952E+03  0.00000000000E+00 0. -1.
<scales pt_clust_5="13000.00000" pt_clust_6="13000.00000" pt_clust_7="13000.00000" pt_clust_8="13000.00000" pt_clust_9="139.19809"></scales>
<clustering>
<clus scale="   77.712">  5  6 -1 -1</clus>
<clus scale="   92.141">  7  8 -1 -1</clus>
<clus scale="  108.628">  1  5  2 -1</clus>
<clus scale="  139.198">  2  9  1 -1</clus>
<clus scale="  139.198">  2  5  1 -1</clus>
</clustering>
</event>
<event>
 9    1  0.8429841E-005  0.1244094E+03  0.7546771E-02  0.1252230E+00
          1   -1    0    0  502    0 -0.00000000000E+00  0.00000000000E+00  0.45718976794E+03  0.45718976794E+03  0.00000000000E+00 0. -1.
         21   -1    0    0  501  502  0.00000000000E+00 -0.00000000000E+00 -0.75122083041E+02  0.75122083041E+02  0.00000000000E+00 0.  1.
        -24    2    1    2    0    0  0.28469612705E+02  0.28203197647E+02  0.27400006074E+03  0.28829795406E+03  0.80210584244E+02 0.  0.
         23    2    1    2    0    0  0.68306359782E+02 -0.33490033347E+02  0.40145915537E+02  0.12566315554E+03  0.91608913355E+02 0.  0.
         11    1    3    3    0    0  0.41835092199E+02  0.49044267372E+02  0.21018959084E+03  0.21985263064E+03  0.00000000000E+00 0. -1.
        -12    1    3    3    0    0 -0.13365479495E+02 -0.20841069725E+02  0.63810469899E+02  0.68445323421E+02  0.00000000000E+00 0.  1.
        -11    1    4    4    0    0  0.60296890482E+02 -0.58286542245E+02  0.79438005008E+01  0.84238589584E+02  0.00000000000E+00 0.  1.
         11    1    4    4    0    0  0.80094693005E+01  0.24796508898E+02  0.32202115036E+02  0.41424565958E+02  0.00000000000E+00 0. -1.
          2    1    1    2  501    0 -0.96775972487E+02  0.52868357005E+01  0.67921708622E+02  0.11835074138E+03  0.00000000000E+00 0. -1.
<scales pt_clust_5="13000.00000" pt_clust_6="13000.00000" pt_clust_7="13000.00000" pt_clust_8="13000.00000" pt_clust_9="84.17553"></scales>
<clustering>
<clus scale="   80.211">  5  6 -1 -1</clus>
<clus scale="   89.664">  1  5  2 -1</clus>
<clus scale="   84.176">  2  9  1 -1</clus>
<clus scale="   91.609">  7  8 -1 -1</clus>
<clus scale="   84.176">  2  5  1 -1</clus>
</clustering>
</event>
<event>
 9    1  0.8429841E-005  0.1117298E+03  0.7546771E-02  0.1261307E+00
          1   -1    0    0  502    0 -0.00000000000E+00  0.00000000000E+00  0.38069552440E+02  0.38069552440E+02  0.00000000000E+00 0. -1.
         21   -1    0    0  501  502  0.00000000000E+00 -0.00000000000E+00 -0.59571068146E+03  0.59571068146E+03  0.00000000000E+00 0. -1.
         23    2    1    2    0    0 -0.59144786818E+02  0.24111867886E+01 -0.14035135541E+03  0.17784021306E+03  0.91786266871E+02 0.  0.
        -24    2    1    2    0    0  0.75398586040E+02  0.19632784993E+02 -0.41312315002E+03  0.42823652949E+03  0.81519292672E+02 0.  0.
         13    1    4    4    0    0  0.92251891666E+02  0.10342112849E+02 -0.32260910075E+03  0.33569927420E+03  0.00000000000E+00 0. -1.
        -14    1    4    4    0    0 -0.16853305625E+02  0.92906721441E+01 -0.90514049274E+02  0.92537255283E+02  0.00000000000E+00 0.  1.
        -13    1    3    3    0    0 -0.35240921997E+02  0.38891742706E+02 -0.33072695229E+02  0.62034614560E+02  0.00000000000E+00 0. -1.
         13    1    3    3    0    0 -0.23903864821E+02 -0.36480555917E+02 -0.10727866018E+03  0.11580559850E+03  0.00000000000E+00 0.  1.
          2    1    1    2  501    0 -0.16253799223E+02 -0.22043971781E+02 -0.41666235860E+01  0.27703491354E+02  0.00000000000E+00 0. -1.
<scales pt_clust_5="13000.00000" pt_clust_6="13000.00000" pt_clust_7="13000.00000" pt_clust_8="13000.00000" pt_clust_9="27.38838"></scales>
<clustering>
<clus scale="   27.388">  2  9  1 -1</clus>
<clus scale="   81.519">  5  6 -1 -1</clus>
<clus scale="   91.786">  7  8 -1 -1</clus>
<clus scale="  103.461">  2  5  1 -1</clus>
<clus scale="   27.388">  2  5  1 -1</clus>
</clustering>
</event>
<event>
 9    1  0.8429841E-005  0.1174373E+03  0.7546771E-02  0.1250246E+00
         -2   -1    0    0    0  501 -0.00000000000E+00  0.00000000000E+00  0.51624541176E+03  0.51624541176E+03  0.00000000000E+00 0.  1.
         21   -1    0    0  501  502  0.00000000000E+00 -0.00000000000E+00 -0.43937050796E+02  0.43937050796E+02  0.00000000000E+00 0.  1.
        -24    2    1    2    0    0  0.32479560998E+02  0.35596489226E+02  0.13702760079E+03  0.16665475656E+03  0.81701974131E+02 0.  0.
         23    2    1    2    0    0 -0.77861927295E+02 -0.79068381159E+02  0.23792642107E+03  0.27765177278E+03  0.90372763925E+02 0.  0.
         11    1    3    3    0    0  0.47676040630E+02  0.11773448439E+02  0.12782987032E+03  0.13693828787E+03  0.00000000000E+00 0. -1.
        -12    1    3    3    0    0 -0.15196479631E+02  0.23823040786E+02  0.91977304698E+01  0.29716468688E+02  0.00000000000E+00 0.  1.
        -11    1    4    4    0    0 -0.31061300608E+02 -0.92858310675E+01  0.87818474100E+01  0.33587972520E+02  0.00000000000E+00 0. -1.
         11    1    4    4    0    0 -0.46800626687E+02 -0.69782550091E+02  0.22914457366E+03  0.24406380026E+03  0.00000000000E+00 0.  1.
         -1    1    1    2    0  502  0.45382366297E+02  0.43471891933E+02  0.97354339097E+02  0.11587593322E+03  0.00000000000E+00 0.  1.
<scales pt_clust_5="13000.00000" pt_clust_6="13000.00000" pt_clust_7="13000.00000" pt_clust_8="13000.00000" pt_clust_9="62.84397"></scales>
<clustering>
<clus scale="   62.844">  2  9  1 -1</clus>
<clus scale="   81.702">  5  6 -1 -1</clus>
<clus scale="   90.373">  7  8 -1 -1</clus>
<clus scale="  110.903">  1  5  2 -1</clus>
<clus scale="   62.844">  2  5  1 -1</clus>
</clustering>
</event>
<event>
 9    1  0.8429841E-005  0.1738446E+03  0.7546771E-02  0.1175997E+00
         21   -1    0    0  501  502  0.00000000000E+00  0.00000000000E+00  0.62346841875E+02  0.62346841875E+02  0.00000000000E+00 0. -1.
          1   -1    0    0  502    0 -0.00000000000E+00 -0.00000000000E+00 -0.90030160905E+03  0.90030160905E+03  0.00000000000E+00 0. -1.
         23    2    1    2    0    0 -0.11933775323E+02 -0.12355249457E+03 -0.39615918487E+03  0.42600998039E+03  0.95575989289E+02 0.  0.
        -24    2    1    2    0    0  0.70431106612E+02  0.16695518133E+03 -0.41352339008E+03  0.45850366498E+03  0.79933993417E+02 0.  0.
         13    1    4    4    0    0  0.71805191477E+02  0.68430209032E+02 -0.19429932372E+03  0.21815340068E+03  0.00000000000E+00 0. -1.
        -14    1    4    4    0    0 -0.13740848655E+01  0.98524972298E+02 -0.21922406636E+03  0.24035026430E+03  0.00000000000E+00 0.  1.
        -11    1    3    3    0    0  0.90303939283E+01 -0.72069393877E+02 -0.94061913452E+02  0.11884102453E+03  0.00000000000E+00 0.  1.
         11    1    3    3    0    0 -0.20964169251E+02 -0.51483100695E+02 -0.30209727141E+03  0.30716895586E+03  0.00000000000E+00 0. -1.
          2    1    1    2  501    0 -0.58497331289E+02 -0.43402686758E+02 -0.28272192225E+02  0.78134805554E+02  0.00000000000E+00 0. -1.
<scales pt_clust_5="13000.00000" pt_clust_6="13000.00000" pt_clust_7="13000.00000" pt_clust_8="13000.00000" pt_clust_9="72.84045"></scales>
<clustering>
<clus scale="   72.840">  1  9  2 -1</clus>
<clus scale="   79.934">  5  6 -1 -1</clus>
<clus scale="   95.576">  7  8 -1 -1</clus>
<clus scale="  165.761">  1  5  2 -1</clus>
<clus scale="   72.840">  1  5  2 -1</clus>
</clustering>
</event>
<event>
 9    1  0.8429841E-005  0.2241948E+03  0.7546771E-02  0.1131418E+00
         -2   -1    0    0    0  501 -0.00000000000E+00  0.00000000000E+00  0.66552151977E+02  0.66552151977E+02  0.00000000000E+00 0.  1.
         21   -1    0    0  501  502  0.00000000000E+00 -0.00000000000E+00 -0.15423946033E+04  0.15423946033E+04  0.00000000000E+00 0.  1.
        -24    2    1    2    0    0  0.12031039804E+03 -0.18906195859E+03 -0.44601402138E+03  0.50590380719E+03  0.82408366105E+02 0.  0.
         23    2    1    2    0    0 -0.16700919311E+03  0.82645791633E+02 -0.92017085516E+03  0.94326196748E+03  0.91139119680E+02 0.  0.
         11    1    3    3    0    0  0.58008971445E+02 -0.29135747666E+02 -0.93473475689E+02  0.11380344115E+03  0.00000000000E+00 0. -1.
        -12    1    3    3    0    0  0.62301426595E+02 -0.15992621093E+03 -0.35254054569E+03  0.39210036604E+03  0.00000000000E+00 0.  1.
        -11    1    4    4    0    0 -0.14568187855E+03  0.96921834456E+02 -0.86350804977E+03  0.88105800249E+03  0.00000000000E+00 0.  1.
         11    1    4    4    0    0 -0.21327314559E+02 -0.14276042823E+02 -0.56662805390E+02  0.62203964984E+02  0.00000000000E+00 0. -1.
         -1    1    1    2    0  502  0.46698795072E+02  0.10641616696E+03 -0.10965757474E+03  0.15978098056E+03  0.00000000000E+00 0.  1.
<scales pt_clust_5="13000.00000" pt_clust_6="13000.00000" pt_clust_7="13000.00000" pt_clust_8="13000.00000" pt_clust_9="116.21184"></scales>
<clustering>
<clus scale="   82.408">  5  6 -1 -1</clus>
<clus scale="   91.139">  7  8 -1 -1</clus>
<clus scale="  116.212">  2  9  1 -1</clus>
<clus scale="  220.790">  1  5  2 -1</clus>
<clus scale="  116.212">  2  5  1 -1</clus>
</clustering>
</event>
<event>
 9    1  0.8429841E-005  0.9862222E+02  0.7546771E-02  0.1286434E+00
         21   -1    0    0  501  502  0.00000000000E+00  0.00000000000E+00  0.53024646286E+02  0.53024646286E+02  0.00000000000E+00 0.  1.
          1   -1    0    0  502    0 -0.00000000000E+00 -0.00000000000E+00 -0.13261856862E+04  0.13261856862E+04  0.00000000000E+00 0. -1.
        -24    2    1    2    0    0  0.38603999961E+02  0.54174532483E+01 -0.11240268628E+04  0.11278764587E+04  0.84553534021E+02 0.  0.
         23    2    1    2    0    0 -0.27644409380E+02  0.51077884102E+02 -0.19649866117E+02  0.10963693467E+03  0.90889914685E+02 0.  0.
         11    1    3    3    0    0  0.17596869514E+02 -0.25115176108E+02 -0.14787571388E+03  0.15102201377E+03  0.00000000000E+00 0. -1.
        -12    1    3    3    0    0  0.21007130447E+02  0.30532629356E+02 -0.97615114891E+03  0.97685444489E+03  0.00000000000E+00 0.  1.
        -11    1    4    4    0    0 -0.18677962669E+01  0.26233933585E+02 -0.53973824566E+02  0.60040666823E+02  0.00000000000E+00 0. -1.
         11    1    4    4    0    0 -0.25776613113E+02  0.24843950517E+02  0.34323958449E+02  0.49596267848E+02  0.00000000000E+00 0.  1.
          2    1    1    2  501    0 -0.10959590581E+02 -0.56495337351E+02 -0.12948431098E+03  0.14169693912E+03  0.00000000000E+00 0. -1.
<scales pt_clust_5="13000.00000" pt_clust_6="13000.00000" pt_clust_7="13000.00000" pt_clust_8="13000.00000" pt_clust_9="57.54855"></scales>
<clustering>
<clus scale="   57.549">  1  9  2 -1</clus>
<clus scale="   84.554">  5  6 -1 -1</clus>
<clus scale="   90.890">  7  8 -1 -1</clus>
<clus scale="   92.815">  2  5  1 -1</clus>
<clus scale="   57.549">  1  5  2 -1</clus>
</clustering>
</event>
<event>
 9    1  0.8429841E-005  0.1802890E+03  0.7546771E-02  0.1168939E+00
         21   -1    0    0  501  502  0.00000000000E+00  0.00000000000E+00  0.90438620559E+02  0.90438620559E+02  0.00000000000E+00 0.  1.
          1   -1    0    0  502    0 -0.00000000000E+00 -0.00000000000E+00 -0.79561722977E+03  0.79561722977E+03  0.00000000000E+00 0. -1.
        -24    2    1    2    0    0  0.49654190363E+02 -0.97441244508E+02 -0.85778388885E+02  0.16063538386E+03  0.80532352487E+02 0.  0.
         23    2    1    2    0    0 -0.82693638242E+02  0.19431417010E+03 -0.24122064902E+03  0.33363512092E+03  0.92351274451E+02 0.  0.
         11    1    3    3    0    0  0.16641893561E+02 -0.42918857832E+02 -0.85262911451E+02  0.96895536781E+02  0.00000000000E+00 0. -1.
        -12    1    3    3    0    0  0.33012296802E+02 -0.54522386676E+02 -0.51547743316E+00  0.63739847081E+02  0.00000000000E+00 0.  1.
        -11    1    4    4    0    0 -0.35139170441E+02  0.22834880427E+02 -0.12280371228E+02  0.43669217773E+02  0.00000000000E+00 0. -1.
         11    1    4    4    0    0 -0.47554467801E+02  0.17147928967E+03 -0.22894027779E+03  0.28996590315E+03  0.00000000000E+00 0.  1.
          2    1    1    2  501    0  0.33039447879E+02 -0.96872925591E+02 -0.37817957131E+03  0.39178534554E+03  0.00000000000E+00 0. -1.
<scales pt_clust_5="13000.00000" pt_clust_6="13000.00000" pt_clust_7="13000.00000" pt_clust_8="13000.00000" pt_clust_9="102.35223"></scales>
<clustering>
<clus scale="   80.532">  5  6 -1 -1</clus>
<clus scale="   92.351">  7  8 -1 -1</clus>
<clus scale="  102.352">  1  9  2 -1</clus>
<clus scale="  174.530">  2  5  1 -1</clus>
<clus scale="  102.352">  1  5  2 -1</clus>
</clustering>
</event>
<event>
 9    1  0.8429841E-005  0.1502899E+03  0.7546771E-02  0.1201493E+00
         21   -1    0    0  501  502  0.00000000000E+00  0.00000000000E+00  0.15547997314E+03  0.15547997314E+03  0.00000000000E+00 0. -1.
          1   -1    0    0  502    0 -0.00000000000E+00 -0.00000000000E+00 -0.30114344943E+03  0.30114344943E+03  0.00000000000E+00 0. -1.
         23    2    1    2    0    0 -0.46140576122E+01 -0.11755403133E+03 -0.19455552142E+03  0.24374225654E+03  0.87853269142E+02 0.  0.
        -24    2    1    2    0    0  0.55179911052E+01  0.14361287621E+03  0.70533910798E+02  0.17899531586E+03  0.80057379970E+02 0.  0.
         11    1    4    4    0    0  0.36762046874E+02  0.11600130226E+03  0.61442744947E+02  0.13631933511E+03  0.00000000000E+00 0. -1.
        -12    1    4    4    0    0 -0.31244055769E+02  0.27611573949E+02  0.90911658508E+01  0.42675980755E+02  0.00000000000E+00 0.  1.
        -13    1    3    3    0    0  0.26568866690E+02 -0.19524173282E+01 -0.28386723763E+02  0.38929714828E+02  0.00000000000E+00 0.  1.
         13    1    3    3    0    0 -0.31182924303E+02 -0.11560161400E+03 -0.16616879765E+03  0.20481254171E+03  0.00000000000E+00 0. -1.
          2    1    1    2  501    0 -0.90393349300E+00 -0.26058844883E+02 -0.21641865666E+02  0.33885850172E+02  0.00000000000E+00 0. -1.
<scales pt_clust_5="13000.00000" pt_clust_6="13000.00000" pt_clust_7="13000.00000" pt_clust_8="13000.00000" pt_clust_9="26.07453"></scales>
<clustering>
<clus scale="   26.075">  1  9  2 -1</clus>
<clus scale="   80.057">  5  6 -1 -1</clus>
<clus scale="   87.853">  7  8 -1 -1</clus>
<clus scale="  145.870">  1  5  2 -1</clus>
<clus scale="   26.075">  1  5  2 -1</clus>
</clustering>
</event>
<event>
 9    1  0.1329052E-004  0.1069912E+03  0.7546771E-02  0.1267473E+00
         -2   -1    0    0    0  501 -0.00000000000E+00  0.00000000000E+00  0.13066067208E+04  0.13066067208E+04  0.00000000000E+00 0.  1.
         21   -1    0    0  501  502  0.00000000000E+00 -0.00000000000E+00 -0.54614373381E+02  0.54614373381E+02  0.00000000000E+00 0. -1.
        -24    2    1    2    0    0  0.39784433624E+02 -0.61250084817E+02  0.12229255448E+04  0.12277490218E+04  0.80538179662E+02 0.  0.
         23    2    1    2    0    0 -0.13546841842E+02  0.39429274061E+02  0.41666442548E+02  0.97094745229E+02  0.77156416062E+02 0.  0.
         13    1    3    3    0    0  0.37080050680E+02 -0.30053442209E+02  0.26191734527E+03  0.26623079330E+03  0.00000000000E+00 0. -1.
        -14    1    3    3    0    0  0.27043829440E+01 -0.31196642608E+02  0.96100819950E+03  0.96151822849E+03  0.00000000000E+00 0.  1.
        -13    1    4    4    0    0 -0.34459754466E+02 -0.79525282411E+01  0.11657724451E+02  0.37237345806E+02  0.00000000000E+00 0.  1.
         13    1    4    4    0    0  0.20912912624E+02  0.47381802302E+02  0.30008718097E+02  0.59857399423E+02  0.00000000000E+00 0. -1.
         -1    1    1    2    0  502 -0.26237591782E+02  0.21820810756E+02 -0.12599639919E+02  0.36377327151E+02  0.00000000000E+00 0.  1.
<scales pt_clust_5="13000.00000" pt_clust_6="13000.00000" pt_clust_7="13000.00000" pt_clust_8="13000.00000" pt_clust_9="34.12564"></scales>
<clustering>
<clus scale="   34.126">  2  9  1 -1</clus>
<clus scale="   77.156">  7  8 -1 -1</clus>
<clus scale="   80.538">  5  6 -1 -1</clus>
<clus scale="  104.469">  2  7  1 -1</clus>
<clus scale="   34.126">  2  5  1 -1</clus>
</clustering>
</event>
<event>
 9    1  0.8429841E-005  0.9808920E+02  0.7546771E-02  0.1294426E+00
         21   -1    0    0  501  502  0.00000000000E+00  0.00000000000E+00  0.11521441858E+03  0.11521441858E+03  0.00000000000E+00 0. -1.
          1   -1    0    0  502    0 -0.00000000000E+00 -0.00000000000E+00 -0.99316779760E+02  0.99316779760E+02  0.00000000000E+00 0. -1.
        -24    2    1    2    0    0 -0.47428902002E+01  0.16240890013E+02 -0.13107927653E+02  0.81867871441E+02  0.79020687742E+02 0.  0.
         23    2    1    2    0    0  0.28730195882E+02 -0.70080154953E+01  0.11054700606E+02  0.10131256310E+03  0.96267817047E+02 0.  0.
         13    1    3    3    0    0 -0.22373470851E+02 -0.26361225333E+02 -0.33255016968E+01  0.34735361816E+02  0.00000000000E+00 0. -1.
        -14    1    3    3    0    0  0.17630580650E+02  0.42602115346E+02 -0.97824259558E+01  0.47132509625E+02  0.00000000000E+00 0.  1.
        -13    1    4    4    0    0  0.50881387702E+02 -0.25897000069E+02 -0.18316412360E+02  0.59958829115E+02  0.00000000000E+00 0. -1.
         13    1    4    4    0    0 -0.22151191820E+02  0.18888984573E+02  0.29371112966E+02  0.41353733981E+02  0.00000000000E+00 0.  1.
          2    1    1    2  501    0 -0.23987305682E+02 -0.92328745174E+01  0.17950865868E+02  0.31350763805E+02  0.00000000000E+00 0. -1.
<scales pt_clust_5="13000.00000" pt_clust_6="13000.00000" pt_clust_7="13000.00000" pt_clust_8="13000.00000" pt_clust_9="25.70286"></scales>
<clustering>
<clus scale="   25.703">  1  9  2 -1</clus>
<clus scale="   79.021">  5  6 -1 -1</clus>
<clus scale="   81.230">  2  5  1 -1</clus>
<clus scale="   96.268">  7  8 -1 -1</clus>
<clus scale="   25.703">  1  5  2 -1</clus>
</clustering>
</event>
<event>
 9    1  0.8429841E-005  0.1069072E+03  0.7546771E-02  0.1272090E+00
         21   -1    0    0  501  502  0.00000000000E+00  0.00000000000E+00  0.76203799451E+02  0.76203799451E+02  0.00000000000E+00 0. -1.
          3   -1    0    0  502    0 -0.00000000000E+00 -0.00000000000E+00 -0.32504953450E+03  0.32504953450E+03  0.00000000000E+00 0. -1.
         23    2    1    2    0    0  0.19964971933E+02 -0.12777887346E+02 -0.53694521390E+02  0.10783131314E+03  0.90457813135E+02 0.  0.
        -24    2    1    2    0    0 -0.10320975362E+03 -0.85822152667E+01 -0.88579217110E+02  0.15651497895E+03  0.76972418899E+02 0.  0.
         11    1    4    4    0    0 -0.73791758600E+02 -0.28640718094E+02 -0.23902555975E+02  0.82685225720E+02  0.00000000000E+00 0. -1.
        -12    1    4    4    0    0 -0.29417995019E+02  0.20058502827E+02 -0.64676661135E+02  0.73829753231E+02  0.00000000000E+00 0.  1.
        -11    1    3    3    0    0  0.31442795473E+02  0.27847937399E+02 -0.33588286447E+01  0.42135955364E+02  0.00000000000E+00 0.  1.
         11    1    3    3    0    0 -0.11477823540E+02 -0.40625824745E+02 -0.50335692745E+02  0.65695357778E+02  0.00000000000E+00 0. -1.
          4    1    1    2  501    0  0.83244781686E+02  0.21360102612E+02 -0.10657199655E+03  0.13690704185E+03  0.00000000000E+00 0. -1.
<scales pt_clust_5="13000.00000" pt_clust_6="13000.00000" pt_clust_7="13000.00000" pt_clust_8="13000.00000" pt_clust_9="85.94158"></scales>
<clustering>
<clus scale="   76.972">  5  6 -1 -1</clus>
<clus scale="   85.942">  1  9  2 -1</clus>
<clus scale="   90.458">  7  8 -1 -1</clus>
<clus scale="   95.767">  1  5  2 -1</clus>
<clus scale="   85.942">  1  5  2 -1</clus>
</clustering>
</event>
<event>
 9    1  0.8429841E-005  0.1162290E+03  0.7546771E-02  0.1252643E+00
         -4   -1    0    0    0  501 -0.00000000000E+00  0.00000000000E+00  0.25095925208E+03  0.25095925208E+03  0.00000000000E+00 0.  1.
         21   -1    0    0  501  502  0.00000000000E+00 -0.00000000000E+00 -0.13112413592E+03  0.13112413592E+03  0.00000000000E+00 0.  1.
        -24    2    1    2    0    0  0.55226664051E+02  0.51315465714E+02  0.19057051165E+03  0.22084091831E+03  0.82282014116E+02 0.  0.
         23    2    1    2    0    0 -0.22861349610E+02 -0.52078173094E+02 -0.35737678720E+02  0.11356715657E+03  0.91572593894E+02 0.  0.
         11    1    3    3    0    0  0.29703899450E+02  0.22245418745E+02  0.13336129017E+02  0.39433902100E+02  0.00000000000E+00 0. -1.
        -12    1    3    3    0    0  0.25522764600E+02  0.29070046969E+02  0.17723438264E+03  0.18140701621E+03  0.00000000000E+00 0.  1.
        -11    1    4    4    0    0 -0.41982211311E+02 -0.21284208753E+02  0.16593395286E+02  0.49908560147E+02  0.00000000000E+00 0. -1.
         11    1    4    4    0    0  0.19120861701E+02 -0.30793964341E+02 -0.52331074006E+02  0.63658596424E+02  0.00000000000E+00 0.  1.
         -3    1    1    2    0  502 -0.32365314441E+02  0.76270738024E+00 -0.34997716773E+02  0.47675313116E+02  0.00000000000E+00 0.  1.
<scales pt_clust_5="13000.00000" pt_clust_6="13000.00000" pt_clust_7="13000.00000" pt_clust_8="13000.00000" pt_clust_9="32.37430"></scales>
<clustering>
<clus scale="   32.374">  2  9  1 -1</clus>
<clus scale="   82.282">  5  6 -1 -1</clus>
<clus scale="   91.573">  7  8 -1 -1</clus>
<clus scale="  109.059">  1  5  2 -1</clus>
<clus scale="   32.374">  2  5  1 -1</clus>
</clustering>
</event>
<event>
 9    1  0.8429841E-005  0.1603748E+03  0.7546771E-02  0.1211166E+00
         21   -1    0    0  501  502  0.00000000000E+00  0.00000000000E+00  0.32582401695E+03  0.32582401695E+03  0.00000000000E+00 0. -1.
          3   -1    0    0  502    0 -0.00000000000E+00 -0.00000000000E+00 -0.22676594715E+03  0.22676594715E+03  0.00000000000E+00 0. -1.
        -24    2    1    2    0    0 -0.65895038907E+01  0.53353071497E+02 -0.13512338950E+03  0.16663793189E+03  0.81362756570E+02 0.  0.
         23    2    1    2    0    0  0.43291313851E+02  0.10327004715E+03  0.13086259248E+03  0.19476465714E+03  0.90936313248E+02 0.  0.
         11    1    3    3    0    0 -0.17757515508E+02 -0.12522749620E+02 -0.82430178493E+01  0.23239964680E+02  0.00000000000E+00 0. -1.
        -12    1    3    3    0    0  0.11168011617E+02  0.65875821117E+02 -0.12688037165E+03  0.14339796721E+03  0.00000000000E+00 0.  1.
        -11    1    4    4    0    0  0.35986365698E+02  0.12778072690E+02  0.84711730582E+02  0.92921337463E+02  0.00000000000E+00 0.  1.
         11    1    4    4    0    0  0.73049481534E+01  0.90491974455E+02  0.46150861897E+02  0.10184331967E+03  0.00000000000E+00 0. -1.
          4    1    1    2  501    0 -0.36701809961E+02 -0.15662311864E+03  0.10331886681E+03  0.19118737507E+03  0.00000000000E+00 0. -1.
<scales pt_clust_5="13000.00000" pt_clust_6="13000.00000" pt_clust_7="13000.00000" pt_clust_8="13000.00000" pt_clust_9="132.10102"></scales>
<clustering>
<clus scale="   81.363">  5  6 -1 -1</clus>
<clus scale="   90.936">  7  8 -1 -1</clus>
<clus scale="   97.519">  2  5  1 -1</clus>
<clus scale="  132.101">  1  9  2 -1</clus>
<clus scale="  132.101">  1  5  2 -1</clus>
</clustering>
</event>
<event>
 9    1  0.8429841E-005  0.1850555E+03  0.7546771E-02  0.1194529E+00
          3   -1    0    0  502    0 -0.00000000000E+00  0.00000000000E+00  0.54191874160E+03  0.54191874160E+03  0.00000000000E+00 0. -1.
         21   -1    0    0  501  502  0.00000000000E+00 -0.00000000000E+00 -0.14810355808E+03  0.14810355808E+03  0.00000000000E+00 0.  1.
        -24    2    1    2    0    0  0.16908202968E+01 -0.43886723811E+02  0.68599093792E+02  0.11391452445E+03  0.79635292495E+02 0.  0.
         23    2    1    2    0    0  0.88011143294E+01  0.16736597059E+03 -0.35187851344E+02  0.19499334908E+03  0.93249094237E+02 0.  0.
         13    1    3    3    0    0 -0.22407492350E+02 -0.56687046263E+02  0.59420374954E+02  0.85125189499E+02  0.00000000000E+00 0. -1.
        -14    1    3    3    0    0  0.24098312647E+02  0.12800322452E+02  0.91787188373E+01  0.28789334949E+02  0.00000000000E+00 0.  1.
        -11    1    4    4    0    0  0.38268524960E+02  0.89770333868E+02 -0.51592043752E+02  0.11038537867E+03  0.00000000000E+00 0.  1.
         11    1    4    4    0    0 -0.29467410630E+02  0.77595636724E+02  0.16404192408E+02  0.84607970408E+02  0.00000000000E+00 0. -1.
          4    1    1    2  501    0 -0.10491934626E+02 -0.12347924678E+03  0.36040394108E+03  0.38111442616E+03  0.00000000000E+00 0. -1.
<scales pt_clust_5="13000.00000" pt_clust_6="13000.00000" pt_clust_7="13000.00000" pt_clust_8="13000.00000" pt_clust_9="159.84419"></scales>
<clustering>
<clus scale="   79.635">  5  6 -1 -1</clus>
<clus scale="   90.943">  1  5  2 -1</clus>
<clus scale="   93.249">  7  8 -1 -1</clus>
<clus scale="  159.844">  2  9  1 -1</clus>
<clus scale="  159.844">  2  5  1 -1</clus>
</clustering>
</event>
<event>
 9    1  0.8429841E-005  0.1824042E+03  0.7546771E-02  0.1166834E+00
         21   -1    0    0  501  502  0.00000000000E+00  0.00000000000E+00  0.62319084406E+03  0.62319084406E+03  0.00000000000E+00 0.  1.
          1   -1    0    0  502    0 -0.00000000000E+00 -0.00000000000E+00 -0.13251592958E+03  0.13251592958E+03  0.00000000000E+00 0. -1.
         23    2    1    2    0    0 -0.65295159062E+02  0.14738892520E+03 -0.39650391809E+02  0.18989552561E+03  0.92201973991E+02 0.  0.
        -24    2    1    2    0    0  0.54458692549E+02 -0.12701881263E+03  0.36052301398E+03  0.39444850714E+03  0.80704728623E+02 0.  0.
         13    1    4    4    0    0  0.52335758004E+02 -0.28627183281E+02  0.16708623085E+03  0.17741577080E+03  0.00000000000E+00 0. -1.
        -14    1    4    4    0    0  0.21229345448E+01 -0.98391629353E+02  0.19343678312E+03  0.21703273634E+03  0.00000000000E+00 0.  1.
        -13    1    3    3    0    0 -0.44443060514E+01  0.60024341561E+02 -0.55962186577E+02  0.82185398719E+02  0.00000000000E+00 0.  1.
         13    1    3    3    0    0 -0.60850853010E+02  0.87364583638E+02  0.16311794768E+02  0.10771012689E+03  0.00000000000E+00 0. -1.
          2    1    1    2  501    0  0.10836466513E+02 -0.20370112565E+02  0.16980229231E+03  0.17136274089E+03  0.00000000000E+00 0. -1.
<scales pt_clust_5="13000.00000" pt_clust_6="13000.00000" pt_clust_7="13000.00000" pt_clust_8="13000.00000" pt_clust_9="23.07316"></scales>
<clustering>
<clus scale="   23.073">  1  9  2 -1</clus>
<clus scale="   80.705">  5  6 -1 -1</clus>
<clus scale="   92.202">  7  8 -1 -1</clus>
<clus scale="  176.871">  1  5  2 -1</clus>
<clus scale="   23.073">  1  5  2 -1</clus>
</clustering>
</event>
<event>
 9    1  0.8429841E-005  0.1071928E+03  0.7546771E-02  0.1270556E+00
         -2   -1    0    0    0  501 -0.00000000000E+00  0.00000000000E+00  0.20022232015E+03  0.20022232015E+03  0.00000000000E+00 0.  1.
         21   -1    0    0  501  502  0.00000000000E+00 -0.00000000000E+00 -0.20682250411E+03  0.20682250411E+03  0.00000000000E+00 0.  1.
        -24    2    1    2    0    0 -0.38265157024E+02  0.71485745791E+02  0.12184682329E+03  0.16688541544E+03  0.80185157280E+02 0.  0.
         23    2    1    2    0    0  0.10433623191E+02  0.19846675183E+01 -0.28383680160E+01  0.92003996640E+02  0.91344839300E+02 0.  0.
         11    1    3    3    0    0  0.11126775160E+02  0.37676889354E+02  0.10813488858E+02  0.40746590755E+02  0.00000000000E+00 0. -1.
        -12    1    3    3    0    0 -0.49391932184E+02  0.33808856437E+02  0.11103333443E+03  0.12613882469E+03  0.00000000000E+00 0.  1.
        -13    1    4    4    0    0  0.40714802490E+02  0.29669724026E+02 -0.65709045740E+01  0.50805161672E+02  0.00000000000E+00 0.  1.
         13    1    4    4    0    0 -0.30281179299E+02 -0.27685056508E+02  0.37325365580E+01  0.41198834968E+02  0.00000000000E+00 0. -1.
         -1    1    1    2    0  502  0.27831533833E+02 -0.73470413309E+02 -0.12560863924E+03  0.14815541218E+03  0.00000000000E+00 0.  1.
<scales pt_clust_5="13000.00000" pt_clust_6="13000.00000" pt_clust_7="13000.00000" pt_clust_8="13000.00000" pt_clust_9="78.56523"></scales>
<clustering>
<clus scale="   78.565">  2  9  1 -1</clus>
<clus scale="   80.185">  5  6 -1 -1</clus>
<clus scale="   91.345">  7  8 -1 -1</clus>
<clus scale="   97.857">  1  5  2 -1</clus>
<clus scale="   78.565">  2  5  1 -1</clus>
</clustering>
</event>
<event>
 9    1  0.8429841E-005  0.9401455E+02  0.7546771E-02  0.1295715E+00
         21   -1    0    0  501  502  0.00000000000E+00  0.00000000000E+00  0.22973751610E+02  0.22973751610E+02  0.00000000000E+00 0. -1.
          1   -1    0    0  502    0 -0.00000000000E+00 -0.00000000000E+00 -0.58005959686E+03  0.58005959686E+03  0.00000000000E+00 0. -1.
         23    2    1    2    0    0  0.42287338316E+02  0.11526275187E+02 -0.32152504767E+03  0.33346790270E+03  0.76820647294E+02 0.  0.
        -24    2    1    2    0    0 -0.41132108921E+02 -0.40811140485E+02 -0.19925817620E+03  0.22290906132E+03  0.81407796096E+02 0.  0.
         11    1    4    4    0    0 -0.10157712590E+02 -0.47794491543E+02 -0.48508479501E+02  0.68851761999E+02  0.00000000000E+00 0. -1.
        -12    1    4    4    0    0 -0.30974396331E+02  0.69833510573E+01 -0.15074969670E+03  0.15405729933E+03  0.00000000000E+00 0.  1.
        -13    1    3    3    0    0  0.27593947075E+02  0.37410481053E+02 -0.26992795324E+03  0.27390156982E+03  0.00000000000E+00 0. -1.
         13    1    3    3    0    0  0.14693391241E+02 -0.25884205866E+02 -0.51597094424E+02  0.59566332878E+02  0.00000000000E+00 0.  1.
          2    1    1    2  501    0 -0.11552293955E+01  0.29284865298E+02 -0.36302621378E+02  0.46656384444E+02  0.00000000000E+00 0. -1.
<scales pt_clust_5="13000.00000" pt_clust_6="13000.00000" pt_clust_7="13000.00000" pt_clust_8="13000.00000" pt_clust_9="29.30764"></scales>
<clustering>
<clus scale="   29.308">  1  9  2 -1</clus>
<clus scale="   76.821">  7  8 -1 -1</clus>
<clus scale="   81.408">  5  6 -1 -1</clus>
<clus scale="   90.072">  2  7  1 -1</clus>
<clus scale="   29.308">  1  5  2 -1</clus>
</clustering>
</event>
<event>
 9    1  0.8429841E-005  0.2535846E+03  0.7546771E-02  0.1111060E+00
         21   -1    0    0  501  502  0.00000000000E+00  0.00000000000E+00  0.59965756762E+02  0.59965756762E+02  0.00000000000E+00 0. -1.
          1   -1    0    0  502    0 -0.00000000000E+00 -0.00000000000E+00 -0.94158788960E+03  0.94158788960E+03  0.00000000000E+00 0. -1.
        -24    2    1    2    0    0  0.24591528682E+02 -0.11014554563E+03 -0.31458173087E+03  0.34358823556E+03  0.79714651806E+02 0.  0.
         23    2    1    2    0    0 -0.61310261179E+01 -0.58114472242E+02 -0.42074713526E+03  0.43423802390E+03  0.90108979614E+02 0.  0.
         11    1    3    3    0    0  0.35052258442E+02 -0.11721602878E+03 -0.30164213213E+03  0.32550919204E+03  0.00000000000E+00 0. -1.
        -12    1    3    3    0    0 -0.10460729760E+02  0.70704831507E+01 -0.12939598738E+02  0.18079043520E+02  0.00000000000E+00 0.  1.
        -11    1    4    4    0    0  0.27362816032E+02  0.49013261159E+01 -0.55363883224E+02  0.61950837481E+02  0.00000000000E+00 0.  1.
         11    1    4    4    0    0 -0.33493842150E+02 -0.63015798358E+02 -0.36538325203E+03  0.37228718642E+03  0.00000000000E+00 0. -1.
          2    1    1    2  501    0 -0.18460502565E+02  0.16826001787E+03 -0.14629326672E+03  0.22372738691E+03  0.00000000000E+00 0. -1.
<scales pt_clust_5="13000.00000" pt_clust_6="13000.00000" pt_clust_7="13000.00000" pt_clust_8="13000.00000" pt_clust_9="169.26968"></scales>
<clustering>
<clus scale="   79.715">  5  6 -1 -1</clus>
<clus scale="   90.109">  7  8 -1 -1</clus>
<clus scale="  107.152">  5  7 -1 -1</clus>
<clus scale="  169.270">  1  9  2 -1</clus>
<clus scale="  169.270">  1  5  2 -1</clus>
</clustering>
</event>
<event>
 9    1  0.8429841E-005  0.1557113E+03  0.7546771E-02  0.1195498E+00
         -2   -1    0    0    0  501 -0.00000000000E+00  0.00000000000E+00  0.15943106876E+03  0.15943106876E+03  0.00000000000E+00 0.  1.
         21   -1    0    0  501  502  0.00000000000E+00 -0.00000000000E+00 -0.68143071154E+03  0.68143071154E+03  0.00000000000E+00 0.  1.
         23    2    1    2    0    0 -0.11871634716E+03  0.24932294750E+02  0.64475896151E+02  0.16560952269E+03  0.92488823189E+02 0.  0.
        -24    2    1    2    0    0  0.15356719529E+03 -0.92970018407E+02 -0.56106435354E+03  0.59469518592E+03  0.81503665897E+02 0.  0.
         13    1    4    4    0    0  0.97083308053E+02 -0.84571038433E+02 -0.28422725463E+03  0.31202974460E+03  0.00000000000E+00 0. -1.
        -14    1    4    4    0    0  0.56483887235E+02 -0.83989799740E+01 -0.27683709891E+03  0.28266544132E+03  0.00000000000E+00 0.  1.
        -13    1    3    3    0    0 -0.37598048570E+02  0.39738471009E+02  0.62591998830E+02  0.83129523348E+02  0.00000000000E+00 0. -1.
         13    1    3    3    0    0 -0.81118298593E+02 -0.14806176259E+02  0.18838973215E+01  0.82479999340E+02  0.00000000000E+00 0.  1.
         -1    1    1    2    0  502 -0.34850848125E+02  0.68037723656E+02 -0.25411185392E+02  0.80557071685E+02  0.00000000000E+00 0.  1.
<scales pt_clust_5="13000.00000" pt_clust_6="13000.00000" pt_clust_7="13000.00000" pt_clust_8="13000.00000" pt_clust_9="76.44422"></scales>
<clustering>
<clus scale="   76.444">  2  9  1 -1</clus>
<clus scale="   81.504">  5  6 -1 -1</clus>
<clus scale="   92.489">  7  8 -1 -1</clus>
<clus scale="  149.448">  2  5  1 -1</clus>
<clus scale="   76.444">  2  5  1 -1</clus>
</clustering>
</event>
<event>
 9    1  0.8429841E-005  0.1536846E+03  0.7546771E-02  0.1198224E+00
         21   -1    0    0  501  502  0.00000000000E+00  0.00000000000E+00  0.27670895620E+03  0.27670895620E+03  0.00000000000E+00 0.  1.
         -2   -1    0    0    0  501 -0.00000000000E+00 -0.00000000000E+00 -0.19140102501E+03  0.19140102501E+03  0.00000000000E+00 0.  1.
        -24    2    1    2    0    0 -0.11206552422E+03  0.38067077897E+02 -0.85961572954E+02  0.16706220813E+03  0.80700713892E+02 0.  0.
         23    2    1    2    0    0  0.12896014711E+03 -0.66815462285E+02  0.19479852261E+03  0.26023708088E+03  0.93176436481E+02 0.  0.
         13    1    3    3    0    0 -0.30560778613E+02 -0.59058703094E+01 -0.65060332574E+02  0.72122724354E+02  0.00000000000E+00 0. -1.
        -14    1    3    3    0    0 -0.81504745609E+02  0.43972948207E+02 -0.20901240380E+02  0.94939483779E+02  0.00000000000E+00 0.  1.
        -11    1    4    4    0    0  0.84689498631E+02  0.58844731137E+01  0.74998404297E+02  0.11327708881E+03  0.00000000000E+00 0.  1.
         11    1    4    4    0    0  0.44270648475E+02 -0.72699935398E+02  0.11980011831E+03  0.14695999207E+03  0.00000000000E+00 0. -1.
         -1    1    1    2    0  502 -0.16894622884E+02  0.28748384387E+02 -0.23529018470E+02  0.40810692195E+02  0.00000000000E+00 0.  1.
<scales pt_clust_5="13000.00000" pt_clust_6="13000.00000" pt_clust_7="13000.00000" pt_clust_8="13000.00000" pt_clust_9="33.34515"></scales>
<clustering>
<clus scale="   33.345">  1  9  2 -1</clus>
<clus scale="   80.701">  5  6 -1 -1</clus>
<clus scale="   93.176">  7  8 -1 -1</clus>
<clus scale="  146.457">  2  5  1 -1</clus>
<clus scale="   33.345">  1  5  2 -1</clus>
</clustering>
</event>
<event>
 9    1  0.8429841E-005  0.1573618E+03  0.7546771E-02  0.1192402E+00
         21   -1    0    0  501  502  0.00000000000E+00  0.00000000000E+00  0.32370700692E+03  0.32370700692E+03  0.00000000000E+00 0.  1.
         -2   -1    0    0    0  501 -0.00000000000E+00 -0.00000000000E+00 -0.17067627679E+03  0.17067627679E+03  0.00000000000E+00 0.  1.
         23    2    1    2    0    0  0.10993707592E+03 -0.73657449003E+01  0.45614554154E+01  0.14271936824E+03  0.90595785422E+02 0.  0.
        -24    2    1    2    0    0 -0.18484441620E+03  0.90563642847E+01  0.17820628096E+03  0.27105214609E+03  0.86384671051E+02 0.  0.
         13    1    4    4    0    0 -0.51366848401E+02 -0.28807400227E+02  0.86839484118E+02  0.10492623802E+03  0.00000000000E+00 0. -1.
        -14    1    4    4    0    0 -0.13347756780E+03  0.37863764512E+02  0.91366796846E+02  0.16612590808E+03  0.00000000000E+00 0.  1.
        -13    1    3    3    0    0  0.62388201001E+02 -0.49078287009E+02  0.14864931249E+01  0.79392540844E+02  0.00000000000E+00 0. -1.
         13    1    3    3    0    0  0.47548874917E+02  0.41712542109E+02  0.30749622905E+01  0.63326827397E+02  0.00000000000E+00 0.  1.
         -1    1    1    2    0  502  0.74907340279E+02 -0.16906193844E+01 -0.29737006247E+02  0.80611769377E+02  0.00000000000E+00 0.  1.
<scales pt_clust_5="13000.00000" pt_clust_6="13000.00000" pt_clust_7="13000.00000" pt_clust_8="13000.00000" pt_clust_9="74.92645"></scales>
<clustering>
<clus scale="   74.926">  1  9  2 -1</clus>
<clus scale="   86.385">  5  6 -1 -1</clus>
<clus scale="   90.596">  7  8 -1 -1</clus>
<clus scale="  154.976">  1  5  2 -1</clus>
<clus scale="   74.926">  1  5  2 -1</clus>
</clustering>
</event>
<event>
 9    1  0.8429841E-005  0.1242006E+03  0.7546771E-02  0.1239912E+00
         21   -1    0    0  501  502  0.00000000000E+00  0.00000000000E+00  0.58819645978E+03  0.58819645978E+03  0.00000000000E+00 0. -1.
          3   -1    0    0  502    0 -0.00000000000E+00 -0.00000000000E+00 -0.11345252857E+03  0.11345252857E+03  0.00000000000E+00 0. -1.
        -24    2    1    2    0    0 -0.95280105559E+02 -0.34182998446E+02 -0.52417654218E+02  0.13900574140E+03  0.79550045704E+02 0.  0.
         23    2    1    2    0    0  0.13330147911E+02 -0.69964751636E+01  0.16882097118E+03  0.19275199208E+03  0.91794153590E+02 0.  0.
         13    1    3    3    0    0 -0.10271928620E+03 -0.36425909539E+02 -0.26796843287E+02  0.11223265769E+03  0.00000000000E+00 0. -1.
        -14    1    3    3    0    0  0.74391806370E+01  0.22429110923E+01 -0.25620810931E+02  0.26773083713E+02  0.00000000000E+00 0.  1.
        -11    1    4    4    0    0  0.38118152818E+02  0.29963952870E+02  0.85494153730E+02  0.98285718026E+02  0.00000000000E+00 0.  1.
         11    1    4    4    0    0 -0.24788004907E+02 -0.36960428033E+02  0.83326817446E+02  0.94466274052E+02  0.00000000000E+00 0. -1.
          4    1    1    2  501    0  0.81949957648E+02  0.41179473610E+02  0.35834061425E+03  0.36989125486E+03  0.00000000000E+00 0. -1.
<scales pt_clust_5="13000.00000" pt_clust_6="13000.00000" pt_clust_7="13000.00000" pt_clust_8="13000.00000" pt_clust_9="91.71447"></scales>
<clustering>
<clus scale="   79.550">  5  6 -1 -1</clus>
<clus scale="   91.714">  1  9  2 -1</clus>
<clus scale="   91.794">  7  8 -1 -1</clus>
<clus scale="  115.446">  2  5  1 -1</clus>
<clus scale="   91.714">  1  5  2 -1</clus>
</clustering>
</event>
<event>
 9    1  0.8429841E-005  0.1688885E+03  0.7546771E-02  0.1180607E+00
          1   -1    0    0  502    0 -0.00000000000E+00  0.00000000000E+00  0.17852856240E+04  0.17852856240E+04  0.00000000000E+00 0. -1.
         21   -1    0    0  501  502  0.00000000000E+00 -0.00000000000E+00 -0.22595401893E+02  0.22595401893E+02  0.00000000000E+00 0. -1.
        -24    2    1    2    0    0  0.71107884677E+02 -0.84717400465E+02  0.51080311409E+03  0.52919798137E+03  0.83050062720E+02 0.  0.
         23    2    1    2    0    0 -0.11226070225E+03  0.13224596456E+03  0.93097816488E+03  0.95167376548E+03  0.94186793099E+02 0.  0.
         13    1    3    3    0    0  0.28572955988E+02 -0.32115898919E+02  0.62718965889E+02  0.76036264108E+02  0.00000000000E+00 0. -1.
        -14    1    3    3    0    0  0.42534928689E+02 -0.52601501546E+02  0.44808414820E+03  0.45316171727E+03  0.00000000000E+00 0.  1.
        -13    1    4    4    0    0 -0.57930311214E+02  0.11805535587E+02  0.18926322749E+03  0.19828227583E+03  0.00000000000E+00 0.  1.
         13    1    4    4    0    0 -0.54330391040E+02  0.12044042897E+03  0.74171493739E+03  0.75339148965E+03  0.00000000000E+00 0. -1.
          2    1    1    2  501    0  0.41152817577E+02 -0.47528564094E+02  0.32090894311E+03  0.32700927902E+03  0.00000000000E+00 0. -1.
<scales pt_clust_5="13000.00000" pt_clust_6="13000.00000" pt_clust_7="13000.00000" pt_clust_8="13000.00000" pt_clust_9="62.86909"></scales>
<clustering>
<clus scale="   62.869">  2  9  1 -1</clus>
<clus scale="   83.050">  5  6 -1 -1</clus>
<clus scale="   94.187">  7  8 -1 -1</clus>
<clus scale="  162.940">  1  5  2 -1</clus>
<clus scale="   62.869">  2  5  1 -1</clus>
</clustering>
</event>
<event>
 9    1  0.8429841E-005  0.1099287E+03  0.7546771E-02  0.1261148E+00
          1   -1    0    0  502    0 -0.00000000000E+00  0.00000000000E+00  0.20132017672E+03  0.20132017672E+03  0.00000000000E+00 0. -1.
         21   -1    0    0  501  502  0.00000000000E+00 -0.00000000000E+00 -0.87169284510E+02  0.87169284510E+02  0.00000000000E+00 0. -1.
        -24    2    1    2    0    0  0.22324468816E+02 -0.56572731613E+02  0.74582112092E+02  0.13281298644E+03  0.91531098832E+02 0.  0.
         23    2    1    2    0    0  0.10132120343E+02  0.65158374983E+02  0.46903252718E+02  0.12131169718E+03  0.90378864031E+02 0.  0.
         13    1    3    3    0    0  0.32079231860E+02 -0.57086052291E+02  0.85216033134E+01  0.66034174530E+02  0.00000000000E+00 0. -1.
        -14    1    3    3    0    0 -0.97547630444E+01  0.51332067804E+00  0.66060508778E+02  0.66778811911E+02  0.00000000000E+00 0.  1.
        -13    1    4    4    0    0  0.24659580931E+02 -0.33301090945E+00 -0.15961257929E+02  0.29376309888E+02  0.00000000000E+00 0.  1.
         13    1    4    4    0    0 -0.14527460588E+02  0.65491385892E+02  0.62864510647E+02  0.91935387290E+02  0.00000000000E+00 0. -1.
          2    1    1    2  501    0 -0.32456589158E+02 -0.85856433698E+01 -0.73344726015E+01  0.34364777610E+02  0.00000000000E+00 0. -1.
<scales pt_clust_5="13000.00000" pt_clust_6="13000.00000" pt_clust_7="13000.00000" pt_clust_8="13000.00000" pt_clust_9="33.57296"></scales>
<clustering>
<clus scale="   33.573">  2  9  1 -1</clus>
<clus scale="   90.379">  7  8 -1 -1</clus>
<clus scale="   91.531">  5  6 -1 -1</clus>
<clus scale="  108.971">  2  7  1 -1</clus>
<clus scale="   33.573">  2  5  1 -1</clus>
</clustering>
</event>
<event>
 9    1  0.8429841E-005  0.1540908E+03  0.7546771E-02  0.1198285E+00
          1   -1    0    0  502    0 -0.00000000000E+00  0.00000000000E+00  0.41025564114E+03  0.41025564114E+03  0.00000000000E+00 0. -1.
         21   -1    0    0  501  502  0.00000000000E+00 -0.00000000000E+00 -0.11854720846E+03  0.11854720846E+03  0.00000000000E+00 0. -1.
         23    2    1    2    0    0 -0.10381313413E+03  0.30903010959E+02  0.89873331960E+02  0.16858479305E+03  0.92797918864E+02 0.  0.
        -24    2    1    2    0    0  0.15372992061E+03  0.54678631043E+02  0.66026171873E+02  0.19211104250E+03  0.76971138057E+02 0.  0.
         13    1    4    4    0    0  0.15901444749E+03  0.40137805567E+02  0.54507839730E+02  0.17282286463E+03  0.00000000000E+00 0. -1.
        -14    1    4    4    0    0 -0.52845268867E+01  0.14540825475E+02  0.11518332144E+02  0.19288177863E+02  0.00000000000E+00 0.  1.
        -11    1    3    3    0    0  0.80106506873E+01  0.19118517992E+02  0.41075598890E+02  0.46009706354E+02  0.00000000000E+00 0. -1.
         11    1    3    3    0    0 -0.11182378482E+03  0.11784492967E+02  0.48797733070E+02  0.12257508670E+03  0.00000000000E+00 0.  1.
          2    1    1    2  501    0 -0.49916786476E+02 -0.85581642002E+02  0.13580892885E+03  0.16810701405E+03  0.00000000000E+00 0. -1.
<scales pt_clust_5="13000.00000" pt_clust_6="13000.00000" pt_clust_7="13000.00000" pt_clust_8="13000.00000" pt_clust_9="99.07529"></scales>
<clustering>
<clus scale="   76.971">  5  6 -1 -1</clus>
<clus scale="   92.798">  7  8 -1 -1</clus>
<clus scale="   99.075">  2  9  1 -1</clus>
<clus scale="  145.111">  2  5  1 -1</clus>
<clus scale="   99.075">  2  5  1 -1</clus>
</clustering>
</event>
<event>
 9    1  0.8429841E-005  0.3071698E+03  0.7546771E-02  0.1082180E+00
          1   -1    0    0  502    0 -0.00000000000E+00  0.00000000000E+00  0.17078078110E+04  0.17078078110E+04  0.00000000000E+00 0. -1.
         21   -1    0    0  501  502  0.00000000000E+00 -0.00000000000E+00 -0.91699764727E+02  0.91699764727E+02  0.00000000000E+00 0.  1.
        -24    2    1    2    0    0 -0.23538222100E+02  0.28619190994E+03  0.11312888222E+04  0.11699185110E+04  0.80218861840E+02 0.  0.
         23    2    1    2    0    0  0.22518862831E+02 -0.31157631552E+03  0.30033953371E+03  0.44336832669E+03  0.93726933297E+02 0.  0.
         13    1    3    3    0    0  0.72611316417E+00  0.26752973250E+03  0.10120848456E+04  0.10468468941E+04  0.00000000000E+00 0. -1.
        -14    1    3    3    0    0 -0.24264335264E+02  0.18662177438E+02  0.11920397659E+03  0.12307161682E+03  0.00000000000E+00 0.  1.
        -11    1    4    4    0    0  0.52968322099E+02 -0.26488887262E+03  0.24195062629E+03  0.36264564460E+03  0.00000000000E+00 0.  1.
         11    1    4    4    0    0 -0.30449459269E+02 -0.46687442906E+02  0.58388907418E+02  0.80722682093E+02  0.00000000000E+00 0. -1.
          2    1    1    2  501    0  0.10193592696E+01  0.25384405583E+02  0.18447969032E+03  0.18622073805E+03  0.00000000000E+00 0. -1.
<scales pt_clust_5="13000.00000" pt_clust_6="13000.00000" pt_clust_7="13000.00000" pt_clust_8="13000.00000" pt_clust_9="25.40488"></scales>
<clustering>
<clus scale="   25.405">  2  9  1 -1</clus>
<clus scale="   80.219">  5  6 -1 -1</clus>
<clus scale="   93.727">  7  8 -1 -1</clus>
<clus scale="  303.321">  1  5  2 -1</clus>
<clus scale="   25.405">  2  5  1 -1</clus>
</clustering>
</event>
<event>
 9    1  0.8429841E-005  0.1151053E+03  0.7546771E-02  0.1254468E+00
         21   -1    0    0  501  502  0.00000000000E+00  0.00000000000E+00  0.57439168919E+02  0.57439168919E+02  0.00000000000E+00 0. -1.
         -2   -1    0    0    0  501 -0.00000000000E+00 -0.00000000000E+00 -0.42156246483E+03  0.42156246483E+03  0.00000000000E+00 0.  1.
         23    2    1    2    0    0  0.65585890599E+02  0.15923897609E+02 -0.20471052935E+03  0.23357459140E+03  0.89975604249E+02 0.  0.
        -24    2    1    2    0    0 -0.86657488005E+02  0.64205106947E+01 -0.45183576824E+02  0.12714097982E+03  0.81071141297E+02 0.  0.
         11    1    4    4    0    0 -0.11161627730E+02 -0.31716100510E+02 -0.70178078525E+01  0.34347381155E+02  0.00000000000E+00 0. -1.
        -12    1    4    4    0    0 -0.75495860275E+02  0.38136611204E+02 -0.38165768971E+02  0.92793598669E+02  0.00000000000E+00 0.  1.
        -11    1    3    3    0    0  0.49520671118E+02  0.50658112241E+02 -0.15824475743E+03  0.17337803915E+03  0.00000000000E+00 0.  1.
         11    1    3    3    0    0  0.16065219482E+02 -0.34734214632E+02 -0.46465771917E+02  0.60196552252E+02  0.00000000000E+00 0. -1.
         -1    1    1    2    0  502  0.21071597406E+02 -0.22344408304E+02 -0.11422918973E+03  0.11828606252E+03  0.00000000000E+00 0.  1.
<scales pt_clust_5="13000.00000" pt_clust_6="13000.00000" pt_clust_7="13000.00000" pt_clust_8="13000.00000" pt_clust_9="30.71296"></scales>
<clustering>
<clus scale="   30.713">  1  9  2 -1</clus>
<clus scale="   81.071">  5  6 -1 -1</clus>
<clus scale="   89.976">  7  8 -1 -1</clus>
<clus scale="  108.287">  1  5  2 -1</clus>
<clus scale="   30.713">  1  5  2 -1</clus>
</clustering>
</event>
<event>
 9    1  0.8429841E-005  0.1476642E+03  0.7546771E-02  0.1205533E+00
         21   -1    0    0  501  502  0.00000000000E+00  0.00000000000E+00  0.27966649195E+03  0.27966649195E+03  0.00000000000E+00 0.  1.
         -2   -1    0    0    0  501 -0.00000000000E+00 -0.00000000000E+00 -0.17471875890E+03  0.17471875890E+03  0.00000000000E+00 0.  1.
        -24    2    1    2    0    0  0.37251235679E+02  0.14669176088E+03 -0.13154504093E+02  0.17167123968E+03  0.79949023043E+02 0.  0.
         23    2    1    2    0    0 -0.90171194696E+02 -0.35045574699E+02  0.68141707720E+02  0.14944193063E+03  0.91271910462E+02 0.  0.
         11    1    3    3    0    0  0.23919984438E+02  0.10514912040E+02 -0.22559673137E+02  0.34520542909E+02  0.00000000000E+00 0. -1.
        -12    1    3    3    0    0  0.13331251241E+02  0.13617684884E+03  0.94051690440E+01  0.13715069677E+03  0.00000000000E+00 0.  1.
        -13    1    4    4    0    0 -0.10168816256E+03 -0.66854053366E+01  0.57650910036E+02  0.11708460393E+03  0.00000000000E+00 0.  1.
         13    1    4    4    0    0  0.11516967863E+02 -0.28360169362E+02  0.10490797684E+02  0.32357326698E+02  0.00000000000E+00 0. -1.
         -1    1    1    2    0  502  0.52919959017E+02 -0.11164618618E+03  0.49960529421E+02  0.13327208054E+03  0.00000000000E+00 0.  1.
<scales pt_clust_5="13000.00000" pt_clust_6="13000.00000" pt_clust_7="13000.00000" pt_clust_8="13000.00000" pt_clust_9="123.55320"></scales>
<clustering>
<clus scale="   79.949">  5  6 -1 -1</clus>
<clus scale="   91.272">  7  8 -1 -1</clus>
<clus scale="  123.553">  1  9  2 -1</clus>
<clus scale="  140.947">  2  5  1 -1</clus>
<clus scale="  123.553">  1  5  2 -1</clus>
</clustering>
</event>
<event>
 9    1  0.8429841E-005  0.1458141E+03  0.7546771E-02  0.1208997E+00
         21   -1    0    0  501  502  0.00000000000E+00  0.00000000000E+00  0.97365796994E+02  0.97365796994E+02  0.00000000000E+00 0.  1.
          1   -1    0    0  502    0 -0.00000000000E+00 -0.00000000000E+00 -0.38002331845E+03  0.38002331845E+03  0.00000000000E+00 0. -1.
         23    2    1    2    0    0  0.10553050094E+03  0.40062595014E+02 -0.82219671980E+02  0.16906638964E+03  0.95297804269E+02 0.  0.
        -24    2    1    2    0    0 -0.76526433391E+02 -0.84854577676E+02 -0.48517958630E+02  0.14730343851E+03  0.79295121715E+02 0.  0.
         13    1    4    4    0    0 -0.72592562510E+02 -0.24017683722E+02 -0.38195431076E+02  0.85471750996E+02  0.00000000000E+00 0. -1.
        -14    1    4    4    0    0 -0.39338708808E+01 -0.60836893954E+02 -0.10322527555E+02  0.61831687517E+02  0.00000000000E+00 0.  1.
        -13    1    3    3    0    0  0.48167494413E+02  0.22601694837E+02 -0.93948120909E+02  0.10796848406E+03  0.00000000000E+00 0. -1.
         13    1    3    3    0    0  0.57363006523E+02  0.17460900177E+02  0.11728448928E+02  0.61097905582E+02  0.00000000000E+00 0.  1.
          2    1    1    2  501    0 -0.29004067545E+02  0.44791982662E+02 -0.15191989084E+03  0.16101928729E+03  0.00000000000E+00 0. -1.
<scales pt_clust_5="13000.00000" pt_clust_6="13000.00000" pt_clust_7="13000.00000" pt_clust_8="13000.00000" pt_clust_9="53.36254"></scales>
<clustering>
<clus scale="   53.363">  1  9  2 -1</clus>
<clus scale="   79.295">  5  6 -1 -1</clus>
<clus scale="   95.298">  7  8 -1 -1</clus>
<clus scale="  135.896">  1  5  2 -1</clus>
<clus scale="   53.363">  1  5  2 -1</clus>
</clustering>
</event>
<event>
 9    1  0.8429841E-005  0.1120235E+03  0.7546771E-02  0.1259509E+00
         21   -1    0    0  501  502  0.00000000000E+00  0.00000000000E+00  0.94436884532E+02  0.94436884532E+02  0.00000000000E+00 0.  1.
          1   -1    0    0  502    0 -0.00000000000E+00 -0.00000000000E+00 -0.18468723235E+03  0.18468723235E+03  0.00000000000E+00 0. -1.
         23    2    1    2    0    0 -0.20885203169E+02 -0.59804493799E+02 -0.93238209920E+02  0.14394366404E+03  0.89518966922E+02 0.  0.
        -24    2    1    2    0    0  0.42025515561E+02  0.65426113321E+02  0.11606300351E+01  0.11322927539E+03  0.82297032033E+02 0.  0.
         11    1    4    4    0    0  0.95216288330E+01  0.49884132580E+02 -0.35395675322E+02  0.61902681125E+02  0.00000000000E+00 0. -1.
        -12    1    4    4    0    0  0.32503886728E+02  0.15541980741E+02  0.36556305357E+02  0.51326594268E+02  0.00000000000E+00 0.  1.
        -11    1    3    3    0    0  0.11958512330E+01 -0.40873859658E+02 -0.10491496194E+03  0.11260218338E+03  0.00000000000E+00 0. -1.
         11    1    3    3    0    0 -0.22081054402E+02 -0.18930634141E+02  0.11676752017E+02  0.31341480663E+02  0.00000000000E+00 0.  1.
          2    1    1    2  501    0 -0.21140312392E+02 -0.56216195224E+01  0.18272320712E+01  0.21951177443E+02  0.00000000000E+00 0. -1.
<scales pt_clust_5="13000.00000" pt_clust_6="13000.00000" pt_clust_7="13000.00000" pt_clust_8="13000.00000" pt_clust_9="21.87500"></scales>
<clustering>
<clus scale="   21.875">  1  9  2 -1</clus>
<clus scale="   82.297">  5  6 -1 -1</clus>
<clus scale="   89.519">  7  8 -1 -1</clus>
<clus scale="  106.341">  1  5  2 -1</clus>
<clus scale="   21.875">  1  5  2 -1</clus>
</clustering>
</event>
<event>
 9    1  0.8429841E-005  0.1417520E+03  0.7546771E-02  0.1218108E+00
         21   -1    0    0  501  502  0.00000000000E+00  0.00000000000E+00  0.53075039905E+02  0.53075039905E+02  0.00000000000E+00 0. -1.
          3   -1    0    0  502    0 -0.00000000000E+00 -0.00000000000E+00 -0.79995806019E+03  0.79995806019E+03  0.00000000000E+00 0. -1.
        -24    2    1    2    0    0 -0.89328249469E+02 -0.18056585326E+02 -0.11905028313E+03  0.17039487008E+03  0.80968298790E+02 0.  0.
         23    2    1    2    0    0 -0.18181021525E+00 -0.88711980640E+02 -0.30604058502E+03  0.33197918388E+03  0.93163782039E+02 0.  0.
         13    1    3    3    0    0 -0.10210032752E+03 -0.38059251366E+01 -0.10604981253E+03  0.14726005801E+03  0.00000000000E+00 0. -1.
        -14    1    3    3    0    0  0.12772078056E+02 -0.14250660190E+02 -0.13000470595E+02  0.23134812067E+02  0.00000000000E+00 0.  1.
        -13    1    4    4    0    0 -0.31474031811E+02 -0.38893462269E+02 -0.55932472320E+02  0.75045036781E+02  0.00000000000E+00 0.  1.
         13    1    4    4    0    0  0.31292221596E+02 -0.49818518372E+02 -0.25010811270E+03  0.25693414710E+03  0.00000000000E+00 0. -1.
          4    1    1    2  501    0  0.89510059684E+02  0.10676856597E+03 -0.32179215213E+03  0.35065904614E+03  0.00000000000E+00 0. -1.
<scales pt_clust_5="13000.00000" pt_clust_6="13000.00000" pt_clust_7="13000.00000" pt_clust_8="13000.00000" pt_clust_9="106.83698"></scales>
<clustering>
<clus scale="   80.968">  5  6 -1 -1</clus>
<clus scale="   93.164">  7  8 -1 -1</clus>
<clus scale="  121.908">  2  5  1 -1</clus>
<clus scale="  106.837">  1  9  2 -1</clus>
<clus scale="  106.837">  1  5  2 -1</clus>
</clustering>
</event>
<event>
 9    1  0.8429841E-005  0.9887816E+02  0.7546771E-02  0.1288688E+00
         -2   -1    0    0    0  501 -0.00000000000E+00  0.00000000000E+00  0.16381199127E+03  0.16381199127E+03  0.00000000000E+00 0.  1.
         21   -1    0    0  501  502  0.00000000000E+00 -0.00000000000E+00 -0.10805469706E+03  0.10805469706E+03  0.00000000000E+00 0.  1.
        -24    2    1    2    0    0  0.36037503352E+02 -0.73995336173E+01  0.10631367876E+03  0.13912369571E+03  0.81849555113E+02 0.  0.
         23    2    1    2    0    0 -0.12252204810E+02  0.12605284935E+02 -0.52362991009E+02  0.10832774942E+03  0.93188028931E+02 0.  0.
         11    1    3    3    0    0  0.29539998142E+02 -0.96333802864E+01 -0.14847191037E+01  0.31106557135E+02  0.00000000000E+00 0. -1.
        -12    1    3    3    0    0  0.64975052100E+01  0.22338466690E+01  0.10779839786E+03  0.10801713858E+03  0.00000000000E+00 0.  1.
        -13    1    4    4    0    0 -0.18871529660E+02 -0.38467473157E+02 -0.29249698837E+02  0.51878955318E+02  0.00000000000E+00 0. -1.
         13    1    4    4    0    0  0.66193248502E+01  0.51072758092E+02 -0.23113292172E+02  0.56448794102E+02  0.00000000000E+00 0.  1.
         -1    1    1    2    0  502 -0.23785298542E+02 -0.52057513176E+01  0.18066064633E+01  0.24415243198E+02  0.00000000000E+00 0.  1.
<scales pt_clust_5="13000.00000" pt_clust_6="13000.00000" pt_clust_7="13000.00000" pt_clust_8="13000.00000" pt_clust_9="24.34831"></scales>
<clustering>
<clus scale="   24.348">  2  9  1 -1</clus>
<clus scale="   81.850">  5  6 -1 -1</clus>
<clus scale="   88.274">  1  5  2 -1</clus>
<clus scale="   93.188">  7  8 -1 -1</clus>
<clus scale="   24.348">  2  5  1 -1</clus>
</clustering>
</event>
<event>
 9    1  0.8429841E-005  0.1692297E+03  0.7546771E-02  0.1179783E+00
         -4   -1    0    0    0  501 -0.00000000000E+00  0.00000000000E+00  0.11646487586E+04  0.11646487586E+04  0.00000000000E+00 0.  1.
         21   -1    0    0  501  502  0.00000000000E+00 -0.00000000000E+00 -0.58777945895E+02  0.58777945895E+02  0.00000000000E+00 0. -1.
         23    2    1    2    0    0  0.41187200215E+02  0.11864459953E+03  0.47321256492E+03  0.49750123644E+03  0.88342640927E+02 0.  0.
        -24    2    1    2    0    0 -0.14325498344E+03 -0.15836128801E+03  0.30743070407E+03  0.38275174687E+03  0.79906032968E+02 0.  0.
         11    1    4    4    0    0 -0.14756648133E+03 -0.14248902504E+03  0.25201634849E+03  0.32494803981E+03  0.00000000000E+00 0. -1.
        -12    1    4    4    0    0  0.43114978860E+01 -0.15872262971E+02  0.55414355574E+02  0.57803707057E+02  0.00000000000E+00 0.  1.
        -13    1    3    3    0    0 -0.25559421422E+02  0.25277494882E+02  0.15817870470E+03  0.16221201679E+03  0.00000000000E+00 0. -1.
         13    1    3    3    0    0  0.66746621637E+02  0.93367104643E+02  0.31503386022E+03  0.33528921965E+03  0.00000000000E+00 0.  1.
         -3    1    1    2    0  502  0.10206778322E+03  0.39716688488E+02  0.32522754367E+03  0.34317372114E+03  0.00000000000E+00 0.  1.
<scales pt_clust_5="13000.00000" pt_clust_6="13000.00000" pt_clust_7="13000.00000" pt_clust_8="13000.00000" pt_clust_9="109.52287"></scales>
<clustering>
<clus scale="   79.906">  5  6 -1 -1</clus>
<clus scale="   88.343">  7  8 -1 -1</clus>
<clus scale="  109.523">  2  9  1 -1</clus>
<clus scale="  164.983">  2  5  1 -1</clus>
<clus scale="  109.523">  2  5  1 -1</clus>
</clustering>
</event>
<event>
 9    1  0.8429841E-005  0.1703443E+03  0.7546771E-02  0.1179542E+00
         21   -1    0    0  501  502  0.00000000000E+00  0.00000000000E+00  0.57108273571E+03  0.57108273571E+03  0.00000000000E+00 0.  1.
         -2   -1    0    0    0  501 -0.00000000000E+00 -0.00000000000E+00 -0.12783226259E+03  0.12783226259E+03  0.00000000000E+00 0.  1.
         23    2    1    2    0    0 -0.10887279670E+03 -0.11178216631E+03 -0.29268221898E+02  0.18258938123E+03  0.90187109711E+02 0.  0.
        -24    2    1    2    0    0  0.96889240208E+02  0.33970607273E+02  0.32892881620E+03  0.35256879234E+03  0.74626136054E+02 0.  0.
         11    1    4    4    0    0  0.47278576680E+02  0.29810607803E+01  0.55570506280E+02  0.73022131607E+02  0.00000000000E+00 0. -1.
        -12    1    4    4    0    0  0.49610663528E+02  0.30989546492E+02  0.27335830992E+03  0.27954666074E+03  0.00000000000E+00 0.  1.
        -13    1    3    3    0    0 -0.54357356409E+02 -0.77596119420E+02 -0.59099678249E+02  0.11166311797E+03  0.00000000000E+00 0.  1.
         13    1    3    3    0    0 -0.54515440295E+02 -0.34186046887E+02  0.29831456352E+02  0.70926263263E+02  0.00000000000E+00 0. -1.
         -1    1    1    2    0  502  0.11983556497E+02  0.77811559034E+02  0.14358987881E+03  0.16375682472E+03  0.00000000000E+00 0.  1.
<scales pt_clust_5="13000.00000" pt_clust_6="13000.00000" pt_clust_7="13000.00000" pt_clust_8="13000.00000" pt_clust_9="78.72893"></scales>
<clustering>
<clus scale="   74.626">  5  6 -1 -1</clus>
<clus scale="   78.729">  1  9  2 -1</clus>
<clus scale="   90.187">  7  8 -1 -1</clus>
<clus scale="  162.642">  1  5  2 -1</clus>
<clus scale="   78.729">  1  5  2 -1</clus>
</clustering>
</event>
<event>
 9    1  0.8429841E-005  0.1818220E+03  0.7546771E-02  0.1202419E+00
         21   -1    0    0  501  502  0.00000000000E+00  0.00000000000E+00  0.22147641089E+03  0.22147641089E+03  0.00000000000E+00 0. -1.
          1   -1    0    0  502    0 -0.00000000000E+00 -0.00000000000E+00 -0.20648182311E+03  0.20648182311E+03  0.00000000000E+00 0. -1.
        -24    2    1    2    0    0 -0.40413770897E+00 -0.25209261555E+01  0.81250986829E+01  0.81152965657E+02  0.80704821482E+02 0.  0.
         23    2    1    2    0    0  0.58561732893E+02  0.14759389081E+03 -0.31448493591E+02  0.18588063147E+03  0.91373783138E+02 0.  0.
         13    1    3    3    0    0  0.11158830298E+02 -0.33375804853E+02  0.25917610905E+02  0.43705679244E+02  0.00000000000E+00 0. -1.
        -14    1    3    3    0    0 -0.11562968007E+02  0.30854878697E+02 -0.17792512222E+02  0.37447286413E+02  0.00000000000E+00 0.  1.
        -11    1    4    4    0    0  0.52938733031E+02  0.66593050378E+02 -0.55043716498E+02  0.10132598156E+03  0.00000000000E+00 0. -1.
         11    1    4    4    0    0  0.56229998622E+01  0.81000840430E+02  0.23595222907E+02  0.84554649913E+02  0.00000000000E+00 0.  1.
          2    1    1    2  501    0 -0.58157595184E+02 -0.14507296465E+03  0.38317982688E+02  0.16092463686E+03  0.00000000000E+00 0. -1.
<scales pt_clust_5="13000.00000" pt_clust_6="13000.00000" pt_clust_7="13000.00000" pt_clust_8="13000.00000" pt_clust_9="157.19442"></scales>
<clustering>
<clus scale="   80.705">  5  6 -1 -1</clus>
<clus scale="   80.745">  2  5  1 -1</clus>
<clus scale="   91.374">  7  8 -1 -1</clus>
<clus scale="  157.194">  1  9  2 -1</clus>
<clus scale="  157.194">  1  5  2 -1</clus>
</clustering>
</event>
<event>
 9    1  0.8429841E-005  0.1722875E+03  0.7546771E-02  0.1176183E+00
         -2   -1    0    0    0  501 -0.00000000000E+00  0.00000000000E+00  0.10206760912E+03  0.10206760912E+03  0.00000000000E+00 0.  1.
         21   -1    0    0  501  502  0.00000000000E+00 -0.00000000000E+00 -0.55546241758E+03  0.55546241758E+03  0.00000000000E+00 0.  1.
        -24    2    1    2    0    0 -0.84520033061E+02  0.94063133612E+02 -0.21049389388E+03  0.25982784637E+03  0.84919498909E+02 0.  0.
         23    2    1    2    0    0  0.88550705066E+02 -0.15052029122E+03 -0.27078663964E+03  0.33460486957E+03  0.90207699778E+02 0.  0.
         11    1    3    3    0    0 -0.22999225451E+01  0.58891510161E+02 -0.11356701703E+03  0.12794907960E+03  0.00000000000E+00 0. -1.
        -12    1    3    3    0    0 -0.82220110516E+02  0.35171623451E+02 -0.96926876849E+02  0.13187876677E+03  0.00000000000E+00 0.  1.
        -13    1    4    4    0    0  0.50187393910E+02 -0.13720644405E+03 -0.24854809459E+03  0.28830632688E+03  0.00000000000E+00 0.  1.
         13    1    4    4    0    0  0.38363311156E+02 -0.13313847164E+02 -0.22238545047E+02  0.46298542687E+02  0.00000000000E+00 0. -1.
         -1    1    1    2    0  502 -0.40306720053E+01  0.56457157605E+02  0.27885725061E+02  0.63097310750E+02  0.00000000000E+00 0.  1.
<scales pt_clust_5="13000.00000" pt_clust_6="13000.00000" pt_clust_7="13000.00000" pt_clust_8="13000.00000" pt_clust_9="56.60088"></scales>
<clustering>
<clus scale="   56.601">  2  9  1 -1</clus>
<clus scale="   84.919">  5  6 -1 -1</clus>
<clus scale="   90.208">  7  8 -1 -1</clus>
<clus scale="  169.579">  1  5  2 -1</clus>
<clus scale="   56.601">  2  5  1 -1</clus>
</clustering>
</event>
<event>
 9    1  0.8429841E-005  0.1095857E+03  0.7546771E-02  0.1267125E+00
         21   -1    0    0  501  502  0.00000000000E+00  0.00000000000E+00  0.43855080208E+02  0.43855080208E+02  0.00000000000E+00 0. -1.
          1   -1    0    0  502    0 -0.00000000000E+00 -0.00000000000E+00 -0.49306808625E+03  0.49306808625E+03  0.00000000000E+00 0. -1.
         23    2    1    2    0    0 -0.84835948102E+02 -0.24105012900E+02 -0.29151809338E+03  0.31865681143E+03  0.93707923708E+02 0.  0.
        -24    2    1    2    0    0  0.21938327952E+02 -0.11943600549E+01 -0.94813068767E+02  0.12579854883E+03  0.79705960556E+02 0.  0.
         13    1    4    4    0    0  0.12734431718E+02 -0.38800304373E+02 -0.65703549944E+02  0.77360105002E+02  0.00000000000E+00 0. -1.
        -14    1    4    4    0    0  0.92038962343E+01  0.37605944318E+02 -0.29109518823E+02  0.48438443823E+02  0.00000000000E+00 0.  1.
        -13    1    3    3    0    0 -0.39902820151E+01  0.30729681224E+02 -0.71726015837E+02  0.78133584370E+02  0.00000000000E+00 0.  1.
         13    1    3    3    0    0 -0.80845666087E+02 -0.54834694124E+02 -0.21979207755E+03  0.24052322706E+03  0.00000000000E+00 0. -1.
          2    1    1    2  501    0  0.62897620150E+02  0.25299372955E+02 -0.62881843893E+02  0.92467806202E+02  0.00000000000E+00 0. -1.
<scales pt_clust_5="13000.00000" pt_clust_6="13000.00000" pt_clust_7="13000.00000" pt_clust_8="13000.00000" pt_clust_9="67.79505"></scales>
<clustering>
<clus scale="   67.795">  1  9  2 -1</clus>
<clus scale="   79.706">  5  6 -1 -1</clus>
<clus scale="   93.708">  7  8 -1 -1</clus>
<clus scale="   97.882">  1  5  2 -1</clus>
<clus scale="   67.795">  1  5  2 -1</clus>
</clustering>
</event>
<event>
 9    1  0.8429841E-005  0.9073866E+02  0.7546771E-02  0.1305386E+00
          1   -1    0    0  502    0 -0.00000000000E+00  0.00000000000E+00  0.17377516861E+03  0.17377516861E+03  0.00000000000E+00 0. -1.
         21   -1    0    0  501  502  0.00000000000E+00 -0.00000000000E+00 -0.11607647258E+03  0.11607647258E+03  0.00000000000E+00 0. -1.
         23    2    1    2    0    0  0.14793077193E+01 -0.23705403682E+02  0.10128316291E+03  0.13699597754E+03  0.89137445878E+02 0.  0.
        -24    2    1    2    0    0  0.17183531975E+02  0.19392575102E+01  0.17201245701E+02  0.85647259731E+02  0.82100765861E+02 0.  0.
         11    1    4    4    0    0  0.22618107353E-01 -0.39063445758E+02  0.12164901257E+02  0.40913788980E+02  0.00000000000E+00 0. -1.
        -12    1    4    4    0    0  0.17160913867E+02  0.41002703269E+02  0.50363444444E+01  0.44733470751E+02  0.00000000000E+00 0.  1.
        -13    1    3    3    0    0 -0.15171701979E+02 -0.51087103543E+02  0.86740367956E+02  0.10180355653E+03  0.00000000000E+00 0. -1.
         13    1    3    3    0    0  0.16651009698E+02  0.27381699861E+02  0.14542794953E+02  0.35192421007E+02  0.00000000000E+00 0.  1.
          2    1    1    2  501    0 -0.18662839694E+02  0.21766146172E+02 -0.60785712579E+02  0.67208403926E+02  0.00000000000E+00 0. -1.
<scales pt_clust_5="13000.00000" pt_clust_6="13000.00000" pt_clust_7="13000.00000" pt_clust_8="13000.00000" pt_clust_9="28.67171"></scales>
<clustering>
<clus scale="   28.672">  2  9  1 -1</clus>
<clus scale="   82.101">  5  6 -1 -1</clus>
<clus scale="   83.836">  2  5  1 -1</clus>
<clus scale="   89.137">  7  8 -1 -1</clus>
<clus scale="   28.672">  2  5  1 -1</clus>
</clustering>
</event>
<event>
 9    1  0.8429841E-005  0.3321192E+03  0.7546771E-02  0.1070429E+00
         -2   -1    0    0    0  501 -0.00000000000E+00  0.00000000000E+00  0.15927083894E+04  0.15927083894E+04  0.00000000000E+00 0.  1.
         21   -1    0    0  501  502  0.00000000000E+00 -0.00000000000E+00 -0.25550723838E+03  0.25550723838E+03  0.00000000000E+00 0.  1.
         23    2    1    2    0    0 -0.80576076387E+02  0.31143375617E+03  0.12079420576E+04  0.12534007006E+04  0.91683222681E+02 0.  0.
        -24    2    1    2    0    0  0.23920858819E+03 -0.24083433536E+03 -0.40469690721E+02  0.35200551179E+03  0.83953312692E+02 0.  0.
         11    1    4    4    0    0  0.14120999628E+03 -0.10815852647E+03  0.13687072067E+02  0.17839805447E+03  0.00000000000E+00 0. -1.
        -12    1    4    4    0    0  0.97998591908E+02 -0.13267580889E+03 -0.54156762788E+02  0.17360745732E+03  0.00000000000E+00 0.  1.
        -11    1    3    3    0    0 -0.92000217587E+02  0.28632887877E+03  0.11572513468E+04  0.11956918276E+04  0.00000000000E+00 0.  1.
         11    1    3    3    0    0  0.11424141199E+02  0.25104877399E+02  0.50690710810E+02  0.57708873094E+02  0.00000000000E+00 0. -1.
         -1    1    1    2    0  502 -0.15863251180E+03 -0.70599420805E+02  0.16972878420E+03  0.24280941539E+03  0.00000000000E+00 0.  1.
<scales pt_clust_5="13000.00000" pt_clust_6="13000.00000" pt_clust_7="13000.00000" pt_clust_8="13000.00000" pt_clust_9="173.63338"></scales>
<clustering>
<clus scale="   83.953">  5  6 -1 -1</clus>
<clus scale="   91.683">  7  8 -1 -1</clus>
<clus scale="  173.633">  2  9  1 -1</clus>
<clus scale="  330.069">  2  5  1 -1</clus>
<clus scale="  173.633">  2  5  1 -1</clus>
</clustering>
</event>
<event>
 9    1  0.8429841E-005  0.1951459E+03  0.7546771E-02  0.1184497E+00
          1   -1    0    0  502    0 -0.00000000000E+00  0.00000000000E+00  0.12412847780E+04  0.12412847780E+04  0.00000000000E+00 0. -1.
         21   -1    0    0  501  502  0.00000000000E+00 -0.00000000000E+00 -0.52846542739E+02  0.52846542739E+02  0.00000000000E+00 0. -1.
         23    2    1    2    0    0 -0.62025125982E+01  0.32620704503E+02  0.11924150255E+03  0.15359482261E+03  0.90940926302E+02 0.  0.
        -24    2    1    2    0    0 -0.15847826957E+02 -0.19886776730E+03  0.74560075006E+03  0.77606611065E+03  0.80985104338E+02 0.  0.
         11    1    4    4    0    0  0.50927207548E+01 -0.13308669856E+03  0.60431203834E+03  0.61881422480E+03  0.00000000000E+00 0. -1.
        -12    1    4    4    0    0 -0.20940547711E+02 -0.65781068747E+02  0.14128871172E+03  0.15725188585E+03  0.00000000000E+00 0.  1.
        -13    1    3    3    0    0 -0.27431673131E+02  0.42714735109E+02  0.25229162174E+02  0.56688234319E+02  0.00000000000E+00 0. -1.
         13    1    3    3    0    0  0.21229160533E+02 -0.10094030605E+02  0.94012340379E+02  0.96906588292E+02  0.00000000000E+00 0.  1.
          2    1    1    2  501    0  0.22050339555E+02  0.16624706280E+03  0.32359598269E+03  0.36447038752E+03  0.00000000000E+00 0. -1.
<scales pt_clust_5="13000.00000" pt_clust_6="13000.00000" pt_clust_7="13000.00000" pt_clust_8="13000.00000" pt_clust_9="177.54808"></scales>
<clustering>
<clus scale="   80.985">  5  6 -1 -1</clus>
<clus scale="   90.941">  7  8 -1 -1</clus>
<clus scale="   96.813">  1  7  2 -1</clus>
<clus scale="  177.548">  2  9  1 -1</clus>
<clus scale="  177.548">  2  5  1 -1</clus>
</clustering>
</event>
<event>
 9    1  0.8429841E-005  0.9457906E+02  0.7546771E-02  0.1300863E+00
         21   -1    0    0  501  502  0.00000000000E+00  0.00000000000E+00  0.10148718610E+03  0.10148718610E+03  0.00000000000E+00 0.  1.
         -2   -1    0    0    0  501 -0.00000000000E+00 -0.00000000000E+00 -0.15138564711E+03  0.15138564711E+03  0.00000000000E+00 0.  1.
         23    2    1    2    0    0 -0.14643056509E+02 -0.15347987103E+02 -0.15139704641E+02  0.96723238232E+02  0.93146091413E+02 0.  0.
        -24    2    1    2    0    0 -0.82721438683E+01  0.15810127861E+02  0.31015606982E+02  0.86496261550E+02  0.78747996029E+02 0.  0.
         13    1    4    4    0    0 -0.61641119021E+01  0.39302867007E+02  0.44205824775E+02  0.59471561057E+02  0.00000000000E+00 0. -1.
        -14    1    4    4    0    0 -0.21080319662E+01 -0.23492739145E+02 -0.13190217793E+02  0.27024700493E+02  0.00000000000E+00 0.  1.
        -11    1    3    3    0    0  0.16992501191E+02  0.30455207772E+02  0.90471525228E+01  0.36029373377E+02  0.00000000000E+00 0.  1.
         11    1    3    3    0    0 -0.31635557700E+02 -0.45803194874E+02 -0.24186857164E+02  0.60693864856E+02  0.00000000000E+00 0. -1.
         -1    1    1    2    0  502  0.22915200377E+02 -0.46214075854E+00 -0.65774363352E+02  0.69653333422E+02  0.00000000000E+00 0.  1.
<scales pt_clust_5="13000.00000" pt_clust_6="13000.00000" pt_clust_7="13000.00000" pt_clust_8="13000.00000" pt_clust_9="22.91987"></scales>
<clustering>
<clus scale="   22.920">  1  9  2 -1</clus>
<clus scale="   78.748">  5  6 -1 -1</clus>
<clus scale="   80.438">  1  5  2 -1</clus>
<clus scale="   93.146">  7  8 -1 -1</clus>
<clus scale="   22.920">  1  5  2 -1</clus>
</clustering>
</event>
<event>
 9    1  0.8429841E-005  0.1119739E+03  0.7546771E-02  0.1263966E+00
         21   -1    0    0  501  502  0.00000000000E+00  0.00000000000E+00  0.16375519083E+03  0.16375519083E+03  0.00000000000E+00 0. -1.
          1   -1    0    0  502    0 -0.00000000000E+00 -0.00000000000E+00 -0.16410910661E+03  0.16410910661E+03  0.00000000000E+00 0. -1.
        -24    2    1    2    0    0  0.43839206774E+02 -0.48563401997E+02 -0.42816628890E+02  0.10727309542E+03  0.73443673844E+02 0.  0.
         23    2    1    2    0    0  0.24227868968E+02  0.87896786299E+02  0.55811057017E+02  0.14085149921E+03  0.91713881540E+02 0.  0.
         11    1    3    3    0    0  0.51197882225E+02 -0.41146543828E+02 -0.26140052606E+01  0.65735030515E+02  0.00000000000E+00 0. -1.
        -12    1    3    3    0    0 -0.73586754511E+01 -0.74168581690E+01 -0.40202623630E+02  0.41538064907E+02  0.00000000000E+00 0.  1.
        -13    1    4    4    0    0  0.21935099859E+02  0.14810390622E+02  0.62054583105E+02  0.67463082946E+02  0.00000000000E+00 0.  1.
         13    1    4    4    0    0  0.22927691091E+01  0.73086395678E+02 -0.62435260885E+01  0.73388416261E+02  0.00000000000E+00 0. -1.
          2    1    1    2  501    0 -0.68067075742E+02 -0.39333384303E+02 -0.13348343906E+02  0.79739702820E+02  0.00000000000E+00 0. -1.
<scales pt_clust_5="13000.00000" pt_clust_6="13000.00000" pt_clust_7="13000.00000" pt_clust_8="13000.00000" pt_clust_9="78.61455"></scales>
<clustering>
<clus scale="   73.444">  5  6 -1 -1</clus>
<clus scale="   78.615">  1  9  2 -1</clus>
<clus scale="   91.714">  7  8 -1 -1</clus>
<clus scale="   97.574">  2  5  1 -1</clus>
<clus scale="   78.615">  1  5  2 -1</clus>
</clustering>
</event>
<event>
 9    1  0.8429841E-005  0.8796674E+02  0.7546771E-02  0.1309073E+00
          1   -1    0    0  502    0 -0.00000000000E+00  0.00000000000E+00  0.22079891592E+03  0.22079891592E+03  0.00000000000E+00 0. -1.
         21   -1    0    0  501  502  0.00000000000E+00 -0.00000000000E+00 -0.11057582089E+03  0.11057582089E+03  0.00000000000E+00 0.  1.
         23    2    1    2    0    0 -0.23518291437E+02 -0.24902898505E+02  0.17399903691E+03  0.19407426589E+03  0.78840924964E+02 0.  0.
        -24    2    1    2    0    0  0.42173563625E+02  0.85196902256E+01 -0.65104552846E+02  0.11243696552E+03  0.80946116790E+02 0.  0.
         11    1    4    4    0    0 -0.16141200535E+02  0.24274212328E+02 -0.32994374803E+02  0.44027315470E+02  0.00000000000E+00 0. -1.
        -12    1    4    4    0    0  0.58314764160E+02 -0.15754522103E+02 -0.32110178043E+02  0.68409650048E+02  0.00000000000E+00 0.  1.
        -11    1    3    3    0    0  0.10909344786E+02 -0.37098607373E+02  0.13590677353E+03  0.14130099633E+03  0.00000000000E+00 0.  1.
         11    1    3    3    0    0 -0.34427636223E+02  0.12195708869E+02  0.38092263387E+02  0.52773269566E+02  0.00000000000E+00 0. -1.
          2    1    1    2  501    0 -0.18655272187E+02  0.16383208279E+02  0.13286109662E+01  0.24863505404E+02  0.00000000000E+00 0. -1.
<scales pt_clust_5="13000.00000" pt_clust_6="13000.00000" pt_clust_7="13000.00000" pt_clust_8="13000.00000" pt_clust_9="24.82798"></scales>
<clustering>
<clus scale="   24.828">  2  9  1 -1</clus>
<clus scale="   78.841">  7  8 -1 -1</clus>
<clus scale="   80.946">  5  6 -1 -1</clus>
<clus scale="   86.034">  1  7  2 -1</clus>
<clus scale="   24.828">  2  5  1 -1</clus>
</clustering>
</event>
<event>
 9    1  0.8429841E-005  0.1121625E+03  0.7546771E-02  0.1259587E+00
         21   -1    0    0  501  502  0.00000000000E+00  0.00000000000E+00  0.12033966506E+03  0.12033966506E+03  0.00000000000E+00 0.  1.
          1   -1    0    0  502    0 -0.00000000000E+00 -0.00000000000E+00 -0.36749186762E+03  0.36749186762E+03  0.00000000000E+00 0. -1.
         23    2    1    2    0    0 -0.14944033885E+02  0.67842834786E+02 -0.31231809882E+03  0.33206500983E+03  0.88874076786E+02 0.  0.
        -24    2    1    2    0    0 -0.19845702031E+02 -0.63917627915E+02  0.58780986264E+02  0.12017860285E+03  0.80674513873E+02 0.  0.
         11    1    4    4    0    0 -0.41042514319E+02 -0.93616725189E+01  0.41591374785E+02  0.59177456438E+02  0.00000000000E+00 0. -1.
        -12    1    4    4    0    0  0.21196812289E+02 -0.54555955397E+02  0.17189611480E+02  0.61001146409E+02  0.00000000000E+00 0.  1.
        -11    1    3    3    0    0  0.34075002179E+02  0.25330440968E+02 -0.76608796941E+02  0.87587926005E+02  0.00000000000E+00 0.  1.
         11    1    3    3    0    0 -0.49019036065E+02  0.42512393818E+02 -0.23570930188E+03  0.24447708383E+03  0.00000000000E+00 0. -1.
          2    1    1    2  501    0  0.34789735916E+02 -0.39252068706E+01  0.63849099976E+01  0.35587919998E+02  0.00000000000E+00 0. -1.
<scales pt_clust_5="13000.00000" pt_clust_6="13000.00000" pt_clust_7="13000.00000" pt_clust_8="13000.00000" pt_clust_9="35.01047"></scales>
<clustering>
<clus scale="   35.010">  1  9  2 -1</clus>
<clus scale="   80.675">  5  6 -1 -1</clus>
<clus scale="   88.874">  7  8 -1 -1</clus>
<clus scale="  105.784">  1  5  2 -1</clus>
<clus scale="   35.010">  1  5  2 -1</clus>
</clustering>
</event>
<event>
 9    1  0.8429841E-005  0.1741803E+03  0.7546771E-02  0.1180586E+00
         21   -1    0    0  501  502  0.00000000000E+00  0.00000000000E+00  0.40001455703E+02  0.40001455703E+02  0.00000000000E+00 0.  1.
          1   -1    0    0  502    0 -0.00000000000E+00 -0.00000000000E+00 -0.15681208098E+04  0.15681208098E+04  0.00000000000E+00 0. -1.
         23    2    1    2    0    0  0.35269072354E+02  0.11282212593E+03 -0.38221233332E+03  0.41008508326E+03  0.90059803527E+02 0.  0.
        -24    2    1    2    0    0 -0.16839783059E+03 -0.22958163341E+02 -0.57724689091E+03  0.60712844026E+03  0.80660171725E+02 0.  0.
         11    1    4    4    0    0 -0.84800870243E+02 -0.44880076163E+02 -0.37720916203E+03  0.38921993879E+03  0.00000000000E+00 0. -1.
        -12    1    4    4    0    0 -0.83596960344E+02  0.21921912823E+02 -0.20003772888E+03  0.21790850147E+03  0.00000000000E+00 0.  1.
        -13    1    3    3    0    0  0.11622329534E+02  0.52309969103E+02 -0.30269557881E+03  0.30740205732E+03  0.00000000000E+00 0. -1.
         13    1    3    3    0    0  0.23646742820E+02  0.60512156829E+02 -0.79516754501E+02  0.10268302594E+03  0.00000000000E+00 0.  1.
          2    1    1    2  501    0  0.13312875823E+03 -0.89863962592E+02 -0.56866012992E+03  0.59090874203E+03  0.00000000000E+00 0. -1.
<scales pt_clust_5="13000.00000" pt_clust_6="13000.00000" pt_clust_7="13000.00000" pt_clust_8="13000.00000" pt_clust_9="154.37860"></scales>
<clustering>
<clus scale="   80.660">  5  6 -1 -1</clus>
<clus scale="   90.060">  7  8 -1 -1</clus>
<clus scale="  148.605">  2  7  1 -1</clus>
<clus scale="  154.379">  1  9  2 -1</clus>
<clus scale="  154.379">  1  5  2 -1</clus>
</clustering>
</event>
<event>
 9    1  0.8429841E-005  0.1759432E+03  0.7546771E-02  0.1201892E+00
         21   -1    0    0  501  502  0.00000000000E+00  0.00000000000E+00  0.83562034722E+02  0.83562034722E+02  0.00000000000E+00 0.  1.
         -2   -1    0    0    0  501 -0.00000000000E+00 -0.00000000000E+00 -0.54278451697E+03  0.54278451697E+03  0.00000000000E+00 0.  1.
         23    2    1    2    0    0  0.53718261765E+00 -0.60883655051E+01 -0.10631337099E+03  0.13937988553E+03  0.89926986383E+02 0.  0.
        -24    2    1    2    0    0 -0.16187621128E+02  0.16079369332E+03 -0.16631613072E+03  0.24407653655E+03  0.76129163033E+02 0.  0.
         11    1    4    4    0    0 -0.16967008973E+02  0.13552228501E+03 -0.17048949310E+03  0.21845099310E+03  0.00000000000E+00 0. -1.
        -12    1    4    4    0    0  0.77938784423E+00  0.25271408311E+02  0.41733623784E+01  0.25625543447E+02  0.00000000000E+00 0.  1.
        -11    1    3    3    0    0 -0.38731418900E+02 -0.64280630155E+01 -0.87356459767E+02  0.95773659569E+02  0.00000000000E+00 0. -1.
         11    1    3    3    0    0  0.39268601517E+02  0.33969751038E+00 -0.18956911218E+02  0.43606225960E+02  0.00000000000E+00 0.  1.
         -1    1    1    2    0  502  0.15650438511E+02 -0.15470532781E+03 -0.18659298054E+03  0.24289012962E+03  0.00000000000E+00 0.  1.
<scales pt_clust_5="13000.00000" pt_clust_6="13000.00000" pt_clust_7="13000.00000" pt_clust_8="13000.00000" pt_clust_9="158.62023"></scales>
<clustering>
<clus scale="   76.129">  5  6 -1 -1</clus>
<clus scale="   89.927">  7  8 -1 -1</clus>
<clus scale="   90.134">  2  7  1 -1</clus>
<clus scale="  158.620">  1  9  2 -1</clus>
<clus scale="  158.620">  1  5  2 -1</clus>
</clustering>
</event>
<event>
 9    1  0.8429841E-005  0.2325427E+03  0.7546771E-02  0.1159956E+00
         21   -1    0    0  501  502  0.00000000000E+00  0.00000000000E+00  0.52079007456E+02  0.52079007456E+02  0.00000000000E+00 0. -1.
          1   -1    0    0  502    0 -0.00000000000E+00 -0.00000000000E+00 -0.16672986770E+04  0.16672986770E+04  0.00000000000E+00 0. -1.
        -24    2    1    2    0    0  0.59244127200E+02  0.40027568235E+01 -0.39731271287E+03  0.40972485780E+03  0.80567851076E+02 0.  0.
         23    2    1    2    0    0  0.16480484867E+03 -0.21034438764E+02 -0.89543539018E+03  0.91661856227E+03  0.10383624104E+03 0.  0.
         11    1    3    3    0    0  0.48403214137E+02  0.30451889657E+02 -0.14612971373E+03  0.15692062311E+03  0.00000000000E+00 0. -1.
        -12    1    3    3    0    0  0.10840913064E+02 -0.26449132834E+02 -0.25118299914E+03  0.25280423470E+03  0.00000000000E+00 0.  1.
        -11    1    4    4    0    0  0.13268161904E+03  0.14754049550E+02 -0.78346683377E+03  0.79475931805E+03  0.00000000000E+00 0. -1.
         11    1    4    4    0    0  0.32123229627E+02 -0.35788488314E+02 -0.11196855641E+03  0.12185924422E+03  0.00000000000E+00 0.  1.
          2    1    1    2  501    0 -0.22404897587E+03  0.17031681940E+02 -0.32247156650E+03  0.39303426438E+03  0.00000000000E+00 0. -1.
<scales pt_clust_5="13000.00000" pt_clust_6="13000.00000" pt_clust_7="13000.00000" pt_clust_8="13000.00000" pt_clust_9="208.07246"></scales>
<clustering>
<clus scale="   80.568">  5  6 -1 -1</clus>
<clus scale="  100.085">  2  5  1 -1</clus>
<clus scale="  103.836">  7  8 -1 -1</clus>
<clus scale="  208.072">  1  9  2 -1</clus>
<clus scale="  208.072">  1  5  2 -1</clus>
</clustering>
</event>
<event>
 9    1  0.8429841E-005  0.1501848E+03  0.7546771E-02  0.1202401E+00
          1   -1    0    0  502    0 -0.00000000000E+00  0.00000000000E+00  0.54023880718E+03  0.54023880718E+03  0.00000000000E+00 0. -1.
         21   -1    0    0  501  502  0.00000000000E+00 -0.00000000000E+00 -0.82907762329E+02  0.82907762329E+02  0.00000000000E+00 0.  1.
         23    2    1    2    0    0 -0.91298549544E+02  0.99729238372E+02  0.37285437901E+03  0.40694542257E+03  0.91119936724E+02 0.  0.
        -24    2    1    2    0    0  0.51830495807E+02 -0.79029357604E+02  0.10960713401E+03  0.16503716781E+03  0.79318996916E+02 0.  0.
         13    1    4    4    0    0  0.44593841757E+02 -0.92968356999E+02  0.76487926833E+02  0.12838274447E+03  0.00000000000E+00 0. -1.
        -14    1    4    4    0    0  0.72366540494E+01  0.13938999396E+02  0.33119207180E+02  0.36654423338E+02  0.00000000000E+00 0.  1.
        -11    1    3    3    0    0 -0.24425959420E+02  0.84345544671E+02  0.15050519130E+03  0.17424870447E+03  0.00000000000E+00 0.  1.
         11    1    3    3    0    0 -0.66872590124E+02  0.15383693701E+02  0.22234918771E+03  0.23269671810E+03  0.00000000000E+00 0. -1.
          2    1    1    2  501    0  0.39468053737E+02 -0.20699880769E+02 -0.25130468176E+02  0.51163979130E+02  0.00000000000E+00 0. -1.
<scales pt_clust_5="13000.00000" pt_clust_6="13000.00000" pt_clust_7="13000.00000" pt_clust_8="13000.00000" pt_clust_9="44.56694"></scales>
<clustering>
<clus scale="   44.567">  2  9  1 -1</clus>
<clus scale="   79.319">  5  6 -1 -1</clus>
<clus scale="   91.120">  7  8 -1 -1</clus>
<clus scale="  143.332">  2  5  1 -1</clus>
<clus scale="   44.567">  2  5  1 -1</clus>
</clustering>
</event>
<event>
 9    1  0.8429841E-005  0.1049927E+03  0.7546771E-02  0.1278933E+00
          3   -1    0    0  502    0 -0.00000000000E+00  0.00000000000E+00  0.19810469202E+03  0.19810469202E+03  0.00000000000E+00 0. -1.
         21   -1    0    0  501  502  0.00000000000E+00 -0.00000000000E+00 -0.23695839246E+03  0.23695839246E+03  0.00000000000E+00 0. -1.
         23    2    1    2    0    0  0.33698373923E+02  0.45371543653E+02  0.16202112159E+03  0.19447301398E+03  0.91513670825E+02 0.  0.
        -24    2    1    2    0    0 -0.40085640075E+01 -0.12082122753E+00 -0.14899405228E+03  0.16561856284E+03  0.72209400754E+02 0.  0.
         11    1    4    4    0    0  0.15007671167E+02  0.27153572737E+02 -0.11040382806E+03  0.11468021606E+03  0.00000000000E+00 0. -1.
        -12    1    4    4    0    0 -0.19016235175E+02 -0.27274393964E+02 -0.38590224222E+02  0.50938346772E+02  0.00000000000E+00 0.  1.
        -11    1    3    3    0    0  0.39895610242E+02 -0.67943284870E+01  0.24616809581E+02  0.47368870898E+02  0.00000000000E+00 0.  1.
         11    1    3    3    0    0 -0.61972363197E+01  0.52165872140E+02  0.13740431201E+03  0.14710414308E+03  0.00000000000E+00 0. -1.
          4    1    1    2  501    0 -0.29689809915E+02 -0.45250722426E+02 -0.51880769741E+02  0.74971507666E+02  0.00000000000E+00 0. -1.
<scales pt_clust_5="13000.00000" pt_clust_6="13000.00000" pt_clust_7="13000.00000" pt_clust_8="13000.00000" pt_clust_9="54.12128"></scales>
<clustering>
<clus scale="   54.121">  2  9  1 -1</clus>
<clus scale="   72.209">  5  6 -1 -1</clus>
<clus scale="   88.673">  2  5  1 -1</clus>
<clus scale="   91.514">  7  8 -1 -1</clus>
<clus scale="   54.121">  2  5  1 -1</clus>
</clustering>
</event>
<event>
 9    1  0.8429841E-005  0.9423916E+02  0.7546771E-02  0.1299701E+00
         21   -1    0    0  501  502  0.00000000000E+00  0.00000000000E+00  0.53546439171E+02  0.53546439171E+02  0.00000000000E+00 0.  1.
         -2   -1    0    0    0  501 -0.00000000000E+00 -0.00000000000E+00 -0.46505426681E+03  0.46505426681E+03  0.00000000000E+00 0.  1.
        -24    2    1    2    0    0 -0.61486213915E+01  0.42568189193E+02 -0.16646057250E+03  0.18926374998E+03  0.79131463935E+02 0.  0.
         23    2    1    2    0    0 -0.41295738665E+02  0.28105523099E+02 -0.47018785488E+02  0.11378878110E+03  0.90784701653E+02 0.  0.
         13    1    3    3    0    0  0.30521261609E+02  0.28419250415E+02 -0.43882368470E+02  0.60538115819E+02  0.00000000000E+00 0. -1.
        -14    1    3    3    0    0 -0.36669883001E+02  0.14148938778E+02 -0.12257820403E+03  0.12872563416E+03  0.00000000000E+00 0.  1.
        -11    1    4    4    0    0  0.47897709125E+01 -0.28919912210E+02 -0.20711162680E+02  0.35892276150E+02  0.00000000000E+00 0. -1.
         11    1    4    4    0    0 -0.46085509578E+02  0.57025435309E+02 -0.26307622807E+02  0.77896504947E+02  0.00000000000E+00 0.  1.
         -1    1    1    2    0  502  0.47444360057E+02 -0.70673712292E+02 -0.19802846965E+03  0.21554817490E+03  0.00000000000E+00 0.  1.
<scales pt_clust_5="13000.00000" pt_clust_6="13000.00000" pt_clust_7="13000.00000" pt_clust_8="13000.00000" pt_clust_9="85.12196"></scales>
<clustering>
<clus scale="   79.131">  5  6 -1 -1</clus>
<clus scale="   85.122">  1  9  2 -1</clus>
<clus scale="   83.072">  2  5  1 -1</clus>
<clus scale="   90.785">  7  8 -1 -1</clus>
<clus scale="   85.122">  1  5  2 -1</clus>
</clustering>
</event>
<event>
 9    1  0.8429841E-005  0.9549982E+02  0.7546771E-02  0.1298166E+00
         21   -1    0    0  501  502  0.00000000000E+00  0.00000000000E+00  0.43168372129E+02  0.43168372129E+02  0.00000000000E+00 0. -1.
          1   -1    0    0  502    0 -0.00000000000E+00 -0.00000000000E+00 -0.36295184014E+03  0.36295184014E+03  0.00000000000E+00 0. -1.
         23    2    1    2    0    0 -0.17171074323E+02 -0.43703566746E+01 -0.17976920507E+03  0.20217067494E+03  0.90785840879E+02 0.  0.
        -24    2    1    2    0    0  0.19677355282E+02  0.54236179794E+02 -0.10899470622E+03  0.14516948409E+03  0.76587019894E+02 0.  0.
         11    1    4    4    0    0  0.56381694451E+01  0.71056122272E+02 -0.96425425751E+02  0.11991090108E+03  0.00000000000E+00 0. -1.
        -12    1    4    4    0    0  0.14039185837E+02 -0.16819942478E+02 -0.12569280471E+02  0.25258583006E+02  0.00000000000E+00 0.  1.
        -11    1    3    3    0    0  0.27195065283E+02  0.22077018463E+02 -0.10946282998E+03  0.11493075075E+03  0.00000000000E+00 0.  1.
         11    1    3    3    0    0 -0.44366139606E+02 -0.26447375138E+02 -0.70306375089E+02  0.87239924194E+02  0.00000000000E+00 0. -1.
          2    1    1    2  501    0 -0.25062809586E+01 -0.49865823120E+02 -0.31019556715E+02  0.58780053236E+02  0.00000000000E+00 0. -1.
<scales pt_clust_5="13000.00000" pt_clust_6="13000.00000" pt_clust_7="13000.00000" pt_clust_8="13000.00000" pt_clust_9="49.92877"></scales>
<clustering>
<clus scale="   49.929">  1  9  2 -1</clus>
<clus scale="   76.587">  5  6 -1 -1</clus>
<clus scale="   82.120">  1  5  2 -1</clus>
<clus scale="   90.786">  7  8 -1 -1</clus>
<clus scale="   49.929">  1  5  2 -1</clus>
</clustering>
</event>
<event>
 9    1  0.8429841E-005  0.1165131E+03  0.7546771E-02  0.1258215E+00
         21   -1    0    0  501  502  0.00000000000E+00  0.00000000000E+00  0.17858661786E+03  0.17858661786E+03  0.00000000000E+00 0. -1.
          1   -1    0    0  502    0 -0.00000000000E+00 -0.00000000000E+00 -0.21684374438E+03  0.21684374438E+03  0.00000000000E+00 0. -1.
        -24    2    1    2    0    0  0.26242244400E+02 -0.48206122714E+02 -0.83896523454E+02  0.12821371627E+03  0.79922742275E+02 0.  0.
         23    2    1    2    0    0  0.38545505869E+02 -0.45312212876E+02  0.93397277626E+02  0.14383128685E+03  0.91790168054E+02 0.  0.
         13    1    3    3    0    0  0.46026215380E+02 -0.65492640288E+01 -0.23119615670E+02  0.51921305745E+02  0.00000000000E+00 0. -1.
        -14    1    3    3    0    0 -0.19783970980E+02 -0.41656858685E+02 -0.60776907784E+02  0.76292410521E+02  0.00000000000E+00 0.  1.
        -13    1    4    4    0    0  0.20558976660E+02  0.18682494879E+02  0.66595441367E+02  0.72157189157E+02  0.00000000000E+00 0.  1.
         13    1    4    4    0    0  0.17986529209E+02 -0.63994707755E+02  0.26801836259E+02  0.71674097696E+02  0.00000000000E+00 0. -1.
          2    1    1    2  501    0 -0.64787750268E+02  0.93518335590E+02 -0.47757880699E+02  0.12338535912E+03  0.00000000000E+00 0. -1.
<scales pt_clust_5="13000.00000" pt_clust_6="13000.00000" pt_clust_7="13000.00000" pt_clust_8="13000.00000" pt_clust_9="71.76256"></scales>
<clustering>
<clus scale="   79.923">  5  6 -1 -1</clus>
<clus scale="   91.790">  7  8 -1 -1</clus>
<clus scale="   96.954">  2  5  1 -1</clus>
<clus scale="   71.763">  1  9  2 -1</clus>
<clus scale="   71.763">  1  5  2 -1</clus>
</clustering>
</event>
<event>
 9    1  0.8429841E-005  0.1947523E+03  0.7546771E-02  0.1186323E+00
         21   -1    0    0  501  502  0.00000000000E+00  0.00000000000E+00  0.93056839050E+02  0.93056839050E+02  0.00000000000E+00 0. -1.
          1   -1    0    0  502    0 -0.00000000000E+00 -0.00000000000E+00 -0.73808343702E+03  0.73808343702E+03  0.00000000000E+00 0. -1.
        -24    2    1    2    0    0 -0.11152544836E+02 -0.47118024788E+02 -0.28632677878E+03  0.30121249515E+03  0.80009096196E+02 0.  0.
         23    2    1    2    0    0 -0.12996148217E+03 -0.90426322050E+02 -0.11264864149E+03  0.21469326820E+03  0.91304854261E+02 0.  0.
         11    1    3    3    0    0  0.19831659531E+01 -0.65616751128E+02 -0.16135510053E+03  0.17419804661E+03  0.00000000000E+00 0. -1.
        -12    1    3    3    0    0 -0.13135710789E+02  0.18498726340E+02 -0.12497167825E+03  0.12701444855E+03  0.00000000000E+00 0.  1.
        -11    1    4    4    0    0 -0.72359936561E+02 -0.10479090886E+02 -0.12461039300E+02  0.74169058679E+02  0.00000000000E+00 0. -1.
         11    1    4    4    0    0 -0.57601545607E+02 -0.79947231164E+02 -0.10018760219E+03  0.14052420952E+03  0.00000000000E+00 0.  1.
          2    1    1    2  501    0  0.14111402700E+03  0.13754434684E+03 -0.24605117770E+03  0.31523451272E+03  0.00000000000E+00 0. -1.
<scales pt_clust_5="13000.00000" pt_clust_6="13000.00000" pt_clust_7="13000.00000" pt_clust_8="13000.00000" pt_clust_9="172.02301"></scales>
<clustering>
<clus scale="   80.009">  5  6 -1 -1</clus>
<clus scale="   91.305">  7  8 -1 -1</clus>
<clus scale="   93.520">  2  5  1 -1</clus>
<clus scale="  172.023">  1  9  2 -1</clus>
<clus scale="  172.023">  1  5  2 -1</clus>
</clustering>
</event>
<event>
 9    1  0.8429841E-005  0.1868453E+03  0.7546771E-02  0.1179247E+00
          1   -1    0    0  502    0 -0.00000000000E+00  0.00000000000E+00  0.10016729094E+03  0.10016729094E+03  0.00000000000E+00 0. -1.
         21   -1    0    0  501  502  0.00000000000E+00 -0.00000000000E+00 -0.71064061661E+03  0.71064061661E+03  0.00000000000E+00 0. -1.
        -24    2    1    2    0    0 -0.58465143873E+02 -0.71888789419E+02 -0.11988120242E+03  0.17252312970E+03  0.82501857524E+02 0.  0.
         23    2    1    2    0    0  0.38981980188E+02 -0.11031014352E+03 -0.39813129198E+02  0.15168664150E+03  0.87953563947E+02 0.  0.
         11    1    3    3    0    0 -0.75428598953E+02 -0.72238390179E+02 -0.88697131629E+02  0.13702204098E+03  0.00000000000E+00 0. -1.
        -12    1    3    3    0    0  0.16963455080E+02  0.34960076055E+00 -0.31184070789E+02  0.35501088715E+02  0.00000000000E+00 0.  1.
        -13    1    4    4    0    0 -0.38645780866E+01 -0.10120702145E+03 -0.18433343567E+02  0.10294456911E+03  0.00000000000E+00 0.  1.
         13    1    4    4    0    0  0.42846558275E+02 -0.91031220705E+01 -0.21379785631E+02  0.48742072392E+02  0.00000000000E+00 0. -1.
          2    1    1    2  501    0  0.19483163684E+02  0.18219893294E+03 -0.45077899404E+03  0.48659813635E+03  0.00000000000E+00 0. -1.
<scales pt_clust_5="13000.00000" pt_clust_6="13000.00000" pt_clust_7="13000.00000" pt_clust_8="13000.00000" pt_clust_9="164.84946"></scales>
<clustering>
<clus scale="   82.502">  5  6 -1 -1</clus>
<clus scale="   87.954">  7  8 -1 -1</clus>
<clus scale="  124.067">  1  5  2 -1</clus>
<clus scale="  164.849">  2  9  1 -1</clus>
<clus scale="  164.849">  2  5  1 -1</clus>
</clustering>
</event>
<event>
 9    1  0.8429841E-005  0.1663829E+03  0.7546771E-02  0.1215468E+00
         21   -1    0    0  501  502  0.00000000000E+00  0.00000000000E+00  0.23838608710E+03  0.23838608710E+03  0.00000000000E+00 0. -1.
          1   -1    0    0  502    0 -0.00000000000E+00 -0.00000000000E+00 -0.21280758343E+03  0.21280758343E+03  0.00000000000E+00 0. -1.
        -24    2    1    2    0    0 -0.75665948280E+01 -0.10951169772E+01  0.59474779417E+02  0.99451092543E+02  0.79339887716E+02 0.  0.
         23    2    1    2    0    0  0.14441093297E+03  0.23689197067E+01 -0.10146127972E+03  0.19912205114E+03  0.92168707419E+02 0.  0.
         11    1    3    3    0    0 -0.52158266441E+01 -0.29594694454E+02 -0.35328808620E+01  0.30257759907E+02  0.00000000000E+00 0. -1.
        -12    1    3    3    0    0 -0.23507681839E+01  0.28499577477E+02  0.63007660279E+02  0.69193332636E+02  0.00000000000E+00 0.  1.
        -11    1    4    4    0    0  0.41224438841E+02  0.21480337662E+02  0.83509961321E+01  0.47229211302E+02  0.00000000000E+00 0.  1.
         11    1    4    4    0    0  0.10318649413E+03 -0.19111417956E+02 -0.10981227585E+03  0.15189283984E+03  0.00000000000E+00 0. -1.
          2    1    1    2  501    0 -0.13684433814E+03 -0.12738027296E+01  0.67565003975E+02  0.15262052685E+03  0.00000000000E+00 0. -1.
<scales pt_clust_5="13000.00000" pt_clust_6="13000.00000" pt_clust_7="13000.00000" pt_clust_8="13000.00000" pt_clust_9="138.52150"></scales>
<clustering>
<clus scale="   79.340">  5  6 -1 -1</clus>
<clus scale="   79.707">  2  5  1 -1</clus>
<clus scale="   92.169">  7  8 -1 -1</clus>
<clus scale="  138.521">  1  9  2 -1</clus>
<clus scale="  138.521">  1  5  2 -1</clus>
</clustering>
</event>
<event>
 9    1  0.8429841E-005  0.1867927E+03  0.7546771E-02  0.1162073E+00
         -2   -1    0    0    0  501 -0.00000000000E+00  0.00000000000E+00  0.28699903361E+03  0.28699903361E+03  0.00000000000E+00 0.  1.
         21   -1    0    0  501  502  0.00000000000E+00 -0.00000000000E+00 -0.21265293336E+03  0.21265293336E+03  0.00000000000E+00 0.  1.
        -24    2    1    2    0    0  0.98302583252E+02 -0.14923652898E+03  0.12509422574E+03  0.23873216153E+03  0.97002784372E+02 0.  0.
         23    2    1    2    0    0 -0.30185298733E+02  0.13621985040E+03  0.12380700288E+02  0.16714002609E+03  0.91189400047E+02 0.  0.
         13    1    3    3    0    0  0.32202621460E+02 -0.79959689396E+01  0.62371641017E+02  0.70648184346E+02  0.00000000000E+00 0. -1.
        -14    1    3    3    0    0  0.66099961792E+02 -0.14124056004E+03  0.62722584727E+02  0.16808397718E+03  0.00000000000E+00 0.  1.
        -11    1    4    4    0    0  0.70702149126E+01  0.63114585313E+02  0.46052065932E+02  0.78448910730E+02  0.00000000000E+00 0.  1.
         11    1    4    4    0    0 -0.37255513646E+02  0.73105265083E+02 -0.33671365644E+02  0.88691115362E+02  0.00000000000E+00 0. -1.
         -1    1    1    2    0  502 -0.68117284519E+02  0.13016678587E+02 -0.63128825784E+02  0.93779779359E+02  0.00000000000E+00 0.  1.
<scales pt_clust_5="13000.00000" pt_clust_6="13000.00000" pt_clust_7="13000.00000" pt_clust_8="13000.00000" pt_clust_9="69.34983"></scales>
<clustering>
<clus scale="   69.350">  2  9  1 -1</clus>
<clus scale="   91.189">  7  8 -1 -1</clus>
<clus scale="   97.003">  5  6 -1 -1</clus>
<clus scale="  183.841">  2  7  1 -1</clus>
<clus scale="   69.350">  2  5  1 -1</clus>
</clustering>
</event>
<event>
 9    1  0.8429841E-005  0.1318035E+03  0.7546771E-02  0.1226739E+00
         21   -1    0    0  501  502  0.00000000000E+00  0.00000000000E+00  0.46654721977E+03  0.46654721977E+03  0.00000000000E+00 0.  1.
          1   -1    0    0  502    0 -0.00000000000E+00 -0.00000000000E+00 -0.85185957763E+02  0.85185957763E+02  0.00000000000E+00 0. -1.
         23    2    1    2    0    0 -0.67080522650E+02  0.75920457795E+02  0.10715399847E+03  0.17248324107E+03  0.89469417307E+02 0.  0.
        -24    2    1    2    0    0  0.19846008014E+02 -0.93443990192E+02  0.29809492994E+03  0.32349337481E+03  0.81619439790E+02 0.  0.
         11    1    4    4    0    0 -0.65096693082E+01 -0.29785436638E+02  0.18784585349E+02  0.35810734103E+02  0.00000000000E+00 0. -1.
        -12    1    4    4    0    0  0.26355677322E+02 -0.63658553553E+02  0.27931034459E+03  0.28768264071E+03  0.00000000000E+00 0.  1.
        -13    1    3    3    0    0 -0.69869549011E+02  0.11975136937E+02  0.50893557193E+02  0.87265754723E+02  0.00000000000E+00 0.  1.
         13    1    3    3    0    0  0.27890263603E+01  0.63945320858E+02  0.56260441274E+02  0.85217486351E+02  0.00000000000E+00 0. -1.
          2    1    1    2  501    0  0.47234514637E+02  0.17523532396E+02 -0.23887666403E+02  0.55756561648E+02  0.00000000000E+00 0. -1.
<scales pt_clust_5="13000.00000" pt_clust_6="13000.00000" pt_clust_7="13000.00000" pt_clust_8="13000.00000" pt_clust_9="50.38031"></scales>
<clustering>
<clus scale="   50.380">  1  9  2 -1</clus>
<clus scale="   81.619">  5  6 -1 -1</clus>
<clus scale="   89.469">  7  8 -1 -1</clus>
<clus scale="  126.606">  1  5  2 -1</clus>
<clus scale="   50.380">  1  5  2 -1</clus>
</clustering>
</event>
<event>
 9    1  0.8429841E-005  0.1666563E+03  0.7546771E-02  0.1183344E+00
         21   -1    0    0  501  502  0.00000000000E+00  0.00000000000E+00  0.21204811362E+03  0.21204811362E+03  0.00000000000E+00 0. -1.
          1   -1    0    0  502    0 -0.00000000000E+00 -0.00000000000E+00 -0.38669877107E+03  0.38669877107E+03  0.00000000000E+00 0. -1.
         23    2    1    2    0    0  0.33770788712E+02  0.14105264634E+03 -0.27641659954E+03  0.32546592409E+03  0.92117403533E+02 0.  0.
        -24    2    1    2    0    0 -0.94690103832E+02 -0.78679814820E+02  0.11404636312E+03  0.18523357674E+03  0.78410305347E+02 0.  0.
         11    1    4    4    0    0 -0.73589334207E+02 -0.79331060087E+02  0.12163511880E+03  0.16280021293E+03  0.00000000000E+00 0. -1.
        -12    1    4    4    0    0 -0.21100769625E+02  0.65124526645E+00 -0.75887556741E+01  0.22433363810E+02  0.00000000000E+00 0.  1.
        -11    1    3    3    0    0  0.57552164538E+02  0.13526355762E+03 -0.22933464905E+03  0.27240202444E+03  0.00000000000E+00 0.  1.
         11    1    3    3    0    0 -0.23781375826E+02  0.57890887165E+01 -0.47081950486E+02  0.53063899649E+02  0.00000000000E+00 0. -1.
          2    1    1    2  501    0  0.60919315120E+02 -0.62372831518E+02 -0.12280421041E+02  0.88047383875E+02  0.00000000000E+00 0. -1.
<scales pt_clust_5="13000.00000" pt_clust_6="13000.00000" pt_clust_7="13000.00000" pt_clust_8="13000.00000" pt_clust_9="87.18677"></scales>
<clustering>
<clus scale="   78.410">  5  6 -1 -1</clus>
<clus scale="   87.187">  1  9  2 -1</clus>
<clus scale="   92.117">  7  8 -1 -1</clus>
<clus scale="  159.489">  1  5  2 -1</clus>
<clus scale="   87.187">  1  5  2 -1</clus>
</clustering>
</event>
<event>
 9    1  0.8429841E-005  0.1415387E+03  0.7546771E-02  0.1212397E+00
         21   -1    0    0  501  502  0.00000000000E+00  0.00000000000E+00  0.69401363541E+03  0.69401363541E+03  0.00000000000E+00 0. -1.
          1   -1    0    0  502    0 -0.00000000000E+00 -0.00000000000E+00 -0.41222077695E+02  0.41222077695E+02  0.00000000000E+00 0. -1.
        -24    2    1    2    0    0  0.10357471584E+03 -0.73695433056E+02  0.21358058446E+03  0.26254041652E+03  0.84569886103E+02 0.  0.
         23    2    1    2    0    0 -0.79142028870E+02  0.40739948975E+02  0.26416658432E+03  0.29290776025E+03  0.89932016366E+02 0.  0.
         13    1    3    3    0    0  0.72617135700E+02 -0.11505833002E+02  0.63448846325E+02  0.97115337050E+02  0.00000000000E+00 0. -1.
        -14    1    3    3    0    0  0.30957580135E+02 -0.62189600054E+02  0.15013173814E+03  0.16542507947E+03  0.00000000000E+00 0.  1.
        -11    1    4    4    0    0 -0.23917501065E+02 -0.26499519118E+02  0.11281253426E+03  0.11832556468E+03  0.00000000000E+00 0. -1.
         11    1    4    4    0    0 -0.55224527805E+02  0.67239468092E+02  0.15135405006E+03  0.17458219557E+03  0.00000000000E+00 0.  1.
          2    1    1    2  501    0 -0.24432686966E+02  0.32955484081E+02  0.17504438893E+03  0.17978753633E+03  0.00000000000E+00 0. -1.
<scales pt_clust_5="13000.00000" pt_clust_6="13000.00000" pt_clust_7="13000.00000" pt_clust_8="13000.00000" pt_clust_9="41.02463"></scales>
<clustering>
<clus scale="   41.025">  1  9  2 -1</clus>
<clus scale="   84.570">  5  6 -1 -1</clus>
<clus scale="   89.932">  7  8 -1 -1</clus>
<clus scale="  138.194">  2  5  1 -1</clus>
<clus scale="   41.025">  1  5  2 -1</clus>
</clustering>
</event>
<event>
 9    1  0.8429841E-005  0.1406649E+03  0.7546771E-02  0.1216600E+00
         -2   -1    0    0    0  501 -0.00000000000E+00  0.00000000000E+00  0.20182039582E+03  0.20182039582E+03  0.00000000000E+00 0.  1.
         21   -1    0    0  501  502  0.00000000000E+00 -0.00000000000E+00 -0.42355451092E+03  0.42355451092E+03  0.00000000000E+00 0. -1.
        -24    2    1    2    0    0  0.34884937736E+02  0.94422154062E+02  0.12148225964E+03  0.17704298885E+03  0.80335412084E+02 0.  0.
         23    2    1    2    0    0 -0.10590002290E+03  0.16309428729E+02 -0.24935305101E+03  0.28673071342E+03  0.92502679162E+02 0.  0.
         11    1    3    3    0    0  0.46230742034E+02  0.26836498270E+02  0.25815555385E+02  0.59362631750E+02  0.00000000000E+00 0. -1.
        -12    1    3    3    0    0 -0.11345804299E+02  0.67585655792E+02  0.95666704250E+02  0.11768035710E+03  0.00000000000E+00 0.  1.
        -11    1    4    4    0    0 -0.62308221212E+02  0.18902850376E+02 -0.22986788613E+03  0.23891186085E+03  0.00000000000E+00 0. -1.
         11    1    4    4    0    0 -0.43591801685E+02 -0.25934216477E+01 -0.19485164885E+02  0.47818852565E+02  0.00000000000E+00 0.  1.
         -1    1    1    2    0  502  0.71015085162E+02 -0.11073158279E+03 -0.93863323718E+02  0.16160120447E+03  0.00000000000E+00 0.  1.
<scales pt_clust_5="13000.00000" pt_clust_6="13000.00000" pt_clust_7="13000.00000" pt_clust_8="13000.00000" pt_clust_9="105.97114"></scales>
<clustering>
<clus scale="   80.335">  5  6 -1 -1</clus>
<clus scale="   92.503">  7  8 -1 -1</clus>
<clus scale="  128.788">  1  5  2 -1</clus>
<clus scale="  105.971">  2  9  1 -1</clus>
<clus scale="  105.971">  2  5  1 -1</clus>
</clustering>
</event>
<event>
 9    1  0.8429841E-005  0.9553464E+02  0.7546771E-02  0.1293547E+00
         -4   -1    0    0    0  501 -0.00000000000E+00  0.00000000000E+00  0.18605368485E+03  0.18605368485E+03  0.00000000000E+00 0.  1.
         21   -1    0    0  501  502  0.00000000000E+00 -0.00000000000E+00 -0.10847938663E+03  0.10847938663E+03  0.00000000000E+00 0.  1.
         23    2    1    2    0    0 -0.98718490115E+01 -0.96060832786E+01  0.23705073357E+01  0.91837488384E+02  0.90767696505E+02 0.  0.
        -24    2    1    2    0    0  0.20284105623E+01  0.54495465951E+02 -0.15149343634E+02  0.10150138800E+03  0.84256506548E+02 0.  0.
         13    1    4    4    0    0  0.15076827845E+02 -0.16919165191E+02 -0.17859965868E+02  0.28853895221E+02  0.00000000000E+00 0. -1.
        -14    1    4    4    0    0 -0.13048417282E+02  0.71414631143E+02  0.27106222342E+01  0.72647492784E+02  0.00000000000E+00 0.  1.
        -13    1    3    3    0    0 -0.12172032675E+02 -0.35513239880E+02 -0.31588236790E+02  0.49062870786E+02  0.00000000000E+00 0.  1.
         13    1    3    3    0    0  0.23001836636E+01  0.25907156601E+02  0.33958744126E+02  0.42774617598E+02  0.00000000000E+00 0. -1.
         -3    1    1    2    0  502  0.78434384492E+01 -0.44889382673E+02  0.90353134513E+02  0.10119419509E+03  0.00000000000E+00 0.  1.
<scales pt_clust_5="13000.00000" pt_clust_6="13000.00000" pt_clust_7="13000.00000" pt_clust_8="13000.00000" pt_clust_9="45.56949"></scales>
<clustering>
<clus scale="   45.569">  2  9  1 -1</clus>
<clus scale="   84.257">  5  6 -1 -1</clus>
<clus scale="   89.371">  2  5  1 -1</clus>
<clus scale="   90.768">  7  8 -1 -1</clus>
<clus scale="   45.569">  2  5  1 -1</clus>
</clustering>
</event>
<event>
 9    1  0.8429841E-005  0.1369119E+03  0.7546771E-02  0.1224661E+00
         -4   -1    0    0    0  501 -0.00000000000E+00  0.00000000000E+00  0.64126080811E+02  0.64126080811E+02  0.00000000000E+00 0.  1.
         21   -1    0    0  501  502  0.00000000000E+00 -0.00000000000E+00 -0.94355185637E+03  0.94355185637E+03  0.00000000000E+00 0.  1.
        -24    2    1    2    0    0 -0.19780995555E+02  0.83648252726E+02 -0.29449162698E+02  0.12156655320E+03  0.80764198154E+02 0.  0.
         23    2    1    2    0    0 -0.27170032415E+02  0.36668345996E+02 -0.45857263217E+03  0.47394932962E+03  0.11070830960E+03 0.  0.
         13    1    3    3    0    0  0.21450791253E+02 -0.32837210716E+01 -0.64954997326E+01  0.22651948839E+02  0.00000000000E+00 0. -1.
        -14    1    3    3    0    0 -0.41231786808E+02  0.86931973797E+02 -0.22953662966E+02  0.98914604358E+02  0.00000000000E+00 0.  1.
        -11    1    4    4    0    0 -0.34118540122E+02 -0.26561893874E+02 -0.89060600067E+02  0.99002017507E+02  0.00000000000E+00 0. -1.
         11    1    4    4    0    0  0.69485077079E+01  0.63230239870E+02 -0.36951203210E+03  0.37494731211E+03  0.00000000000E+00 0.  1.
         -3    1    1    2    0  502  0.46951027970E+02 -0.12031659872E+03 -0.39140398069E+03  0.41216205437E+03  0.00000000000E+00 0.  1.
<scales pt_clust_5="13000.00000" pt_clust_6="13000.00000" pt_clust_7="13000.00000" pt_clust_8="13000.00000" pt_clust_9="80.55148"></scales>
<clustering>
<clus scale="   80.764">  5  6 -1 -1</clus>
<clus scale="  110.708">  7  8 -1 -1</clus>
<clus scale="  117.946">  1  5  2 -1</clus>
<clus scale="   80.551">  2  9  1 -1</clus>
<clus scale="   80.551">  2  5  1 -1</clus>
</clustering>
</event>
<event>
 9    1  0.8429841E-005  0.1955694E+03  0.7546771E-02  0.1161371E+00
          1   -1    0    0  502    0 -0.00000000000E+00  0.00000000000E+00  0.15750986445E+04  0.15750986445E+04  0.00000000000E+00 0. -1.
         21   -1    0    0  501  502  0.00000000000E+00 -0.00000000000E+00 -0.12622072630E+03  0.12622072630E+03  0.00000000000E+00 0. -1.
        -24    2    1    2    0    0 -0.70469490587E+02 -0.12336352137E+03  0.19157994038E+03  0.25141957511E+03  0.79526232677E+02 0.  0.
         23    2    1    2    0    0  0.14671710959E+03  0.26988931263E+03  0.12437662924E+04  0.12841692511E+04  0.88147172035E+02 0.  0.
         13    1    3    3    0    0 -0.66302612699E+02 -0.51325545836E+02  0.66495281103E+02  0.10701388001E+03  0.00000000000E+00 0. -1.
        -14    1    3    3    0    0 -0.41668778878E+01 -0.72037975535E+02  0.12508465928E+03  0.14440569510E+03  0.00000000000E+00 0.  1.
        -11    1    4    4    0    0  0.66648204998E+02  0.45813165885E+02  0.27841575592E+03  0.28992440832E+03  0.00000000000E+00 0.  1.
         11    1    4    4    0    0  0.80068904596E+02  0.22407614674E+03  0.96535053652E+03  0.99424484277E+03  0.00000000000E+00 0. -1.
          2    1    1    2  501    0 -0.76247619007E+02 -0.14652579126E+03  0.13531685393E+02  0.16573054461E+03  0.00000000000E+00 0. -1.
<scales pt_clust_5="13000.00000" pt_clust_6="13000.00000" pt_clust_7="13000.00000" pt_clust_8="13000.00000" pt_clust_9="174.57794"></scales>
<clustering>
<clus scale="   79.526">  5  6 -1 -1</clus>
<clus scale="   88.147">  7  8 -1 -1</clus>
<clus scale="  162.816">  1  5  2 -1</clus>
<clus scale="  174.578">  2  9  1 -1</clus>
<clus scale="  174.578">  2  5  1 -1</clus>
</clustering>
</event>
<event>
 9    1  0.8429841E-005  0.1487176E+03  0.7546771E-02  0.1204679E+00
         21   -1    0    0  501  502  0.00000000000E+00  0.00000000000E+00  0.36601102833E+03  0.36601102833E+03  0.00000000000E+00 0. -1.
          1   -1    0    0  502    0 -0.00000000000E+00 -0.00000000000E+00 -0.13490957506E+03  0.13490957506E+03  0.00000000000E+00 0. -1.
        -24    2    1    2    0    0  0.10607755540E+03 -0.75807393603E+02  0.76927584688E+02  0.17084394868E+03  0.79187074887E+02 0.  0.
         23    2    1    2    0    0 -0.17911017724E+02  0.11460431498E+03  0.17695212887E+03  0.23109489570E+03  0.92939987822E+02 0.  0.
         11    1    3    3    0    0  0.10867306828E+03 -0.55503974252E+02  0.39633010139E+02  0.12830160724E+03  0.00000000000E+00 0. -1.
        -12    1    3    3    0    0 -0.25955128778E+01 -0.20303419351E+02  0.37294574549E+02  0.42542341441E+02  0.00000000000E+00 0.  1.
        -11    1    4    4    0    0  0.32135939529E+02  0.76774417427E+02  0.12205652952E+03  0.14773227873E+03  0.00000000000E+00 0. -1.
         11    1    4    4    0    0 -0.50046957253E+02  0.37829897553E+02  0.54895599357E+02  0.83362616969E+02  0.00000000000E+00 0.  1.
          2    1    1    2  501    0 -0.88166537677E+02 -0.38796921376E+02 -0.22778260293E+02  0.98981759008E+02  0.00000000000E+00 0. -1.
<scales pt_clust_5="13000.00000" pt_clust_6="13000.00000" pt_clust_7="13000.00000" pt_clust_8="13000.00000" pt_clust_9="96.32522"></scales>
<clustering>
<clus scale="   79.187">  5  6 -1 -1</clus>
<clus scale="   92.940">  7  8 -1 -1</clus>
<clus scale="   96.325">  1  9  2 -1</clus>
<clus scale="  140.534">  2  5  1 -1</clus>
<clus scale="   96.325">  1  5  2 -1</clus>
</clustering>
</event>
<event>
 9    1  0.8429841E-005  0.9548712E+02  0.7546771E-02  0.1297413E+00
         21   -1    0    0  501  502  0.00000000000E+00  0.00000000000E+00  0.15832402196E+03  0.15832402196E+03  0.00000000000E+00 0. -1.
         -2   -1    0    0    0  501 -0.00000000000E+00 -0.00000000000E+00 -0.15979182161E+03  0.15979182161E+03  0.00000000000E+00 0.  1.
        -24    2    1    2    0    0  0.22252706819E+02 -0.11698530011E+02 -0.12090328783E+03  0.14655627044E+03  0.78924627531E+02 0.  0.
         23    2    1    2    0    0 -0.27815386745E+02  0.31658124525E+02  0.87899039572E+02  0.13382528618E+03  0.91689876617E+02 0.  0.
         13    1    3    3    0    0  0.49122497949E+02 -0.21188779841E+02 -0.68601149985E+02  0.86994838785E+02  0.00000000000E+00 0. -1.
        -14    1    3    3    0    0 -0.26869791131E+02  0.94902498302E+01 -0.52302137845E+02  0.59561431652E+02  0.00000000000E+00 0.  1.
        -11    1    4    4    0    0 -0.15434287129E+02  0.61304959505E+02  0.77589995395E+02  0.10008357840E+03  0.00000000000E+00 0. -1.
         11    1    4    4    0    0 -0.12381099616E+02 -0.29646834980E+02  0.10309044178E+02  0.33741707780E+02  0.00000000000E+00 0.  1.
         -1    1    1    2    0  502  0.55626799267E+01 -0.19959594514E+02  0.31536448607E+02  0.37734286953E+02  0.00000000000E+00 0.  1.
<scales pt_clust_5="13000.00000" pt_clust_6="13000.00000" pt_clust_7="13000.00000" pt_clust_8="13000.00000" pt_clust_9="20.72025"></scales>
<clustering>
<clus scale="   20.720">  1  9  2 -1</clus>
<clus scale="   78.925">  5  6 -1 -1</clus>
<clus scale="   83.306">  2  5  1 -1</clus>
<clus scale="   91.690">  7  8 -1 -1</clus>
<clus scale="   20.720">  1  5  2 -1</clus>
</clustering>
</event>
<event>
 9    1  0.8429841E-005  0.1157163E+03  0.7546771E-02  0.1253661E+00
         -2   -1    0    0    0  501 -0.00000000000E+00  0.00000000000E+00  0.13193760328E+03  0.13193760328E+03  0.00000000000E+00 0.  1.
         21   -1    0    0  501  502  0.00000000000E+00 -0.00000000000E+00 -0.28179782562E+03  0.28179782562E+03  0.00000000000E+00 0. -1.
         23    2    1    2    0    0 -0.28029486593E+02  0.48771992676E+02  0.17757353332E+02  0.10739701395E+03  0.89746507563E+02 0.  0.
        -24    2    1    2    0    0  0.12323760419E+03 -0.62135301842E+02 -0.92991801816E+02  0.18463315701E+03  0.79960144080E+02 0.  0.
         11    1    4    4    0    0  0.77494727638E+02 -0.63742427158E+02 -0.95860362919E+02  0.13877225591E+03  0.00000000000E+00 0. -1.
        -12    1    4    4    0    0  0.45742876547E+02  0.16071253155E+01  0.28685611032E+01  0.45860901097E+02  0.00000000000E+00 0.  1.
        -13    1    3    3    0    0 -0.47656277931E+02  0.51345610769E+01 -0.14041118265E+02  0.49946346672E+02  0.00000000000E+00 0.  1.
         13    1    3    3    0    0  0.19626791338E+02  0.43637431600E+02  0.31798471598E+02  0.57450667279E+02  0.00000000000E+00 0. -1.
         -1    1    1    2    0  502 -0.95208117592E+02  0.13363309166E+02 -0.74625773853E+02  0.12170525794E+03  0.00000000000E+00 0.  1.
<scales pt_clust_5="13000.00000" pt_clust_6="13000.00000" pt_clust_7="13000.00000" pt_clust_8="13000.00000" pt_clust_9="96.14137"></scales>
<clustering>
<clus scale="   79.960">  5  6 -1 -1</clus>
<clus scale="   89.747">  7  8 -1 -1</clus>
<clus scale="   96.141">  2  9  1 -1</clus>
<clus scale="  108.303">  2  5  1 -1</clus>
<clus scale="   96.141">  2  5  1 -1</clus>
</clustering>
</event>
<event>
 9    1  0.8429841E-005  0.9823977E+02  0.7546771E-02  0.1289913E+00
          1   -1    0    0  502    0 -0.00000000000E+00  0.00000000000E+00  0.49962873012E+03  0.49962873012E+03  0.00000000000E+00 0. -1.
         21   -1    0    0  501  502  0.00000000000E+00 -0.00000000000E+00 -0.17140424957E+03  0.17140424957E+03  0.00000000000E+00 0. -1.
         23    2    1    2    0    0  0.36236270415E+02 -0.10778241396E+02  0.33849219440E+03  0.35245172765E+03  0.90642246614E+02 0.  0.
        -24    2    1    2    0    0 -0.55373374022E+02 -0.57310766078E+02 -0.13467644768E+03  0.17547333918E+03  0.79387736729E+02 0.  0.
         13    1    4    4    0    0  0.50168426822E+01 -0.51334731184E+02 -0.67385966443E+02  0.84860425463E+02  0.00000000000E+00 0. -1.
        -14    1    4    4    0    0 -0.60390216704E+02 -0.59760348942E+01 -0.67290481235E+02  0.90612913713E+02  0.00000000000E+00 0.  1.
        -13    1    3    3    0    0  0.56539876476E+02 -0.33446150211E+02  0.19499068934E+03  0.20575901323E+03  0.00000000000E+00 0. -1.
         13    1    3    3    0    0 -0.20303606061E+02  0.22667908815E+02  0.14350150506E+03  0.14669271442E+03  0.00000000000E+00 0.  1.
          2    1    1    2  501    0  0.19137103607E+02  0.68089007474E+02  0.12440873383E+03  0.14310791287E+03  0.00000000000E+00 0. -1.
<scales pt_clust_5="13000.00000" pt_clust_6="13000.00000" pt_clust_7="13000.00000" pt_clust_8="13000.00000" pt_clust_9="70.72727"></scales>
<clustering>
<clus scale="   70.727">  2  9  1 -1</clus>
<clus scale="   79.388">  5  6 -1 -1</clus>
<clus scale="   87.963">  2  5  1 -1</clus>
<clus scale="   90.642">  7  8 -1 -1</clus>
<clus scale="   70.727">  2  5  1 -1</clus>
</clustering>
</event>
<event>
 9    1  0.8429841E-005  0.1776319E+03  0.7546771E-02  0.1172124E+00
          1   -1    0    0  502    0 -0.00000000000E+00  0.00000000000E+00  0.41812395386E+03  0.41812395386E+03  0.00000000000E+00 0. -1.
         21   -1    0    0  501  502  0.00000000000E+00 -0.00000000000E+00 -0.10551802652E+03  0.10551802652E+03  0.00000000000E+00 0. -1.
        -24    2    1    2    0    0 -0.15037601356E+03 -0.27435040554E+02  0.18659962957E+03  0.25449514468E+03  0.81134024946E+02 0.  0.
         23    2    1    2    0    0  0.12982967390E+03  0.66082296037E+02  0.50704548151E+02  0.18204852387E+03  0.96685571650E+02 0.  0.
         13    1    3    3    0    0 -0.15999701371E+03 -0.27123012925E+02  0.18195232793E+03  0.24380597176E+03  0.00000000000E+00 0. -1.
        -14    1    3    3    0    0  0.96210001501E+01 -0.31202762823E+00  0.46473016402E+01  0.10689172918E+02  0.00000000000E+00 0.  1.
        -13    1    4    4    0    0  0.64483794633E+02  0.52907067913E+02 -0.19055472495E+02  0.85559503490E+02  0.00000000000E+00 0. -1.
         13    1    4    4    0    0  0.65345879268E+02  0.13175228125E+02  0.69760020646E+02  0.96489020380E+02  0.00000000000E+00 0.  1.
          2    1    1    2  501    0  0.20546339658E+02 -0.38647255484E+02  0.75301749614E+02  0.87098311836E+02  0.00000000000E+00 0. -1.
<scales pt_clust_5="13000.00000" pt_clust_6="13000.00000" pt_clust_7="13000.00000" pt_clust_8="13000.00000" pt_clust_9="43.76945"></scales>
<clustering>
<clus scale="   43.769">  2  9  1 -1</clus>
<clus scale="   81.134">  5  6 -1 -1</clus>
<clus scale="   96.686">  7  8 -1 -1</clus>
<clus scale="  169.669">  1  5  2 -1</clus>
<clus scale="   43.769">  2  5  1 -1</clus>
</clustering>
</event>
<event>
 9    1  0.8429841E-005  0.1727938E+03  0.7546771E-02  0.1191037E+00
         21   -1    0    0  501  502  0.00000000000E+00  0.00000000000E+00  0.17603091838E+04  0.17603091838E+04  0.00000000000E+00 0.  1.
         -2   -1    0    0    0  501 -0.00000000000E+00 -0.00000000000E+00 -0.37870268678E+02  0.37870268678E+02  0.00000000000E+00 0.  1.
         23    2    1    2    0    0  0.75101474761E+02  0.25088842600E+02  0.16954609884E+03  0.20807745240E+03  0.90998159504E+02 0.  0.
        -24    2    1    2    0    0  0.32370584264E+02 -0.13785121071E+03  0.10359484992E+04  0.10501973584E+04  0.98358464715E+02 0.  0.
         13    1    4    4    0    0  0.33928967624E+02 -0.45190841287E+02  0.16659705140E+03  0.17592033570E+03  0.00000000000E+00 0. -1.
        -14    1    4    4    0    0 -0.15583833597E+01 -0.92660369425E+02  0.86935144780E+03  0.87427702270E+03  0.00000000000E+00 0.  1.
        -11    1    3    3    0    0  0.89062813542E+02 -0.26977249842E+01  0.13304046600E+03  0.16012254079E+03  0.00000000000E+00 0.  1.
         11    1    3    3    0    0 -0.13961338782E+02  0.27786567585E+02  0.36505632836E+02  0.47954911609E+02  0.00000000000E+00 0. -1.
         -1    1    1    2    0  502 -0.10747205902E+03  0.11276236811E+03  0.51694431706E+03  0.53990464165E+03  0.00000000000E+00 0.  1.
<scales pt_clust_5="13000.00000" pt_clust_6="13000.00000" pt_clust_7="13000.00000" pt_clust_8="13000.00000" pt_clust_9="142.06805"></scales>
<clustering>
<clus scale="   90.998">  7  8 -1 -1</clus>
<clus scale="   98.358">  5  6 -1 -1</clus>
<clus scale="  120.625">  2  7  1 -1</clus>
<clus scale="  142.068">  1  9  2 -1</clus>
<clus scale="  142.068">  1  5  2 -1</clus>
</clustering>
</event>
<event>
 9    1  0.8429841E-005  0.1029468E+03  0.7546771E-02  0.1278688E+00
         21   -1    0    0  501  502  0.00000000000E+00  0.00000000000E+00  0.35910150485E+03  0.35910150485E+03  0.00000000000E+00 0.  1.
          1   -1    0    0  502    0 -0.00000000000E+00 -0.00000000000E+00 -0.68455137324E+02  0.68455137324E+02  0.00000000000E+00 0. -1.
        -24    2    1    2    0    0  0.43223668678E+02 -0.59275459608E+01 -0.78987948740E+01  0.92698421234E+02  0.81407524246E+02 0.  0.
         23    2    1    2    0    0 -0.68297032365E+02  0.28489396058E+02  0.21900439795E+03  0.24846120794E+03  0.91070935049E+02 0.  0.
         13    1    3    3    0    0  0.62193961112E+02  0.10268039307E+02 -0.18352442838E+02  0.65653130832E+02  0.00000000000E+00 0. -1.
        -14    1    3    3    0    0 -0.18970292434E+02 -0.16195585268E+02  0.10453647964E+02  0.27045290402E+02  0.00000000000E+00 0.  1.
        -13    1    4    4    0    0 -0.25995409061E+02 -0.33413173839E+02  0.76107227219E+02  0.87089101001E+02  0.00000000000E+00 0. -1.
         13    1    4    4    0    0 -0.42301623304E+02  0.61902569897E+02  0.14289717073E+03  0.16137210694E+03  0.00000000000E+00 0.  1.
          2    1    1    2  501    0  0.25073363688E+02 -0.22561850097E+02  0.79540764456E+02  0.86397013007E+02  0.00000000000E+00 0. -1.
<scales pt_clust_5="13000.00000" pt_clust_6="13000.00000" pt_clust_7="13000.00000" pt_clust_8="13000.00000" pt_clust_9="33.72997"></scales>
<clustering>
<clus scale="   33.730">  1  9  2 -1</clus>
<clus scale="   81.408">  5  6 -1 -1</clus>
<clus scale="   91.071">  7  8 -1 -1</clus>
<clus scale="   94.506">  2  5  1 -1</clus>
<clus scale="   33.730">  1  5  2 -1</clus>
</clustering>
</event>
<event>
 9    1  0.8429841E-005  0.1273657E+03  0.7546771E-02  0.1234762E+00
         21   -1    0    0  501  502  0.00000000000E+00  0.00000000000E+00  0.98924589127E+02  0.98924589127E+02  0.00000000000E+00 0.  1.
          1   -1    0    0  502    0 -0.00000000000E+00 -0.00000000000E+00 -0.22342653347E+03  0.22342653347E+03  0.00000000000E+00 0. -1.
         23    2    1    2    0    0  0.38454339799E+02  0.78634710259E+02 -0.97972820270E+02  0.16049490352E+03  0.92183440141E+02 0.  0.
        -24    2    1    2    0    0 -0.69384238110E+02 -0.61352801302E+02 -0.30541850996E+02  0.12619917259E+03  0.80094243082E+02 0.  0.
         11    1    4    4    0    0  0.75925310244E+01 -0.40954925572E+02 -0.18821524307E+02  0.45707791821E+02  0.00000000000E+00 0. -1.
        -12    1    4    4    0    0 -0.76976769134E+02 -0.20397875730E+02 -0.11720326689E+02  0.80491380770E+02  0.00000000000E+00 0.  1.
        -13    1    3    3    0    0  0.35770393752E+02  0.31496542269E+02 -0.10252483219E+03  0.11306146320E+03  0.00000000000E+00 0. -1.
         13    1    3    3    0    0  0.26839460464E+01  0.47138167990E+02  0.45520119250E+01  0.47433440317E+02  0.00000000000E+00 0.  1.
          2    1    1    2  501    0  0.30929898311E+02 -0.17281908957E+02  0.40127269268E+01  0.35657046486E+02  0.00000000000E+00 0. -1.
<scales pt_clust_5="13000.00000" pt_clust_6="13000.00000" pt_clust_7="13000.00000" pt_clust_8="13000.00000" pt_clust_9="35.43054"></scales>
<clustering>
<clus scale="   35.431">  1  9  2 -1</clus>
<clus scale="   80.094">  5  6 -1 -1</clus>
<clus scale="   92.183">  7  8 -1 -1</clus>
<clus scale="  118.909">  1  5  2 -1</clus>
<clus scale="   35.431">  1  5  2 -1</clus>
</clustering>
</event>
<event>
 9    1  0.8429841E-005  0.1409658E+03  0.7546771E-02  0.1213306E+00
         -2   -1    0    0    0  501 -0.00000000000E+00  0.00000000000E+00  0.13078903943E+03  0.13078903943E+03  0.00000000000E+00 0.  1.
         21   -1    0    0  501  502  0.00000000000E+00 -0.00000000000E+00 -0.20581160370E+03  0.20581160370E+03  0.00000000000E+00 0. -1.
        -24    2    1    2    0    0  0.75571957757E+02 -0.63125937961E+02 -0.77612805524E+01  0.12949062408E+03  0.83735174251E+02 0.  0.
         23    2    1    2    0    0 -0.98859784061E+02  0.70724750626E+02 -0.18098886725E+02  0.15218273906E+03  0.89759507082E+02 0.  0.
         13    1    3    3    0    0  0.36139545930E+02 -0.27107451604E+02 -0.45482819442E+02  0.64105909064E+02  0.00000000000E+00 0. -1.
        -14    1    3    3    0    0  0.39432411827E+02 -0.36018486357E+02  0.37721538889E+02  0.65384715019E+02  0.00000000000E+00 0.  1.
        -13    1    4    4    0    0 -0.97692649888E+02  0.23017448876E+02 -0.26312780849E+02  0.10375942960E+03  0.00000000000E+00 0. -1.
         13    1    4    4    0    0 -0.11671341726E+01  0.47707301750E+02  0.82138941235E+01  0.48423309461E+02  0.00000000000E+00 0.  1.
         -1    1    1    2    0  502  0.23287826304E+02 -0.75988126650E+01 -0.49162396995E+02  0.54927279981E+02  0.00000000000E+00 0.  1.
<scales pt_clust_5="13000.00000" pt_clust_6="13000.00000" pt_clust_7="13000.00000" pt_clust_8="13000.00000" pt_clust_9="24.49622"></scales>
<clustering>
<clus scale="   24.496">  2  9  1 -1</clus>
<clus scale="   83.735">  5  6 -1 -1</clus>
<clus scale="   89.760">  7  8 -1 -1</clus>
<clus scale="  137.208">  1  5  2 -1</clus>
<clus scale="   24.496">  2  5  1 -1</clus>
</clustering>
</event>
<event>
 9    1  0.8429841E-005  0.1068166E+03  0.7546771E-02  0.1271784E+00
          1   -1    0    0  502    0 -0.00000000000E+00  0.00000000000E+00  0.31473252174E+03  0.31473252174E+03  0.00000000000E+00 0. -1.
         21   -1    0    0  501  502  0.00000000000E+00 -0.00000000000E+00 -0.14081098009E+03  0.14081098009E+03  0.00000000000E+00 0.  1.
         23    2    1    2    0    0 -0.53216360210E+02  0.27516043031E+02  0.22576134124E+03  0.25035712194E+03  0.90118764362E+02 0.  0.
        -24    2    1    2    0    0  0.18731301097E+02 -0.31832938348E+02 -0.10864736331E+03  0.13859092821E+03  0.77710991652E+02 0.  0.
         11    1    4    4    0    0 -0.26767430379E+02 -0.23616722431E+02 -0.26984909209E+02  0.44748522126E+02  0.00000000000E+00 0. -1.
        -12    1    4    4    0    0  0.45498731476E+02 -0.82162159171E+01 -0.81662454102E+02  0.93842406086E+02  0.00000000000E+00 0.  1.
        -13    1    3    3    0    0 -0.67231173105E+02  0.46319585078E+02  0.19699225053E+03  0.21324043090E+03  0.00000000000E+00 0.  1.
         13    1    3    3    0    0  0.14014812895E+02 -0.18803542047E+02  0.28769090704E+02  0.37116691042E+02  0.00000000000E+00 0. -1.
          2    1    1    2  501    0  0.34485059113E+02  0.43168953168E+01  0.56807563731E+02  0.66595451678E+02  0.00000000000E+00 0. -1.
<scales pt_clust_5="13000.00000" pt_clust_6="13000.00000" pt_clust_7="13000.00000" pt_clust_8="13000.00000" pt_clust_9="34.75422"></scales>
<clustering>
<clus scale="   34.754">  2  9  1 -1</clus>
<clus scale="   77.711">  5  6 -1 -1</clus>
<clus scale="   90.119">  7  8 -1 -1</clus>
<clus scale="   96.578">  2  5  1 -1</clus>
<clus scale="   34.754">  2  5  1 -1</clus>
</clustering>
</event>
<event>
 9    1  0.8429841E-005  0.8969033E+02  0.7546771E-02  0.1306305E+00
         21   -1    0    0  501  502  0.00000000000E+00  0.00000000000E+00  0.20153710068E+03  0.20153710068E+03  0.00000000000E+00 0. -1.
         -2   -1    0    0    0  501 -0.00000000000E+00 -0.00000000000E+00 -0.62203301367E+02  0.62203301367E+02  0.00000000000E+00 0.  1.
        -24    2    1    2    0    0 -0.12356486967E+02  0.19431301711E+01  0.83285870319E+01  0.86382569472E+02  0.85065412604E+02 0.  0.
         23    2    1    2    0    0 -0.88675641216E+01  0.15845552305E+02  0.10784379445E+03  0.14125590957E+03  0.89404881105E+02 0.  0.
         11    1    3    3    0    0  0.31894995092E+02 -0.10433610199E+02  0.19877921029E+02  0.39003623911E+02  0.00000000000E+00 0. -1.
        -12    1    3    3    0    0 -0.44251482060E+02  0.12376740370E+02 -0.11549333998E+02  0.47378945561E+02  0.00000000000E+00 0.  1.
        -11    1    4    4    0    0  0.39457543872E+02  0.10209124785E+02  0.63335021475E+02  0.75315662000E+02  0.00000000000E+00 0. -1.
         11    1    4    4    0    0 -0.48325107993E+02  0.56364275200E+01  0.44508772979E+02  0.65940247572E+02  0.00000000000E+00 0.  1.
         -1    1    1    2    0  502  0.21224051089E+02 -0.17788682476E+02  0.23161417832E+02  0.36101923008E+02  0.00000000000E+00 0.  1.
<scales pt_clust_5="13000.00000" pt_clust_6="13000.00000" pt_clust_7="13000.00000" pt_clust_8="13000.00000" pt_clust_9="27.69292"></scales>
<clustering>
<clus scale="   27.693">  1  9  2 -1</clus>
<clus scale="   85.065">  5  6 -1 -1</clus>
<clus scale="   85.365">  2  5  1 -1</clus>
<clus scale="   89.405">  7  8 -1 -1</clus>
<clus scale="   27.693">  1  5  2 -1</clus>
</clustering>
</event>
<event>
 9    1  0.8429841E-005  0.2063630E+03  0.7546771E-02  0.1155687E+00
         21   -1    0    0  501  502  0.00000000000E+00  0.00000000000E+00  0.11241794563E+03  0.11241794563E+03  0.00000000000E+00 0. -1.
          1   -1    0    0  502    0 -0.00000000000E+00 -0.00000000000E+00 -0.97617183145E+03  0.97617183145E+03  0.00000000000E+00 0. -1.
        -24    2    1    2    0    0  0.13185438531E+03 -0.34877287270E+02 -0.25787825797E+03  0.30255636790E+03  0.80231887243E+02 0.  0.
         23    2    1    2    0    0  0.29737170397E+02  0.15131432759E+03 -0.55051873999E+03  0.57931185669E+03  0.93546882261E+02 0.  0.
         13    1    3    3    0    0  0.11186235982E+03 -0.39689883203E+02 -0.25566533998E+03  0.28187451186E+03  0.00000000000E+00 0. -1.
        -14    1    3    3    0    0  0.19992025496E+02  0.48125959331E+01 -0.22129179897E+01  0.20681856036E+02  0.00000000000E+00 0.  1.
        -11    1    4    4    0    0  0.67469083843E+01  0.15150752800E+03 -0.41470224250E+03  0.44156313450E+03  0.00000000000E+00 0. -1.
         11    1    4    4    0    0  0.22990262013E+02 -0.19320041389E+00 -0.13581649749E+03  0.13774872219E+03  0.00000000000E+00 0.  1.
          2    1    1    2  501    0 -0.16159155571E+03 -0.11643704032E+03 -0.55356887862E+02  0.20672155250E+03  0.00000000000E+00 0. -1.
<scales pt_clust_5="13000.00000" pt_clust_6="13000.00000" pt_clust_7="13000.00000" pt_clust_8="13000.00000" pt_clust_9="183.94202"></scales>
<clustering>
<clus scale="   80.232">  5  6 -1 -1</clus>
<clus scale="   93.547">  7  8 -1 -1</clus>
<clus scale="  158.238">  2  5  1 -1</clus>
<clus scale="  183.942">  1  9  2 -1</clus>
<clus scale="  183.942">  1  5  2 -1</clus>
</clustering>
</event>
<event>
 9    1  0.8429841E-005  0.1580719E+03  0.7546771E-02  0.1204046E+00
         -2   -1    0    0    0  501 -0.00000000000E+00  0.00000000000E+00  0.58573106426E+03  0.58573106426E+03  0.00000000000E+00 0.  1.
         21   -1    0    0  501  502  0.00000000000E+00 -0.00000000000E+00 -0.87820445496E+02  0.87820445496E+02  0.00000000000E+00 0.  1.
         23    2    1    2    0    0 -0.74094749100E+02 -0.15572758849E+02  0.19596220124E+03  0.22907765984E+03  0.91339187980E+02 0.  0.
        -24    2    1    2    0    0 -0.20145833099E+02  0.13338807326E+03  0.80731086218E+02  0.17670745301E+03  0.80683226185E+02 0.  0.
         13    1    4    4    0    0  0.87304035026E+01  0.10770162118E+03  0.85468650442E+02  0.13777064041E+03  0.00000000000E+00 0. -1.
        -14    1    4    4    0    0 -0.28876236601E+02  0.25686452080E+02 -0.47375642238E+01  0.38936812600E+02  0.00000000000E+00 0.  1.
        -13    1    3    3    0    0 -0.92276094247E+02 -0.24239413921E+02  0.13843934385E+03  0.16813054060E+03  0.00000000000E+00 0. -1.
         13    1    3    3    0    0  0.18181345147E+02  0.86666550726E+01  0.57522857388E+02  0.60947119240E+02  0.00000000000E+00 0.  1.
         -1    1    1    2    0  502  0.94240582199E+02 -0.11781531441E+03  0.22121733130E+03  0.26776639690E+03  0.00000000000E+00 0.  1.
<scales pt_clust_5="13000.00000" pt_clust_6="13000.00000" pt_clust_7="13000.00000" pt_clust_8="13000.00000" pt_clust_9="135.92998"></scales>
<clustering>
<clus scale="   80.683">  5  6 -1 -1</clus>
<clus scale="   91.339">  7  8 -1 -1</clus>
<clus scale="  118.640">  1  7  2 -1</clus>
<clus scale="  135.930">  2  9  1 -1</clus>
<clus scale="  135.930">  2  5  1 -1</clus>
</clustering>
</event>
<event>
 9    1  0.8429841E-005  0.9510828E+02  0.7546771E-02  0.1297450E+00
         21   -1    0    0  501  502  0.00000000000E+00  0.00000000000E+00  0.19941957148E+03  0.19941957148E+03  0.00000000000E+00 0. -1.
          1   -1    0    0  502    0 -0.00000000000E+00 -0.00000000000E+00 -0.12044351487E+03  0.12044351487E+03  0.00000000000E+00 0. -1.
         23    2    1    2    0    0 -0.19579334296E+01 -0.29540232573E+02 -0.64437510691E+02  0.11643405375E+03  0.92348455556E+02 0.  0.
        -24    2    1    2    0    0 -0.35551598376E+02 -0.43090547101E+01  0.64194783632E+02  0.10946970678E+03  0.81118199908E+02 0.  0.
         13    1    4    4    0    0 -0.25104822978E+02 -0.24435341575E+02 -0.61422346067E+01  0.35567753662E+02  0.00000000000E+00 0. -1.
        -14    1    4    4    0    0 -0.10446775399E+02  0.20126286865E+02  0.70337018239E+02  0.73901953113E+02  0.00000000000E+00 0.  1.
        -11    1    3    3    0    0  0.39542269475E+02 -0.27896950624E+02 -0.12591402620E+02  0.50003743353E+02  0.00000000000E+00 0. -1.
         11    1    3    3    0    0 -0.41500202905E+02 -0.16432819495E+01 -0.51846108071E+02  0.66430310392E+02  0.00000000000E+00 0.  1.
          2    1    1    2  501    0  0.37509531806E+02  0.33849287283E+02  0.79218783663E+02  0.93959325833E+02  0.00000000000E+00 0. -1.
<scales pt_clust_5="13000.00000" pt_clust_6="13000.00000" pt_clust_7="13000.00000" pt_clust_8="13000.00000" pt_clust_9="50.52464"></scales>
<clustering>
<clus scale="   50.525">  1  9  2 -1</clus>
<clus scale="   81.118">  5  6 -1 -1</clus>
<clus scale="   84.247">  1  5  2 -1</clus>
<clus scale="   92.348">  7  8 -1 -1</clus>
<clus scale="   50.525">  1  5  2 -1</clus>
</clustering>
</event>
<event>
 9    1  0.8429841E-005  0.2661503E+03  0.7546771E-02  0.1104706E+00
         21   -1    0    0  501  502  0.00000000000E+00  0.00000000000E+00  0.38346578579E+03  0.38346578579E+03  0.00000000000E+00 0.  1.
         -4   -1    0    0    0  501 -0.00000000000E+00 -0.00000000000E+00 -0.25229369996E+03  0.25229369996E+03  0.00000000000E+00 0.  1.
         23    2    1    2    0    0 -0.17491111767E+03  0.20547938555E+03 -0.56960449872E+02  0.29074312322E+03  0.92040175355E+02 0.  0.
        -24    2    1    2    0    0  0.12630493967E+03 -0.16825661130E+03  0.17762467355E+03  0.28289945156E+03  0.64948826066E+02 0.  0.
         11    1    4    4    0    0  0.31813712951E+02 -0.19368832903E+02  0.77468754473E+01  0.38043108429E+02  0.00000000000E+00 0. -1.
        -12    1    4    4    0    0  0.94491226724E+02 -0.14888777840E+03  0.16987779810E+03  0.24485634313E+03  0.00000000000E+00 0.  1.
        -13    1    3    3    0    0 -0.57677032193E+02  0.35117446618E+02  0.19456781588E+02  0.70274045346E+02  0.00000000000E+00 0. -1.
         13    1    3    3    0    0 -0.11723408548E+03  0.17036193893E+03 -0.76417231460E+02  0.22046907787E+03  0.00000000000E+00 0.  1.
         -3    1    1    2    0  502  0.48606177993E+02 -0.37222774247E+02  0.10507862144E+02  0.62116910971E+02  0.00000000000E+00 0.  1.
<scales pt_clust_5="13000.00000" pt_clust_6="13000.00000" pt_clust_7="13000.00000" pt_clust_8="13000.00000" pt_clust_9="61.22172"></scales>
<clustering>
<clus scale="   61.222">  1  9  2 -1</clus>
<clus scale="   64.949">  5  6 -1 -1</clus>
<clus scale="   92.040">  7  8 -1 -1</clus>
<clus scale="  258.037">  1  5  2 -1</clus>
<clus scale="   61.222">  1  5  2 -1</clus>
</clustering>
</event>
<event>
 9    1  0.8429841E-005  0.1122822E+03  0.7546771E-02  0.1260019E+00
          3   -1    0    0  502    0 -0.00000000000E+00  0.00000000000E+00  0.45601640846E+03  0.45601640846E+03  0.00000000000E+00 0. -1.
         21   -1    0    0  501  502  0.00000000000E+00 -0.00000000000E+00 -0.11262980647E+03  0.11262980647E+03  0.00000000000E+00 0. -1.
        -24    2    1    2    0    0  0.49197492299E+02 -0.58255991115E+02  0.11198763835E+03  0.15784070189E+03  0.80983345701E+02 0.  0.
         23    2    1    2    0    0  0.51677929843E+01  0.38967343813E+02 -0.58717298135E+02  0.11500983777E+03  0.90743494067E+02 0.  0.
         11    1    3    3    0    0  0.43212354409E+02  0.79128385779E+01  0.35149284317E+02  0.56261823432E+02  0.00000000000E+00 0. -1.
        -12    1    3    3    0    0  0.59851378901E+01 -0.66168829693E+02  0.76838354035E+02  0.10157887846E+03  0.00000000000E+00 0.  1.
        -13    1    4    4    0    0 -0.40708917723E+02  0.20647887239E+02 -0.44158409758E+02  0.63509970729E+02  0.00000000000E+00 0. -1.
         13    1    4    4    0    0  0.45876710708E+02  0.18319456574E+02 -0.14558888377E+02  0.51499867042E+02  0.00000000000E+00 0.  1.
          4    1    1    2  501    0 -0.54365285283E+02  0.19288647301E+02  0.29011626177E+03  0.29579567526E+03  0.00000000000E+00 0. -1.
<scales pt_clust_5="13000.00000" pt_clust_6="13000.00000" pt_clust_7="13000.00000" pt_clust_8="13000.00000" pt_clust_9="57.68570"></scales>
<clustering>
<clus scale="   57.686">  2  9  1 -1</clus>
<clus scale="   80.983">  5  6 -1 -1</clus>
<clus scale="   90.743">  7  8 -1 -1</clus>
<clus scale="  104.552">  1  5  2 -1</clus>
<clus scale="   57.686">  2  5  1 -1</clus>
</clustering>
</event>
<event>
 9    1  0.8429841E-005  0.1275309E+03  0.7546771E-02  0.1234517E+00
         21   -1    0    0  501  502  0.00000000000E+00  0.00000000000E+00  0.48640072592E+02  0.48640072592E+02  0.00000000000E+00 0.  1.
          1   -1    0    0  502    0 -0.00000000000E+00 -0.00000000000E+00 -0.42538928661E+03  0.42538928661E+03  0.00000000000E+00 0. -1.
         23    2    1    2    0    0  0.66118253357E+02 -0.64868839233E+02 -0.24354329254E+03  0.27591609468E+03  0.90756631897E+02 0.  0.
        -24    2    1    2    0    0 -0.44556712227E+02  0.74812615298E+02 -0.12852781639E+03  0.17391278094E+03  0.78383848947E+02 0.  0.
         11    1    4    4    0    0 -0.56250372234E+01  0.43149069192E+02 -0.11345860218E+03  0.12151682034E+03  0.00000000000E+00 0. -1.
        -12    1    4    4    0    0 -0.38931675003E+02  0.31663546107E+02 -0.15069214210E+02  0.52395960603E+02  0.00000000000E+00 0.  1.
        -13    1    3    3    0    0  0.10873461074E+02  0.19196584958E+02 -0.16384439617E+02  0.27480736732E+02  0.00000000000E+00 0.  1.
         13    1    3    3    0    0  0.55244792284E+02 -0.84065424191E+02 -0.22715885292E+03  0.24843535795E+03  0.00000000000E+00 0. -1.
          2    1    1    2  501    0 -0.21561541131E+02 -0.99437760655E+01 -0.46781050886E+01  0.24200483582E+02  0.00000000000E+00 0. -1.
<scales pt_clust_5="13000.00000" pt_clust_6="13000.00000" pt_clust_7="13000.00000" pt_clust_8="13000.00000" pt_clust_9="23.74403"></scales>
<clustering>
<clus scale="   23.744">  1  9  2 -1</clus>
<clus scale="   78.384">  5  6 -1 -1</clus>
<clus scale="   90.757">  7  8 -1 -1</clus>
<clus scale="  119.044">  1  5  2 -1</clus>
<clus scale="   23.744">  1  5  2 -1</clus>
</clustering>
</event>
<event>
 9    1  0.8429841E-005  0.1016121E+03  0.7546771E-02  0.1279934E+00
         21   -1    0    0  501  502  0.00000000000E+00  0.00000000000E+00  0.69713777964E+02  0.69713777964E+02  0.00000000000E+00 0.  1.
          1   -1    0    0  502    0 -0.00000000000E+00 -0.00000000000E+00 -0.47160222935E+03  0.47160222935E+03  0.00000000000E+00 0. -1.
        -24    2    1    2    0    0  0.37821839262E+02 -0.28285688354E+02 -0.27592985813E+03  0.29241029537E+03  0.84474389857E+02 0.  0.
         23    2    1    2    0    0 -0.17165675941E+02  0.31974010694E+02  0.21347197761E+02  0.10011298069E+03  0.90829005615E+02 0.  0.
         11    1    3    3    0    0 -0.24180459623E+02  0.65300606980E+01 -0.87321072926E+02  0.90842204384E+02  0.00000000000E+00 0. -1.
        -12    1    3    3    0    0  0.62002298885E+02 -0.34815749052E+02 -0.18860878520E+03  0.20156809099E+03  0.00000000000E+00 0.  1.
        -13    1    4    4    0    0  0.27127275235E+02  0.42435664912E+02  0.21084257510E+02  0.54600555244E+02  0.00000000000E+00 0. -1.
         13    1    4    4    0    0 -0.44292951176E+02 -0.10461654218E+02  0.26294025048E+00  0.45512425451E+02  0.00000000000E+00 0.  1.
          2    1    1    2  501    0 -0.20656163321E+02 -0.36883223400E+01 -0.14730579102E+03  0.14879273125E+03  0.00000000000E+00 0. -1.
<scales pt_clust_5="13000.00000" pt_clust_6="13000.00000" pt_clust_7="13000.00000" pt_clust_8="13000.00000" pt_clust_9="20.98288"></scales>
<clustering>
<clus scale="   20.983">  1  9  2 -1</clus>
<clus scale="   84.474">  5  6 -1 -1</clus>
<clus scale="   90.829">  7  8 -1 -1</clus>
<clus scale="   95.974">  2  5  1 -1</clus>
<clus scale="   20.983">  1  5  2 -1</clus>
</clustering>
</event>
<event>
 9    1  0.8429841E-005  0.1178358E+03  0.7546771E-02  0.1252514E+00
         21   -1    0    0  501  502  0.00000000000E+00  0.00000000000E+00  0.24298488757E+03  0.24298488757E+03  0.00000000000E+00 0.  1.
         -4   -1    0    0    0  501 -0.00000000000E+00 -0.00000000000E+00 -0.43684679355E+03  0.43684679355E+03  0.00000000000E+00 0.  1.
         23    2    1    2    0    0  0.76095310280E+02 -0.17769832193E+02 -0.40404735257E+03  0.42164243536E+03  0.91770458159E+02 0.  0.
        -24    2    1    2    0    0 -0.31970102075E+02 -0.19929876182E+02  0.79803877746E+02  0.11547395048E+03  0.74473397564E+02 0.  0.
         11    1    4    4    0    0 -0.23850427615E+02  0.26848539569E+02  0.32036958348E+02  0.48125395319E+02  0.00000000000E+00 0. -1.
        -12    1    4    4    0    0 -0.81196744598E+01 -0.46778415751E+02  0.47766919398E+02  0.67348555161E+02  0.00000000000E+00 0.  1.
        -11    1    3    3    0    0 -0.17685490677E+02 -0.19598797930E+02 -0.76343644119E+02  0.80778966682E+02  0.00000000000E+00 0. -1.
         11    1    3    3    0    0  0.93780800957E+02  0.18289657365E+01 -0.32770370845E+03  0.34086346868E+03  0.00000000000E+00 0.  1.
         -3    1    1    2    0  502 -0.44125208205E+02  0.37699708375E+02  0.13038156886E+03  0.14271529528E+03  0.00000000000E+00 0.  1.
<scales pt_clust_5="13000.00000" pt_clust_6="13000.00000" pt_clust_7="13000.00000" pt_clust_8="13000.00000" pt_clust_9="58.03707"></scales>
<clustering>
<clus scale="   58.037">  1  9  2 -1</clus>
<clus scale="   74.473">  5  6 -1 -1</clus>
<clus scale="   91.770">  7  8 -1 -1</clus>
<clus scale="  104.927">  1  5  2 -1</clus>
<clus scale="   58.037">  1  5  2 -1</clus>
</clustering>
</event>
<event>
 9    1  0.8429841E-005  0.1708703E+03  0.7546771E-02  0.1178607E+00
          1   -1    0    0  502    0 -0.00000000000E+00  0.00000000000E+00  0.11950599945E+03  0.11950599945E+03  0.00000000000E+00 0. -1.
         21   -1    0    0  501  502  0.00000000000E+00 -0.00000000000E+00 -0.51503241163E+03  0.51503241163E+03  0.00000000000E+00 0.  1.
         23    2    1    2    0    0  0.12408193698E+03 -0.78408443679E+02  0.12234722846E+02  0.17386423783E+03  0.92384379779E+02 0.  0.
        -24    2    1    2    0    0 -0.90185412276E+02  0.10488433688E+03 -0.24670426526E+03  0.29397305566E+03  0.80143809759E+02 0.  0.
         13    1    4    4    0    0  0.56755842842E+01  0.47488902115E+02 -0.82517757388E+02  0.95376036642E+02  0.00000000000E+00 0. -1.
        -14    1    4    4    0    0 -0.95860996560E+02  0.57395434764E+02 -0.16418650788E+03  0.19859701902E+03  0.00000000000E+00 0.  1.
        -13    1    3    3    0    0  0.26479087081E+02 -0.31184719783E+02 -0.36650867762E+02  0.54926449987E+02  0.00000000000E+00 0.  1.
         13    1    3    3    0    0  0.97602849903E+02 -0.47223723897E+02  0.48885590607E+02  0.11893778784E+03  0.00000000000E+00 0. -1.
          2    1    1    2  501    0 -0.33896524707E+02 -0.26475893200E+02 -0.16105686977E+03  0.16670111760E+03  0.00000000000E+00 0. -1.
<scales pt_clust_5="13000.00000" pt_clust_6="13000.00000" pt_clust_7="13000.00000" pt_clust_8="13000.00000" pt_clust_9="43.01101"></scales>
<clustering>
<clus scale="   43.011">  2  9  1 -1</clus>
<clus scale="   80.144">  5  6 -1 -1</clus>
<clus scale="   92.384">  7  8 -1 -1</clus>
<clus scale="  164.575">  2  5  1 -1</clus>
<clus scale="   43.011">  2  5  1 -1</clus>
</clustering>
</event>
<event>
 9    1  0.8429841E-005  0.2431364E+03  0.7546771E-02  0.1131180E+00
          1   -1    0    0  502    0 -0.00000000000E+00  0.00000000000E+00  0.47264244387E+03  0.47264244387E+03  0.00000000000E+00 0. -1.
         21   -1    0    0  501  502  0.00000000000E+00 -0.00000000000E+00 -0.29685476753E+03  0.29685476753E+03  0.00000000000E+00 0. -1.
        -24    2    1    2    0    0 -0.13456150300E+03 -0.71798085878E+02  0.12911039759E+03  0.21676140539E+03  0.83989576012E+02 0.  0.
         23    2    1    2    0    0  0.58014029502E+02 -0.20307882085E+03 -0.74223751467E+02  0.24284245554E+03  0.94109817947E+02 0.  0.
         13    1    3    3    0    0 -0.13214635081E+03 -0.35689270178E+02  0.91993165830E+02  0.16492157105E+03  0.00000000000E+00 0. -1.
        -14    1    3    3    0    0 -0.24151521859E+01 -0.36108815700E+02  0.37117231761E+02  0.51839834345E+02  0.00000000000E+00 0.  1.
        -11    1    4    4    0    0  0.71171570442E+02 -0.16730769281E+03 -0.29688749194E+02  0.18422453241E+03  0.00000000000E+00 0. -1.
         11    1    4    4    0    0 -0.13157540940E+02 -0.35771128043E+02 -0.44535002273E+02  0.58617923134E+02  0.00000000000E+00 0.  1.
          2    1    1    2  501    0  0.76547473493E+02  0.27487690673E+03  0.12090103022E+03  0.30989335046E+03  0.00000000000E+00 0. -1.
<scales pt_clust_5="13000.00000" pt_clust_6="13000.00000" pt_clust_7="13000.00000" pt_clust_8="13000.00000" pt_clust_9="224.18458"></scales>
<clustering>
<clus scale="   83.990">  5  6 -1 -1</clus>
<clus scale="   94.110">  7  8 -1 -1</clus>
<clus scale="  174.115">  1  5  2 -1</clus>
<clus scale="  224.185">  2  9  1 -1</clus>
<clus scale="  224.185">  2  5  1 -1</clus>
</clustering>
</event>
<event>
 9    1  0.8429841E-005  0.9584702E+02  0.7546771E-02  0.1295762E+00
         21   -1    0    0  501  502  0.00000000000E+00  0.00000000000E+00  0.15348203056E+03  0.15348203056E+03  0.00000000000E+00 0. -1.
         -2   -1    0    0    0  501 -0.00000000000E+00 -0.00000000000E+00 -0.16454486446E+03  0.16454486446E+03  0.00000000000E+00 0.  1.
         23    2    1    2    0    0  0.26982971179E+01 -0.30201610698E+02  0.23378478342E+02  0.10087007923E+03  0.93320959796E+02 0.  0.
        -24    2    1    2    0    0 -0.44726699950E+02 -0.26984154530E+02  0.47913490191E+02  0.10844199677E+03  0.82069128407E+02 0.  0.
         11    1    4    4    0    0 -0.64079723485E+02 -0.31565428829E+02  0.20020544118E+02  0.74184967789E+02  0.00000000000E+00 0. -1.
        -12    1    4    4    0    0  0.19353023534E+02  0.45812742989E+01  0.27892946074E+02  0.34257028984E+02  0.00000000000E+00 0.  1.
        -11    1    3    3    0    0  0.21662764406E+02  0.10380576199E+02  0.45091129083E+02  0.51090524033E+02  0.00000000000E+00 0. -1.
         11    1    3    3    0    0 -0.18964467288E+02 -0.40582186898E+02 -0.21712650742E+02  0.49779555192E+02  0.00000000000E+00 0.  1.
         -1    1    1    2    0  502  0.42028402833E+02  0.57185765229E+02 -0.82354802434E+02  0.10871481901E+03  0.00000000000E+00 0.  1.
<scales pt_clust_5="13000.00000" pt_clust_6="13000.00000" pt_clust_7="13000.00000" pt_clust_8="13000.00000" pt_clust_9="70.96903"></scales>
<clustering>
<clus scale="   70.969">  1  9  2 -1</clus>
<clus scale="   82.069">  5  6 -1 -1</clus>
<clus scale="   84.931">  1  5  2 -1</clus>
<clus scale="   93.321">  7  8 -1 -1</clus>
<clus scale="   70.969">  1  5  2 -1</clus>
</clustering>
</event>
<event>
 9    1  0.8429841E-005  0.1020392E+03  0.7546771E-02  0.1281746E+00
         21   -1    0    0  501  502  0.00000000000E+00  0.00000000000E+00  0.22504930691E+03  0.22504930691E+03  0.00000000000E+00 0.  1.
          3   -1    0    0  502    0 -0.00000000000E+00 -0.00000000000E+00 -0.67701870518E+02  0.67701870518E+02  0.00000000000E+00 0. -1.
         23    2    1    2    0    0 -0.18325609089E+02  0.49240039876E+02  0.48644264798E+01  0.10539043620E+03  0.91230871545E+02 0.  0.
        -24    2    1    2    0    0  0.14665709873E+02 -0.25332765472E+02  0.12205505040E+03  0.14849155867E+03  0.79344033284E+02 0.  0.
         11    1    4    4    0    0 -0.28977474900E+02 -0.21658533458E+02  0.31781574918E+02  0.48154487096E+02  0.00000000000E+00 0. -1.
        -12    1    4    4    0    0  0.43643184773E+02 -0.36742320132E+01  0.90273475479E+02  0.10033707158E+03  0.00000000000E+00 0.  1.
        -11    1    3    3    0    0  0.41869366414E+01  0.49057841148E+02  0.40152175005E+02  0.63532663837E+02  0.00000000000E+00 0.  1.
         11    1    3    3    0    0 -0.22512545731E+02  0.18219872769E+00 -0.35287748525E+02  0.41857772368E+02  0.00000000000E+00 0. -1.
          4    1    1    2  501    0  0.36598992160E+01 -0.23907274404E+02  0.30427959518E+02  0.38869182551E+02  0.00000000000E+00 0. -1.
<scales pt_clust_5="13000.00000" pt_clust_6="13000.00000" pt_clust_7="13000.00000" pt_clust_8="13000.00000" pt_clust_9="24.18579"></scales>
<clustering>
<clus scale="   24.186">  1  9  2 -1</clus>
<clus scale="   79.344">  5  6 -1 -1</clus>
<clus scale="   91.231">  7  8 -1 -1</clus>
<clus scale="   91.566">  1  5  2 -1</clus>
<clus scale="   24.186">  1  5  2 -1</clus>
</clustering>
</event>
<event>
 9    1  0.8429841E-005  0.2776674E+03  0.7546771E-02  0.1110861E+00
          1   -1    0    0  502    0 -0.00000000000E+00  0.00000000000E+00  0.10240453416E+04  0.10240453416E+04  0.00000000000E+00 0. -1.
         21   -1    0    0  501  502  0.00000000000E+00 -0.00000000000E+00 -0.22533068807E+03  0.22533068807E+03  0.00000000000E+00 0. -1.
         23    2    1    2    0    0 -0.70534691205E+02 -0.15745067550E+03  0.43244549203E+03  0.47402533407E+03  0.89022782949E+02 0.  0.
        -24    2    1    2    0    0  0.16936983643E+03 -0.11536645198E+03  0.42553060671E+03  0.47919281562E+03  0.80956145945E+02 0.  0.
         11    1    4    4    0    0  0.33546182386E+02 -0.38559249498E+02  0.18932138705E+03  0.19609882628E+03  0.00000000000E+00 0. -1.
        -12    1    4    4    0    0  0.13582365404E+03 -0.76807202479E+02  0.23620921966E+03  0.28309398934E+03  0.00000000000E+00 0.  1.
        -11    1    3    3    0    0 -0.64148851863E+02 -0.10109717242E+03  0.18650179347E+03  0.22162723757E+03  0.00000000000E+00 0. -1.
         11    1    3    3    0    0 -0.63858393420E+01 -0.56353503076E+02  0.24594369856E+03  0.25239809649E+03  0.00000000000E+00 0.  1.
          2    1    1    2  501    0 -0.98835145221E+02  0.27281712747E+03 -0.59261445228E+02  0.29615787996E+03  0.00000000000E+00 0. -1.
<scales pt_clust_5="13000.00000" pt_clust_6="13000.00000" pt_clust_7="13000.00000" pt_clust_8="13000.00000" pt_clust_9="265.60366"></scales>
<clustering>
<clus scale="   80.956">  5  6 -1 -1</clus>
<clus scale="   89.023">  7  8 -1 -1</clus>
<clus scale="  194.141">  1  7  2 -1</clus>
<clus scale="  265.604">  2  9  1 -1</clus>
<clus scale="  265.604">  2  5  1 -1</clus>
</clustering>
</event>
<event>
 9    1  0.8429841E-005  0.9435163E+02  0.7546771E-02  0.1299450E+00
         21   -1    0    0  501  502  0.00000000000E+00  0.00000000000E+00  0.47360763820E+03  0.47360763820E+03  0.00000000000E+00 0. -1.
          3   -1    0    0  502    0 -0.00000000000E+00 -0.00000000000E+00 -0.69715188460E+02  0.69715188460E+02  0.00000000000E+00 0. -1.
         23    2    1    2    0    0  0.15027812995E+02 -0.21994300836E+02 -0.88215022333E+01  0.96377363754E+02  0.92201913808E+02 0.  0.
        -24    2    1    2    0    0  0.55887172218E+02  0.77564842246E+01  0.21723212158E+03  0.23851130888E+03  0.80711280209E+02 0.  0.
         11    1    4    4    0    0  0.54555061645E+02 -0.28937523048E+02  0.13508438888E+03  0.14853089614E+03  0.00000000000E+00 0. -1.
        -12    1    4    4    0    0  0.13321105723E+01  0.36694007273E+02  0.82147732706E+02  0.89980412741E+02  0.00000000000E+00 0.  1.
        -13    1    3    3    0    0  0.12995898184E+02  0.25480293465E+02  0.25051050967E+02  0.38022281352E+02  0.00000000000E+00 0.  1.
         13    1    3    3    0    0  0.20319148111E+01 -0.47474594301E+02 -0.33872553200E+02  0.58355082402E+02  0.00000000000E+00 0. -1.
          4    1    1    2  501    0 -0.70914985213E+02  0.14237816611E+02  0.19548183040E+03  0.20843415403E+03  0.00000000000E+00 0. -1.
<scales pt_clust_5="13000.00000" pt_clust_6="13000.00000" pt_clust_7="13000.00000" pt_clust_8="13000.00000" pt_clust_9="72.33015"></scales>
<clustering>
<clus scale="   72.330">  1  9  2 -1</clus>
<clus scale="   80.711">  5  6 -1 -1</clus>
<clus scale="   83.159">  1  5  2 -1</clus>
<clus scale="   92.202">  7  8 -1 -1</clus>
<clus scale="   72.330">  1  5  2 -1</clus>
</clustering>
</event>
<event>
 9    1  0.8429841E-005  0.1306439E+03  0.7546771E-02  0.1242810E+00
          1   -1    0    0  502    0 -0.00000000000E+00  0.00000000000E+00  0.92295170145E+03  0.92295170145E+03  0.00000000000E+00 0. -1.
         21   -1    0    0  501  502  0.00000000000E+00 -0.00000000000E+00 -0.39316381026E+02  0.39316381026E+02  0.00000000000E+00 0.  1.
        -24    2    1    2    0    0 -0.45349347532E+02 -0.14864999234E+02  0.70181917589E+02  0.11693807725E+03  0.80445514670E+02 0.  0.
         23    2    1    2    0    0 -0.68950046414E+02  0.55284466008E+01  0.43774348380E+03  0.45250756960E+03  0.91427951480E+02 0.  0.
         11    1    3    3    0    0 -0.23812526365E+02  0.26670880817E+02  0.58749585572E+02  0.68774167391E+02  0.00000000000E+00 0. -1.
        -12    1    3    3    0    0 -0.21536821168E+02 -0.41535880050E+02  0.11432332017E+02  0.48163909859E+02  0.00000000000E+00 0.  1.
        -13    1    4    4    0    0  0.92096160621E+01  0.31057715339E+02  0.12830244922E+03  0.13232882220E+03  0.00000000000E+00 0. -1.
         13    1    4    4    0    0 -0.78159662476E+02 -0.25529268739E+02  0.30944103459E+03  0.32017874740E+03  0.00000000000E+00 0.  1.
          2    1    1    2  501    0  0.11429939395E+03  0.93365526327E+01  0.37570991903E+03  0.39282243562E+03  0.00000000000E+00 0. -1.
<scales pt_clust_5="13000.00000" pt_clust_6="13000.00000" pt_clust_7="13000.00000" pt_clust_8="13000.00000" pt_clust_9="93.32075"></scales>
<clustering>
<clus scale="   80.446">  5  6 -1 -1</clus>
<clus scale="   91.428">  7  8 -1 -1</clus>
<clus scale="   93.536">  1  5  2 -1</clus>
<clus scale="   93.321">  2  9  1 -1</clus>
<clus scale="   93.321">  2  5  1 -1</clus>
</clustering>
</event>
<event>
 9    1  0.8429841E-005  0.1376072E+03  0.7546771E-02  0.1218283E+00
          1   -1    0    0  502    0 -0.00000000000E+00  0.00000000000E+00  0.81915447056E+02  0.81915447056E+02  0.00000000000E+00 0. -1.
         21   -1    0    0  501  502  0.00000000000E+00 -0.00000000000E+00 -0.45732146487E+03  0.45732146487E+03  0.00000000000E+00 0.  1.
        -24    2    1    2    0    0  0.62417058098E+02 -0.83608843176E+02 -0.77440119302E+01  0.13189274835E+03  0.80308153676E+02 0.  0.
         23    2    1    2    0    0 -0.87885976598E+02  0.72706849168E+02 -0.27288090540E+03  0.30859713176E+03  0.88079341526E+02 0.  0.
         11    1    3    3    0    0  0.54468100823E+02 -0.13258471628E+02  0.14094150194E+02  0.57803167273E+02  0.00000000000E+00 0. -1.
        -12    1    3    3    0    0  0.79489572752E+01 -0.70350371548E+02 -0.21838162124E+02  0.74089581074E+02  0.00000000000E+00 0.  1.
        -13    1    4    4    0    0 -0.40137564475E+02 -0.96777125192E+01 -0.42211495957E+02  0.59046529047E+02  0.00000000000E+00 0. -1.
         13    1    4    4    0    0 -0.47748412123E+02  0.82384561687E+02 -0.23066940944E+03  0.24955060272E+03  0.00000000000E+00 0.  1.
          2    1    1    2  501    0  0.25468918500E+02  0.10901994008E+02 -0.94781100491E+02  0.98747031820E+02  0.00000000000E+00 0. -1.
<scales pt_clust_5="13000.00000" pt_clust_6="13000.00000" pt_clust_7="13000.00000" pt_clust_8="13000.00000" pt_clust_9="27.70414"></scales>
<clustering>
<clus scale="   27.704">  2  9  1 -1</clus>
<clus scale="   80.308">  5  6 -1 -1</clus>
<clus scale="   88.079">  7  8 -1 -1</clus>
<clus scale="  132.767">  1  5  2 -1</clus>
<clus scale="   27.704">  2  5  1 -1</clus>
</clustering>
</event>
<event>
 9    1  0.8429841E-005  0.8906268E+02  0.7546771E-02  0.1310757E+00
         -2   -1    0    0    0  501 -0.00000000000E+00  0.00000000000E+00  0.92379999130E+02  0.92379999130E+02  0.00000000000E+00 0.  1.
         21   -1    0    0  501  502  0.00000000000E+00 -0.00000000000E+00 -0.19920942386E+03  0.19920942386E+03  0.00000000000E+00 0.  1.
        -24    2    1    2    0    0  0.26967412713E+02 -0.12450738828E+01  0.20171333631E+02  0.85572179477E+02  0.78656999959E+02 0.  0.
         23    2    1    2    0    0  0.20618027093E+02 -0.37282255894E+02 -0.56049972870E+02  0.11230095260E+03  0.87491913052E+02 0.  0.
         11    1    3    3    0    0  0.51303897014E+01 -0.28522122674E+02  0.36828729622E+02  0.46863500786E+02  0.00000000000E+00 0. -1.
        -12    1    3    3    0    0  0.21837023012E+02  0.27277048792E+02 -0.16657395991E+02  0.38708678691E+02  0.00000000000E+00 0.  1.
        -11    1    4    4    0    0  0.19960725892E+02 -0.64534842676E+02 -0.27815244199E+02  0.73053845260E+02  0.00000000000E+00 0.  1.
         11    1    4    4    0    0  0.65730120119E+00  0.27252586782E+02 -0.28234728671E+02  0.39247107337E+02  0.00000000000E+00 0. -1.
         -1    1    1    2    0  502 -0.47585439807E+02  0.38527329777E+02 -0.70950785488E+02  0.93716290914E+02  0.00000000000E+00 0.  1.
<scales pt_clust_5="13000.00000" pt_clust_6="13000.00000" pt_clust_7="13000.00000" pt_clust_8="13000.00000" pt_clust_9="61.22687"></scales>
<clustering>
<clus scale="   61.227">  2  9  1 -1</clus>
<clus scale="   78.657">  5  6 -1 -1</clus>
<clus scale="   80.401">  1  5  2 -1</clus>
<clus scale="   87.492">  7  8 -1 -1</clus>
<clus scale="   61.227">  2  5  1 -1</clus>
</clustering>
</event>
<event>
 9    1  0.8429841E-005  0.1253149E+03  0.7546771E-02  0.1238058E+00
         21   -1    0    0  501  502  0.00000000000E+00  0.00000000000E+00  0.44144507006E+02  0.44144507006E+02  0.00000000000E+00 0.  1.
          1   -1    0    0  502    0 -0.00000000000E+00 -0.00000000000E+00 -0.59203744306E+03  0.59203744306E+03  0.00000000000E+00 0. -1.
        -24    2    1    2    0    0 -0.39795040682E+01  0.85509918249E+02 -0.32460083336E+03  0.34518307780E+03  0.80360896010E+02 0.  0.
         23    2    1    2    0    0 -0.20783883798E+02 -0.82803932995E+02 -0.23256897270E+03  0.26441677205E+03  0.92409096603E+02 0.  0.
         11    1    3    3    0    0  0.21514940616E+02  0.41073709014E+02 -0.25257668548E+03  0.25679743824E+03  0.00000000000E+00 0. -1.
        -12    1    3    3    0    0 -0.25494444684E+02  0.44436209235E+02 -0.72024147885E+02  0.88385639555E+02  0.00000000000E+00 0.  1.
        -13    1    4    4    0    0 -0.57495297293E+02 -0.53825514069E+02 -0.13725806838E+03  0.15824876780E+03  0.00000000000E+00 0.  1.
         13    1    4    4    0    0  0.36711413495E+02 -0.28978418925E+02 -0.95310904321E+02  0.10616800425E+03  0.00000000000E+00 0. -1.
          2    1    1    2  501    0  0.24763387866E+02 -0.27059852542E+01  0.92768700068E+01  0.26582100216E+02  0.00000000000E+00 0. -1.
<scales pt_clust_5="13000.00000" pt_clust_6="13000.00000" pt_clust_7="13000.00000" pt_clust_8="13000.00000" pt_clust_9="24.91080"></scales>
<clustering>
<clus scale="   24.911">  1  9  2 -1</clus>
<clus scale="   80.361">  5  6 -1 -1</clus>
<clus scale="   92.409">  7  8 -1 -1</clus>
<clus scale="  116.714">  2  5  1 -1</clus>
<clus scale="   24.911">  1  5  2 -1</clus>
</clustering>
</event>
<event>
 9    1  0.8429841E-005  0.1099864E+03  0.7546771E-02  0.1264150E+00
          1   -1    0    0  502    0 -0.00000000000E+00  0.00000000000E+00  0.40167893191E+02  0.40167893191E+02  0.00000000000E+00 0. -1.
         21   -1    0    0  501  502  0.00000000000E+00 -0.00000000000E+00 -0.10238442288E+04  0.10238442288E+04  0.00000000000E+00 0. -1.
         23    2    1    2    0    0 -0.28751668903E+02 -0.41932106997E+02 -0.27637963201E+03  0.29523966155E+03  0.90530639588E+02 0.  0.
        -24    2    1    2    0    0  0.68200764626E+02  0.63204110829E+02 -0.71296701938E+03  0.72359634081E+03  0.81385439638E+02 0.  0.
         11    1    4    4    0    0  0.27705828669E+02  0.74141228752E+02 -0.39294043801E+03  0.40083253681E+03  0.00000000000E+00 0. -1.
        -12    1    4    4    0    0  0.40494935957E+02 -0.10937117924E+02 -0.32002658137E+03  0.32276380399E+03  0.00000000000E+00 0.  1.
        -11    1    3    3    0    0 -0.77328456829E+01  0.23254768056E+02 -0.14522240121E+03  0.14727568351E+03  0.00000000000E+00 0.  1.
         11    1    3    3    0    0 -0.21018823220E+02 -0.65186875053E+02 -0.13115723080E+03  0.14796397805E+03  0.00000000000E+00 0. -1.
          2    1    1    2  501    0 -0.39449095723E+02 -0.21272003832E+02  0.56703158112E+01  0.45176119597E+02  0.00000000000E+00 0. -1.
<scales pt_clust_5="13000.00000" pt_clust_6="13000.00000" pt_clust_7="13000.00000" pt_clust_8="13000.00000" pt_clust_9="44.81887"></scales>
<clustering>
<clus scale="   44.819">  2  9  1 -1</clus>
<clus scale="   81.385">  5  6 -1 -1</clus>
<clus scale="   90.531">  7  8 -1 -1</clus>
<clus scale="  102.590">  2  5  1 -1</clus>
<clus scale="   44.819">  2  5  1 -1</clus>
</clustering>
</event>
<event>
 9    1  0.8429841E-005  0.1184231E+03  0.7546771E-02  0.1248175E+00
         21   -1    0    0  501  502  0.00000000000E+00  0.00000000000E+00  0.50777397861E+02  0.50777397861E+02  0.00000000000E+00 0.  1.
          1   -1    0    0  502    0 -0.00000000000E+00 -0.00000000000E+00 -0.57534917636E+03  0.57534917636E+03  0.00000000000E+00 0. -1.
         23    2    1    2    0    0 -0.78066999707E+02  0.14143297914E+02 -0.46095401688E+03  0.47617092718E+03  0.89250528822E+02 0.  0.
        -24    2    1    2    0    0  0.73627968774E+02  0.79018498432E+01 -0.64136864982E+02  0.12746202564E+03  0.81544549260E+02 0.  0.
         13    1    4    4    0    0  0.33963908236E+01  0.23928316524E+02 -0.47849640741E+02  0.53606789881E+02  0.00000000000E+00 0. -1.
        -14    1    4    4    0    0  0.70231577951E+02 -0.16026466681E+02 -0.16287224242E+02  0.73855235760E+02  0.00000000000E+00 0.  1.
        -11    1    3    3    0    0 -0.81652305576E+02 -0.20681740886E+02 -0.33710659343E+03  0.34747041420E+03  0.00000000000E+00 0.  1.
         11    1    3    3    0    0  0.35853058693E+01  0.34825038800E+02 -0.12384742345E+03  0.12870051298E+03  0.00000000000E+00 0. -1.
          2    1    1    2  501    0  0.44390309322E+01 -0.22045147757E+02  0.51910336646E+00  0.22493621397E+02  0.00000000000E+00 0. -1.
<scales pt_clust_5="13000.00000" pt_clust_6="13000.00000" pt_clust_7="13000.00000" pt_clust_8="13000.00000" pt_clust_9="22.48763"></scales>
<clustering>
<clus scale="   22.488">  1  9  2 -1</clus>
<clus scale="   81.545">  5  6 -1 -1</clus>
<clus scale="   89.251">  7  8 -1 -1</clus>
<clus scale="  112.729">  1  5  2 -1</clus>
<clus scale="   22.488">  1  5  2 -1</clus>
</clustering>
</event>
<event>
 9    1  0.8429841E-005  0.2525076E+03  0.7546771E-02  0.1127901E+00
         21   -1    0    0  501  502  0.00000000000E+00  0.00000000000E+00  0.41508967418E+03  0.41508967418E+03  0.00000000000E+00 0. -1.
          1   -1    0    0  502    0 -0.00000000000E+00 -0.00000000000E+00 -0.36350770948E+03  0.36350770948E+03  0.00000000000E+00 0. -1.
        -24    2    1    2    0    0 -0.14203724309E+03  0.39878241600E+02  0.72155487480E+02  0.18328834076E+03  0.81383959780E+02 0.  0.
         23    2    1    2    0    0  0.67496247509E+01 -0.24340396964E+03  0.14714223790E+03  0.29890722436E+03  0.91671373567E+02 0.  0.
         11    1    3    3    0    0 -0.95205490629E+02  0.64708925294E+02  0.54961610018E+02  0.12756217713E+03  0.00000000000E+00 0. -1.
        -12    1    3    3    0    0 -0.46831752457E+02 -0.24830683695E+02  0.17193877461E+02  0.55726163631E+02  0.00000000000E+00 0.  1.
        -11    1    4    4    0    0  0.24420310574E+02 -0.15278547437E+02  0.30970158363E+02  0.42295818817E+02  0.00000000000E+00 0.  1.
         11    1    4    4    0    0 -0.17670685823E+02 -0.22812542220E+03  0.11617207953E+03  0.25661140554E+03  0.00000000000E+00 0. -1.
          2    1    1    2  501    0  0.13528761834E+03  0.20352572804E+03 -0.16771576068E+03  0.29640181853E+03  0.00000000000E+00 0. -1.
<scales pt_clust_5="13000.00000" pt_clust_6="13000.00000" pt_clust_7="13000.00000" pt_clust_8="13000.00000" pt_clust_9="235.27961"></scales>
<clustering>
<clus scale="   81.384">  5  6 -1 -1</clus>
<clus scale="   91.671">  7  8 -1 -1</clus>
<clus scale="  168.488">  2  5  1 -1</clus>
<clus scale="  235.280">  1  9  2 -1</clus>
<clus scale="  235.280">  1  5  2 -1</clus>
</clustering>
</event>
<event>
 9    1  0.8429841E-005  0.1579458E+03  0.7546771E-02  0.1210833E+00
         21   -1    0    0  501  502  0.00000000000E+00  0.00000000000E+00  0.15913458128E+03  0.15913458128E+03  0.00000000000E+00 0.  1.
         -2   -1    0    0    0  501 -0.00000000000E+00 -0.00000000000E+00 -0.29130241941E+03  0.29130241941E+03  0.00000000000E+00 0.  1.
        -24    2    1    2    0    0  0.21850756365E+01  0.62886582359E+02 -0.71006853270E+02  0.12495036685E+03  0.81308819738E+02 0.  0.
         23    2    1    2    0    0  0.13403213154E+03 -0.46871939055E+02  0.23922575974E+02  0.16408400482E+03  0.78674519639E+02 0.  0.
         13    1    3    3    0    0 -0.31630057804E+02  0.63602451069E+01 -0.68131758639E+01  0.32974727290E+02  0.00000000000E+00 0. -1.
        -14    1    3    3    0    0  0.33815133440E+02  0.56526337252E+02 -0.64193677406E+02  0.91975639555E+02  0.00000000000E+00 0.  1.
        -11    1    4    4    0    0  0.70801944275E+02 -0.44057739501E+02  0.48172526668E+02  0.96304683420E+02  0.00000000000E+00 0.  1.
         11    1    4    4    0    0  0.63230187267E+02 -0.28141995547E+01 -0.24249950694E+02  0.67779321402E+02  0.00000000000E+00 0. -1.
         -1    1    1    2    0  502 -0.13621720718E+03 -0.16014643303E+02 -0.85083560837E+02  0.16140262903E+03  0.00000000000E+00 0.  1.
<scales pt_clust_5="13000.00000" pt_clust_6="13000.00000" pt_clust_7="13000.00000" pt_clust_8="13000.00000" pt_clust_9="136.95697"></scales>
<clustering>
<clus scale="   78.675">  7  8 -1 -1</clus>
<clus scale="   81.309">  5  6 -1 -1</clus>
<clus scale="  102.814">  2  5  1 -1</clus>
<clus scale="  136.957">  1  9  2 -1</clus>
<clus scale="  136.957">  1  5  2 -1</clus>
</clustering>
</event>
<event>
 9    1  0.8429841E-005  0.8863002E+02  0.7546771E-02  0.1325796E+00
          1   -1    0    0  502    0 -0.00000000000E+00  0.00000000000E+00  0.18821381248E+03  0.18821381248E+03  0.00000000000E+00 0. -1.
         21   -1    0    0  501  502  0.00000000000E+00 -0.00000000000E+00 -0.14749141959E+03  0.14749141959E+03  0.00000000000E+00 0.  1.
         23    2    1    2    0    0 -0.21527292483E+01 -0.69686207251E+01  0.14061178637E+03  0.16636310765E+03  0.88610457645E+02 0.  0.
        -24    2    1    2    0    0  0.31248922418E+00 -0.20994102356E+02 -0.13970253087E+00  0.65730825757E+02  0.62287012728E+02 0.  0.
         11    1    4    4    0    0  0.10332942919E+02  0.20295488462E+02  0.36859769407E+01  0.23070825457E+02  0.00000000000E+00 0. -1.
        -12    1    4    4    0    0 -0.10020453695E+02 -0.41289590818E+02 -0.38256794716E+01  0.42660000300E+02  0.00000000000E+00 0.  1.
        -13    1    3    3    0    0 -0.39339781704E+01 -0.47275884051E+02  0.62699412132E+02  0.78623798425E+02  0.00000000000E+00 0.  1.
         13    1    3    3    0    0  0.17812489221E+01  0.40307263326E+02  0.77912374235E+02  0.87739309226E+02  0.00000000000E+00 0. -1.
          2    1    1    2  501    0  0.18402400241E+01  0.27962723081E+02 -0.99749690946E+02  0.10361129866E+03  0.00000000000E+00 0. -1.
<scales pt_clust_5="13000.00000" pt_clust_6="13000.00000" pt_clust_7="13000.00000" pt_clust_8="13000.00000" pt_clust_9="28.02321"></scales>
<clustering>
<clus scale="   28.023">  2  9  1 -1</clus>
<clus scale="   62.287">  5  6 -1 -1</clus>
<clus scale="   62.315">  2  5  1 -1</clus>
<clus scale="   88.610">  7  8 -1 -1</clus>
<clus scale="   28.023">  2  5  1 -1</clus>
</clustering>
</event>
<event>
 9    1  0.8429841E-005  0.1094190E+03  0.7546771E-02  0.1267658E+00
         21   -1    0    0  501  502  0.00000000000E+00  0.00000000000E+00  0.28117129959E+03  0.28117129959E+03  0.00000000000E+00 0. -1.
          1   -1    0    0  502    0 -0.00000000000E+00 -0.00000000000E+00 -0.61820174828E+02  0.61820174828E+02  0.00000000000E+00 0. -1.
         23    2    1    2    0    0  0.54303258611E+02 -0.44022835420E+02  0.49079034983E+02  0.12570193713E+03  0.92224570425E+02 0.  0.
        -24    2    1    2    0    0 -0.22486436215E+02  0.43212063469E+02  0.79956703744E+02  0.12153027406E+03  0.77482971012E+02 0.  0.
         11    1    4    4    0    0  0.16404575919E+02  0.36751776230E+02  0.10385274353E+02  0.41565094617E+02  0.00000000000E+00 0. -1.
        -12    1    4    4    0    0 -0.38891012134E+02  0.64602872390E+01  0.69571429391E+02  0.79965179444E+02  0.00000000000E+00 0.  1.
        -13    1    3    3    0    0  0.40597804689E+01 -0.22402642788E+02 -0.24872881259E+02  0.33719733740E+02  0.00000000000E+00 0.  1.
         13    1    3    3    0    0  0.50243478143E+02 -0.21620192632E+02  0.73951916242E+02  0.91982203394E+02  0.00000000000E+00 0. -1.
          2    1    1    2  501    0 -0.31816822396E+02  0.81077195107E+00  0.90315386036E+02  0.95759263225E+02  0.00000000000E+00 0. -1.
<scales pt_clust_5="13000.00000" pt_clust_6="13000.00000" pt_clust_7="13000.00000" pt_clust_8="13000.00000" pt_clust_9="31.82715"></scales>
<clustering>
<clus scale="   31.827">  1  9  2 -1</clus>
<clus scale="   77.483">  5  6 -1 -1</clus>
<clus scale="   92.225">  7  8 -1 -1</clus>
<clus scale="   97.318">  1  5  2 -1</clus>
<clus scale="   31.827">  1  5  2 -1</clus>
</clustering>
</event>
<event>
 9    1  0.8429841E-005  0.1277484E+03  0.7546771E-02  0.1249152E+00
         -4   -1    0    0    0  501 -0.00000000000E+00  0.00000000000E+00  0.83684883674E+02  0.83684883674E+02  0.00000000000E+00 0.  1.
         21   -1    0    0  501  502  0.00000000000E+00 -0.00000000000E+00 -0.38330388554E+03  0.38330388554E+03  0.00000000000E+00 0.  1.
        -24    2    1    2    0    0  0.19269008933E+01  0.36233899577E+02 -0.19840638625E+03  0.21707127776E+03  0.80238625970E+02 0.  0.
         23    2    1    2    0    0 -0.83588963508E+02  0.18286425022E+02 -0.83220707318E+02  0.15009331087E+03  0.90998943297E+02 0.  0.
         11    1    3    3    0    0  0.16328978389E+02  0.52935503567E+02 -0.84433041229E+02  0.10098386764E+03  0.00000000000E+00 0. -1.
        -12    1    3    3    0    0 -0.14402077496E+02 -0.16701603990E+02 -0.11397334502E+03  0.11608741011E+03  0.00000000000E+00 0.  1.
        -11    1    4    4    0    0 -0.14945999155E+02 -0.17118480042E+02 -0.67568317951E+02  0.71287466223E+02  0.00000000000E+00 0. -1.
         11    1    4    4    0    0 -0.68642964353E+02  0.35404905064E+02 -0.15652389367E+02  0.78805844648E+02  0.00000000000E+00 0.  1.
         -3    1    1    2    0  502  0.81662062615E+02 -0.54520324598E+02 -0.17991908296E+02  0.99824180582E+02  0.00000000000E+00 0.  1.
<scales pt_clust_5="13000.00000" pt_clust_6="13000.00000" pt_clust_7="13000.00000" pt_clust_8="13000.00000" pt_clust_9="89.65959"></scales>
<clustering>
<clus scale="   80.239">  5  6 -1 -1</clus>
<clus scale="   88.062">  1  5  2 -1</clus>
<clus scale="   89.660">  2  9  1 -1</clus>
<clus scale="   90.999">  7  8 -1 -1</clus>
<clus scale="   89.660">  2  5  1 -1</clus>
</clustering>
</event>
<event>
 9    1  0.8429841E-005  0.3560409E+03  0.7546771E-02  0.1115595E+00
         21   -1    0    0  501  502  0.00000000000E+00  0.00000000000E+00  0.28780001693E+03  0.28780001693E+03  0.00000000000E+00 0. -1.
          1   -1    0    0  502    0 -0.00000000000E+00 -0.00000000000E+00 -0.58914729081E+03  0.58914729081E+03  0.00000000000E+00 0. -1.
        -24    2    1    2    0    0  0.11480844060E+02  0.26377099223E+00 -0.12278492737E+03  0.14747331316E+03  0.80872494404E+02 0.  0.
         23    2    1    2    0    0 -0.34853035309E+03 -0.19673772106E+02 -0.34939285937E+02  0.36258613267E+03  0.91583216652E+02 0.  0.
         13    1    3    3    0    0  0.22899361032E+02 -0.34156139698E+02 -0.41291662069E+02  0.58275414809E+02  0.00000000000E+00 0. -1.
        -14    1    3    3    0    0 -0.11418516972E+02  0.34419910690E+02 -0.81493265298E+02  0.89197898353E+02  0.00000000000E+00 0.  1.
        -13    1    4    4    0    0 -0.22156858266E+03 -0.47766145336E+02 -0.48686595858E+02  0.23182887240E+03  0.00000000000E+00 0. -1.
         13    1    4    4    0    0 -0.12696177043E+03  0.28092373230E+02  0.13747309921E+02  0.13075726028E+03  0.00000000000E+00 0.  1.
          2    1    1    2  501    0  0.33704950903E+03  0.19410001114E+02 -0.14362306057E+03  0.36688786190E+03  0.00000000000E+00 0. -1.
<scales pt_clust_5="13000.00000" pt_clust_6="13000.00000" pt_clust_7="13000.00000" pt_clust_8="13000.00000" pt_clust_9="344.06073"></scales>
<clustering>
<clus scale="   80.872">  5  6 -1 -1</clus>
<clus scale="   81.684">  2  5  1 -1</clus>
<clus scale="   91.583">  7  8 -1 -1</clus>
<clus scale="  344.061">  1  9  2 -1</clus>
<clus scale="  344.061">  1  5  2 -1</clus>
</clustering>
</event>
<event>
 9    1  0.8429841E-005  0.3981230E+03  0.7546771E-02  0.1044631E+00
         21   -1    0    0  501  502  0.00000000000E+00  0.00000000000E+00  0.31325640217E+03  0.31325640217E+03  0.00000000000E+00 0.  1.
          1   -1    0    0  502    0 -0.00000000000E+00 -0.00000000000E+00 -0.65916536023E+03  0.65916536023E+03  0.00000000000E+00 0. -1.
         23    2    1    2    0    0  0.18017076329E+03 -0.35289095592E+03 -0.39021455196E+03  0.56350374455E+03  0.90970010651E+02 0.  0.
        -24    2    1    2    0    0 -0.16016654324E+03  0.33029310435E+03  0.35376363496E+02  0.37744480907E+03  0.80412937062E+02 0.  0.
         13    1    4    4    0    0 -0.16091398114E+03  0.27800917502E+03  0.44748948575E+02  0.32432218413E+03  0.00000000000E+00 0. -1.
        -14    1    4    4    0    0  0.74743789780E+00  0.52283929330E+02 -0.93725850788E+01  0.53122624942E+02  0.00000000000E+00 0.  1.
        -11    1    3    3    0    0  0.12597115043E+03 -0.26484010999E+03 -0.22947433101E+03  0.37238083086E+03  0.00000000000E+00 0.  1.
         11    1    3    3    0    0  0.54199612859E+02 -0.88050845933E+02 -0.16074022095E+03  0.19112291369E+03  0.00000000000E+00 0. -1.
          2    1    1    2  501    0 -0.20004220053E+02  0.22597851577E+02  0.89292304057E+01  0.31473208789E+02  0.00000000000E+00 0. -1.
<scales pt_clust_5="13000.00000" pt_clust_6="13000.00000" pt_clust_7="13000.00000" pt_clust_8="13000.00000" pt_clust_9="30.17999"></scales>
<clustering>
<clus scale="   30.180">  1  9  2 -1</clus>
<clus scale="   80.413">  5  6 -1 -1</clus>
<clus scale="   90.970">  7  8 -1 -1</clus>
<clus scale="  395.844">  1  5  2 -1</clus>
<clus scale="   30.180">  1  5  2 -1</clus>
</clustering>
</event>
<event>
 9    1  0.8429841E-005  0.1780126E+03  0.7546771E-02  0.1171093E+00
         -2   -1    0    0    0  501 -0.00000000000E+00  0.00000000000E+00  0.51214590056E+03  0.51214590056E+03  0.00000000000E+00 0.  1.
         21   -1    0    0  501  502  0.00000000000E+00 -0.00000000000E+00 -0.38586099807E+03  0.38586099807E+03  0.00000000000E+00 0.  1.
         23    2    1    2    0    0 -0.16129961651E+03 -0.56180386762E+02  0.36448304553E+03  0.41273919652E+03  0.91279525208E+02 0.  0.
        -24    2    1    2    0    0  0.11008119211E+03  0.50004105358E+02  0.78110864970E+02  0.16477922807E+03  0.80203537121E+02 0.  0.
         13    1    4    4    0    0  0.10975706507E+03  0.66296080899E+02  0.73703241698E+02  0.14789845000E+03  0.00000000000E+00 0. -1.
        -14    1    4    4    0    0  0.32412704526E+00 -0.16291975541E+02  0.44076232718E+01  0.16880778070E+02  0.00000000000E+00 0.  1.
        -11    1    3    3    0    0 -0.14173530139E+03 -0.12688399500E+02  0.23468634246E+03  0.27445868628E+03  0.00000000000E+00 0.  1.
         11    1    3    3    0    0 -0.19564315120E+02 -0.43491987262E+02  0.12979670307E+03  0.13828051024E+03  0.00000000000E+00 0. -1.
         -1    1    1    2    0  502  0.51218424392E+02  0.61762814039E+01 -0.31630900800E+03  0.32048847404E+03  0.00000000000E+00 0.  1.
<scales pt_clust_5="13000.00000" pt_clust_6="13000.00000" pt_clust_7="13000.00000" pt_clust_8="13000.00000" pt_clust_9="51.58947"></scales>
<clustering>
<clus scale="   51.589">  2  9  1 -1</clus>
<clus scale="   80.204">  5  6 -1 -1</clus>
<clus scale="   91.280">  7  8 -1 -1</clus>
<clus scale="  172.595">  2  5  1 -1</clus>
<clus scale="   51.589">  2  5  1 -1</clus>
</clustering>
</event>
<event>
 9    1  0.8429841E-005  0.1163695E+03  0.7546771E-02  0.1254997E+00
          1   -1    0    0  502    0 -0.00000000000E+00  0.00000000000E+00  0.46462815729E+02  0.46462815729E+02  0.00000000000E+00 0. -1.
         21   -1    0    0  501  502  0.00000000000E+00 -0.00000000000E+00 -0.72413881457E+03  0.72413881457E+03  0.00000000000E+00 0.  1.
         23    2    1    2    0    0  0.37553702615E+02 -0.47294501513E+02 -0.11769637941E+03  0.16393756448E+03  0.96829937866E+02 0.  0.
        -24    2    1    2    0    0 -0.10399250455E+03  0.26949403427E+01 -0.46030053744E+03  0.47883936302E+03  0.81171713673E+02 0.  0.
         13    1    4    4    0    0 -0.24276980708E+01  0.24733294960E+02 -0.53784846824E+02  0.59248960711E+02  0.00000000000E+00 0. -1.
        -14    1    4    4    0    0 -0.10156480648E+03 -0.22038354618E+02 -0.40651569062E+03  0.41959040231E+03  0.00000000000E+00 0.  1.
        -11    1    3    3    0    0  0.68891334876E+02 -0.38606604482E+02 -0.98224928670E+02  0.12603421180E+03  0.00000000000E+00 0. -1.
         11    1    3    3    0    0 -0.31337632261E+02 -0.86878970312E+01 -0.19471450737E+02  0.37903352680E+02  0.00000000000E+00 0.  1.
          2    1    1    2  501    0  0.66438801940E+02  0.44599561171E+02 -0.99679081989E+02  0.12782470280E+03  0.00000000000E+00 0. -1.
<scales pt_clust_5="13000.00000" pt_clust_6="13000.00000" pt_clust_7="13000.00000" pt_clust_8="13000.00000" pt_clust_9="80.02026"></scales>
<clustering>
<clus scale="   80.020">  2  9  1 -1</clus>
<clus scale="   81.172">  5  6 -1 -1</clus>
<clus scale="   96.830">  7  8 -1 -1</clus>
<clus scale="  103.705">  2  5  1 -1</clus>
<clus scale="   80.020">  2  5  1 -1</clus>
</clustering>
</event>
<event>
 9    1  0.8429841E-005  0.1031299E+03  0.7546771E-02  0.1279295E+00
         21   -1    0    0  501  502  0.00000000000E+00  0.00000000000E+00  0.19997414767E+03  0.19997414767E+03  0.00000000000E+00 0. -1.
         -4   -1    0    0    0  501 -0.00000000000E+00 -0.00000000000E+00 -0.14669123607E+03  0.14669123607E+03  0.00000000000E+00 0.  1.
        -24    2    1    2    0    0  0.32250812444E+02 -0.29809647515E+02 -0.99549612892E+02  0.13525499182E+03  0.80343371833E+02 0.  0.
         23    2    1    2    0    0 -0.53155878109E+02  0.37539120082E+02  0.88296581231E+02  0.14313408204E+03  0.91958394241E+02 0.  0.
         13    1    3    3    0    0  0.28968475373E+02 -0.18140863572E+02  0.78689730497E+00  0.34188926628E+02  0.00000000000E+00 0. -1.
        -14    1    3    3    0    0  0.32823370706E+01 -0.11668783943E+02 -0.10033651020E+03  0.10106606519E+03  0.00000000000E+00 0.  1.
        -13    1    4    4    0    0 -0.56840366961E+02 -0.72635598582E+01  0.18690757929E+02  0.60273800694E+02  0.00000000000E+00 0.  1.
         13    1    4    4    0    0  0.36844888526E+01  0.44802679940E+02  0.69605823302E+02  0.82860281350E+02  0.00000000000E+00 0. -1.
         -3    1    1    2    0  502  0.20905065665E+02 -0.77294725663E+01  0.64535943265E+02  0.68276309872E+02  0.00000000000E+00 0.  1.
<scales pt_clust_5="13000.00000" pt_clust_6="13000.00000" pt_clust_7="13000.00000" pt_clust_8="13000.00000" pt_clust_9="22.28826"></scales>
<clustering>
<clus scale="   22.288">  1  9  2 -1</clus>
<clus scale="   80.343">  5  6 -1 -1</clus>
<clus scale="   91.958">  7  8 -1 -1</clus>
<clus scale="   92.922">  2  5  1 -1</clus>
<clus scale="   22.288">  1  5  2 -1</clus>
</clustering>
</event>
<event>
 9    1  0.8429841E-005  0.1212809E+03  0.7546771E-02  0.1243063E+00
          1   -1    0    0  502    0 -0.00000000000E+00  0.00000000000E+00  0.41885548092E+03  0.41885548092E+03  0.00000000000E+00 0. -1.
         21   -1    0    0  501  502  0.00000000000E+00 -0.00000000000E+00 -0.76651034211E+02  0.76651034211E+02  0.00000000000E+00 0.  1.
         23    2    1    2    0    0 -0.80600255855E+01  0.10608495686E+03  0.26108178422E+03  0.29578289206E+03  0.89469766390E+02 0.  0.
        -24    2    1    2    0    0  0.80267725493E+01 -0.53376286835E+02  0.10300732815E+03  0.14265223276E+03  0.82617751042E+02 0.  0.
         11    1    4    4    0    0  0.33617187724E+02 -0.53719463975E+02  0.97797981048E+02  0.11653472108E+03  0.00000000000E+00 0. -1.
        -12    1    4    4    0    0 -0.25590415175E+02  0.34317714043E+00  0.52093470970E+01  0.26117511684E+02  0.00000000000E+00 0.  1.
        -13    1    3    3    0    0 -0.30219937904E+02  0.85990351201E+00  0.42186639586E+02  0.51900834680E+02  0.00000000000E+00 0. -1.
         13    1    3    3    0    0  0.22159912319E+02  0.10522505335E+03  0.21889514463E+03  0.24388205738E+03  0.00000000000E+00 0.  1.
          2    1    1    2  501    0  0.33253036249E-01 -0.52708670024E+02 -0.21884665653E+02  0.57071390313E+02  0.00000000000E+00 0. -1.
<scales pt_clust_5="13000.00000" pt_clust_6="13000.00000" pt_clust_7="13000.00000" pt_clust_8="13000.00000" pt_clust_9="52.70868"></scales>
<clustering>
<clus scale="   52.709">  2  9  1 -1</clus>
<clus scale="   82.618">  5  6 -1 -1</clus>
<clus scale="   89.470">  7  8 -1 -1</clus>
<clus scale="  116.318">  2  5  1 -1</clus>
<clus scale="   52.709">  2  5  1 -1</clus>
</clustering>
</event>
<event>
 9    1  0.8429841E-005  0.1450337E+03  0.7546771E-02  0.1208616E+00
         21   -1    0    0  501  502  0.00000000000E+00  0.00000000000E+00  0.81440973829E+03  0.81440973829E+03  0.00000000000E+00 0.  1.
         -4   -1    0    0    0  501 -0.00000000000E+00 -0.00000000000E+00 -0.36338081709E+02  0.36338081709E+02  0.00000000000E+00 0.  1.
         23    2    1    2    0    0  0.20716579289E+02  0.13267510107E+03  0.27524119661E+03  0.31944955294E+03  0.90875967439E+02 0.  0.
        -24    2    1    2    0    0  0.51421085065E+01 -0.88921962241E+02  0.34306166602E+03  0.36364065044E+03  0.81299811263E+02 0.  0.
         13    1    4    4    0    0 -0.34188902881E+02 -0.36054749409E+02  0.20085676021E+03  0.20691124706E+03  0.00000000000E+00 0. -1.
        -14    1    4    4    0    0  0.39331011388E+02 -0.52867212832E+02  0.14220490581E+03  0.15672940338E+03  0.00000000000E+00 0.  1.
        -13    1    3    3    0    0  0.42633092635E+02  0.13245715954E+03  0.22377014202E+03  0.26350627347E+03  0.00000000000E+00 0.  1.
         13    1    3    3    0    0 -0.21916513346E+02  0.21794152364E+00  0.51471054598E+02  0.55943279465E+02  0.00000000000E+00 0. -1.
         -3    1    1    2    0  502 -0.25858687795E+02 -0.43753138826E+02  0.15976879395E+03  0.16765761662E+03  0.00000000000E+00 0.  1.
<scales pt_clust_5="13000.00000" pt_clust_6="13000.00000" pt_clust_7="13000.00000" pt_clust_8="13000.00000" pt_clust_9="50.82331"></scales>
<clustering>
<clus scale="   50.823">  1  9  2 -1</clus>
<clus scale="   81.300">  5  6 -1 -1</clus>
<clus scale="   90.876">  7  8 -1 -1</clus>
<clus scale="  139.234">  1  5  2 -1</clus>
<clus scale="   50.823">  1  5  2 -1</clus>
</clustering>
</event>
<event>
 9    1  0.8429841E-005  0.1458666E+03  0.7546771E-02  0.1223906E+00
          1   -1    0    0  502    0 -0.00000000000E+00  0.00000000000E+00  0.36620276232E+03  0.36620276232E+03  0.00000000000E+00 0. -1.
         21   -1    0    0  501  502  0.00000000000E+00 -0.00000000000E+00 -0.16138655714E+03  0.16138655714E+03  0.00000000000E+00 0. -1.
         23    2    1    2    0    0 -0.44436881793E+01 -0.22393772168E+02  0.17070965632E+03  0.19737772354E+03  0.96410329295E+02 0.  0.
        -24    2    1    2    0    0  0.10722357680E+03  0.59869834385E+02 -0.82700894560E+02  0.17017366422E+03  0.83894848121E+02 0.  0.
         11    1    4    4    0    0  0.68337235792E+02  0.79754704068E+02 -0.59785598398E+02  0.12085159657E+03  0.00000000000E+00 0. -1.
        -12    1    4    4    0    0  0.38886341008E+02 -0.19884869683E+02 -0.22915296162E+02  0.49322067652E+02  0.00000000000E+00 0.  1.
        -13    1    3    3    0    0 -0.12903936125E+02 -0.58225077108E+02  0.82546630598E+02  0.10183622830E+03  0.00000000000E+00 0.  1.
         13    1    3    3    0    0  0.84602479459E+01  0.35831304940E+02  0.88163025718E+02  0.95541495241E+02  0.00000000000E+00 0. -1.
          2    1    1    2  501    0 -0.10277988862E+03 -0.37476062217E+02  0.11680744342E+03  0.16003793170E+03  0.00000000000E+00 0. -1.
<scales pt_clust_5="13000.00000" pt_clust_6="13000.00000" pt_clust_7="13000.00000" pt_clust_8="13000.00000" pt_clust_9="119.32621"></scales>
<clustering>
<clus scale="   83.895">  5  6 -1 -1</clus>
<clus scale="   96.410">  7  8 -1 -1</clus>
<clus scale="   99.077">  1  7  2 -1</clus>
<clus scale="  119.326">  2  9  1 -1</clus>
<clus scale="  119.326">  2  5  1 -1</clus>
</clustering>
</event>
<event>
 9    1  0.8429841E-005  0.1629624E+03  0.7546771E-02  0.1212732E+00
         21   -1    0    0  501  502  0.00000000000E+00  0.00000000000E+00  0.19717897551E+03  0.19717897551E+03  0.00000000000E+00 0. -1.
          1   -1    0    0  502    0 -0.00000000000E+00 -0.00000000000E+00 -0.65738629610E+03  0.65738629610E+03  0.00000000000E+00 0. -1.
        -24    2    1    2    0    0  0.29822841546E+02 -0.11758979031E+02 -0.40706254635E+03  0.41687145423E+03  0.83989387681E+02 0.  0.
         23    2    1    2    0    0  0.54438201276E+02  0.11728051647E+03 -0.18837953864E+03  0.24658348353E+03  0.92727161433E+02 0.  0.
         13    1    3    3    0    0  0.58924676287E+02 -0.17108872787E+01 -0.27905835265E+03  0.28521677510E+03  0.00000000000E+00 0. -1.
        -14    1    3    3    0    0 -0.29101834741E+02 -0.10048091752E+02 -0.12800419370E+03  0.13165467913E+03  0.00000000000E+00 0.  1.
        -11    1    4    4    0    0 -0.14591517397E+02  0.56070463359E+02 -0.35279655946E+02  0.67834087043E+02  0.00000000000E+00 0.  1.
         11    1    4    4    0    0  0.69029718673E+02  0.61210053113E+02 -0.15309988270E+03  0.17874939649E+03  0.00000000000E+00 0. -1.
          2    1    1    2  501    0 -0.84261042822E+02 -0.10552153744E+03  0.13523476440E+03  0.19111033385E+03  0.00000000000E+00 0. -1.
<scales pt_clust_5="13000.00000" pt_clust_6="13000.00000" pt_clust_7="13000.00000" pt_clust_8="13000.00000" pt_clust_9="134.00902"></scales>
<clustering>
<clus scale="   83.989">  5  6 -1 -1</clus>
<clus scale="   89.899">  2  5  1 -1</clus>
<clus scale="   92.727">  7  8 -1 -1</clus>
<clus scale="  134.009">  1  9  2 -1</clus>
<clus scale="  134.009">  1  5  2 -1</clus>
</clustering>
</event>
<event>
 9    1  0.8429841E-005  0.1116813E+03  0.7546771E-02  0.1260523E+00
         21   -1    0    0  501  502  0.00000000000E+00  0.00000000000E+00  0.13281049681E+03  0.13281049681E+03  0.00000000000E+00 0.  1.
          3   -1    0    0  502    0 -0.00000000000E+00 -0.00000000000E+00 -0.33206889729E+03  0.33206889729E+03  0.00000000000E+00 0. -1.
        -24    2    1    2    0    0 -0.56687348227E+02  0.10023227638E+02 -0.41944943308E+02  0.10837504888E+03  0.81681407975E+02 0.  0.
         23    2    1    2    0    0  0.52474492165E+02 -0.10552170869E+03  0.25332486084E+02  0.15035573712E+03  0.89870515193E+02 0.  0.
         13    1    3    3    0    0 -0.73589563928E+02 -0.23588940057E+01 -0.16572044754E+02  0.75469337929E+02  0.00000000000E+00 0. -1.
        -14    1    3    3    0    0  0.16902215701E+02  0.12382121644E+02 -0.25372898554E+02  0.32905710949E+02  0.00000000000E+00 0.  1.
        -13    1    4    4    0    0 -0.25498791343E+02 -0.25859739600E+02  0.11125012663E+02  0.37982632859E+02  0.00000000000E+00 0. -1.
         13    1    4    4    0    0  0.77973283508E+02 -0.79661969086E+02  0.14207473420E+02  0.11237310426E+03  0.00000000000E+00 0.  1.
          4    1    1    2  501    0  0.42128560618E+01  0.95498481048E+02 -0.18264594325E+03  0.20614860811E+03  0.00000000000E+00 0. -1.
<scales pt_clust_5="13000.00000" pt_clust_6="13000.00000" pt_clust_7="13000.00000" pt_clust_8="13000.00000" pt_clust_9="95.59141"></scales>
<clustering>
<clus scale="   81.681">  5  6 -1 -1</clus>
<clus scale="   89.871">  7  8 -1 -1</clus>
<clus scale="   95.591">  1  9  2 -1</clus>
<clus scale="  105.204">  2  5  1 -1</clus>
<clus scale="   95.591">  1  5  2 -1</clus>
</clustering>
</event>
<event>
 9    1  0.8429841E-005  0.1094122E+03  0.7546771E-02  0.1270891E+00
         -4   -1    0    0    0  501 -0.00000000000E+00  0.00000000000E+00  0.27925220643E+02  0.27925220643E+02  0.00000000000E+00 0.  1.
         21   -1    0    0  501  502  0.00000000000E+00 -0.00000000000E+00 -0.68526326023E+03  0.68526326023E+03  0.00000000000E+00 0. -1.
         23    2    1    2    0    0  0.37046945147E+02 -0.35756765569E+02 -0.11415124877E+03  0.15953153958E+03  0.98837149381E+02 0.  0.
        -24    2    1    2    0    0 -0.18529123406E+02  0.25671936381E+02 -0.46712254538E+03  0.47472416650E+03  0.78467733024E+02 0.  0.
         13    1    4    4    0    0 -0.12728089445E+02  0.50991419480E+02 -0.21776068469E+03  0.22401304631E+03  0.00000000000E+00 0. -1.
        -14    1    4    4    0    0 -0.58010339616E+01 -0.25319483099E+02 -0.24936186069E+03  0.25071112019E+03  0.00000000000E+00 0.  1.
        -11    1    3    3    0    0  0.37067823330E+02 -0.66290047464E+02 -0.57808988637E+02  0.95447750557E+02  0.00000000000E+00 0.  1.
         11    1    3    3    0    0 -0.20878183715E-01  0.30533281895E+02 -0.56342260132E+02  0.64083789026E+02  0.00000000000E+00 0. -1.
         -3    1    1    2    0  502 -0.18517821740E+02  0.10084829188E+02 -0.76064245442E+02  0.78932774792E+02  0.00000000000E+00 0.  1.
<scales pt_clust_5="13000.00000" pt_clust_6="13000.00000" pt_clust_7="13000.00000" pt_clust_8="13000.00000" pt_clust_9="21.08586"></scales>
<clustering>
<clus scale="   21.086">  2  9  1 -1</clus>
<clus scale="   78.468">  5  6 -1 -1</clus>
<clus scale="   91.430">  2  5  1 -1</clus>
<clus scale="   98.837">  7  8 -1 -1</clus>
<clus scale="   21.086">  2  5  1 -1</clus>
</clustering>
</event>
<event>
 9    1  0.8429841E-005  0.1738816E+03  0.7546771E-02  0.1174133E+00
          1   -1    0    0  502    0 -0.00000000000E+00  0.00000000000E+00  0.81119932465E+03  0.81119932465E+03  0.00000000000E+00 0. -1.
         21   -1    0    0  501  502  0.00000000000E+00 -0.00000000000E+00 -0.70225875907E+02  0.70225875907E+02  0.00000000000E+00 0.  1.
        -24    2    1    2    0    0  0.28526358545E+02 -0.17389717379E+03  0.56018370282E+03  0.59316878386E+03  0.83602900966E+02 0.  0.
         23    2    1    2    0    0 -0.35735409092E+02  0.89106263587E+02  0.57241914482E+02  0.13823796611E+03  0.81339737082E+02 0.  0.
         13    1    3    3    0    0 -0.22543617599E+02 -0.11442932444E+03  0.32980441797E+03  0.34981886613E+03  0.00000000000E+00 0. -1.
        -14    1    3    3    0    0  0.51069976145E+02 -0.59467849355E+02  0.23037928485E+03  0.24334991773E+03  0.00000000000E+00 0.  1.
        -13    1    4    4    0    0  0.15189345276E+02  0.47147219583E+02 -0.19825728175E+01  0.49573250037E+02  0.00000000000E+00 0.  1.
         13    1    4    4    0    0 -0.50924754368E+02  0.41959044004E+02  0.59224487300E+02  0.88664716078E+02  0.00000000000E+00 0. -1.
          2    1    1    2  501    0  0.72090505466E+01  0.84790910203E+02  0.12354783144E+03  0.15001845058E+03  0.00000000000E+00 0. -1.
<scales pt_clust_5="13000.00000" pt_clust_6="13000.00000" pt_clust_7="13000.00000" pt_clust_8="13000.00000" pt_clust_9="85.09682"></scales>
<clustering>
<clus scale="   81.340">  7  8 -1 -1</clus>
<clus scale="   83.603">  5  6 -1 -1</clus>
<clus scale="   85.097">  2  9  1 -1</clus>
<clus scale="  172.805">  2  7  1 -1</clus>
<clus scale="   85.097">  2  5  1 -1</clus>
</clustering>
</event>
<event>
 9    1  0.8429841E-005  0.1491335E+03  0.7546771E-02  0.1203495E+00
          1   -1    0    0  502    0 -0.00000000000E+00  0.00000000000E+00  0.10124978279E+03  0.10124978279E+03  0.00000000000E+00 0. -1.
         21   -1    0    0  501  502  0.00000000000E+00 -0.00000000000E+00 -0.34654560273E+03  0.34654560273E+03  0.00000000000E+00 0. -1.
        -24    2    1    2    0    0  0.11724476319E+03  0.42929608396E+02 -0.20197536950E+02  0.15012026146E+03  0.80863258835E+02 0.  0.
         23    2    1    2    0    0 -0.10223897377E+03 -0.46025255598E+01 -0.21543518537E+03  0.25539611686E+03  0.91328343971E+02 0.  0.
         11    1    3    3    0    0  0.76533334659E+02  0.60984432189E+02 -0.33835274326E+02  0.10354360469E+03  0.00000000000E+00 0. -1.
        -12    1    3    3    0    0  0.40711428528E+02 -0.18054823793E+02  0.13637737376E+02  0.46576656768E+02  0.00000000000E+00 0.  1.
        -11    1    4    4    0    0 -0.46909434940E+02 -0.10409694773E+01 -0.17886776675E+02  0.50214693902E+02  0.00000000000E+00 0.  1.
         11    1    4    4    0    0 -0.55329538832E+02 -0.35615560825E+01 -0.19754840870E+03  0.20518142296E+03  0.00000000000E+00 0. -1.
          2    1    1    2  501    0 -0.15005789414E+02 -0.38327082836E+02 -0.96630976163E+01  0.42279007205E+02  0.00000000000E+00 0. -1.
<scales pt_clust_5="13000.00000" pt_clust_6="13000.00000" pt_clust_7="13000.00000" pt_clust_8="13000.00000" pt_clust_9="41.15994"></scales>
<clustering>
<clus scale="   41.160">  2  9  1 -1</clus>
<clus scale="   80.863">  5  6 -1 -1</clus>
<clus scale="   91.328">  7  8 -1 -1</clus>
<clus scale="  142.964">  1  5  2 -1</clus>
<clus scale="   41.160">  2  5  1 -1</clus>
</clustering>
</event>
<event>
 9    1  0.8429841E-005  0.1115634E+03  0.7546771E-02  0.1263513E+00
          3   -1    0    0  502    0 -0.00000000000E+00  0.00000000000E+00  0.88944601975E+02  0.88944601975E+02  0.00000000000E+00 0. -1.
         21   -1    0    0  501  502  0.00000000000E+00 -0.00000000000E+00 -0.97766661638E+03  0.97766661638E+03  0.00000000000E+00 0. -1.
         23    2    1    2    0    0 -0.50283347241E+02  0.26093260861E+02 -0.77779022833E+02  0.13301892872E+03  0.91843267209E+02 0.  0.
        -24    2    1    2    0    0  0.78364933730E+02 -0.97930166679E+02 -0.83879349281E+03  0.85158761321E+03  0.76782543602E+02 0.  0.
         13    1    4    4    0    0  0.25767745261E+02 -0.61404213288E+02 -0.23031177017E+03  0.23974562683E+03  0.00000000000E+00 0. -1.
        -14    1    4    4    0    0  0.52597188469E+02 -0.36525953391E+02 -0.60848172264E+03  0.61184198637E+03  0.00000000000E+00 0.  1.
        -11    1    3    3    0    0 -0.15193076754E+02  0.37365100704E+02 -0.86237590507E+02  0.95204529033E+02  0.00000000000E+00 0.  1.
         11    1    3    3    0    0 -0.35090270486E+02 -0.11271839843E+02  0.84585676740E+01  0.37814399682E+02  0.00000000000E+00 0. -1.
          4    1    1    2  501    0 -0.28081586489E+02  0.71836905818E+02  0.27850501240E+02  0.82004676431E+02  0.00000000000E+00 0. -1.
<scales pt_clust_5="13000.00000" pt_clust_6="13000.00000" pt_clust_7="13000.00000" pt_clust_8="13000.00000" pt_clust_9="77.13055"></scales>
<clustering>
<clus scale="   76.783">  5  6 -1 -1</clus>
<clus scale="   77.131">  2  9  1 -1</clus>
<clus scale="   91.843">  7  8 -1 -1</clus>
<clus scale="   99.533">  2  5  1 -1</clus>
<clus scale="   77.131">  2  5  1 -1</clus>
</clustering>
</event>
<event>
 9    1  0.8429841E-005  0.1125002E+03  0.7546771E-02  0.1259552E+00
          3   -1    0    0  502    0 -0.00000000000E+00  0.00000000000E+00  0.35270182455E+02  0.35270182455E+02  0.00000000000E+00 0. -1.
         21   -1    0    0  501  502  0.00000000000E+00 -0.00000000000E+00 -0.65397578189E+03  0.65397578189E+03  0.00000000000E+00 0. -1.
         23    2    1    2    0    0  0.31008150149E+01  0.93491773460E+02 -0.18515050577E+03  0.22609035227E+03  0.89921136802E+02 0.  0.
        -24    2    1    2    0    0 -0.27217901807E+02 -0.27361658429E+02 -0.28853629359E+03  0.30195611343E+03  0.80217374598E+02 0.  0.
         13    1    4    4    0    0  0.50339777118E+01 -0.48682039443E+02 -0.13402995754E+03  0.14268605893E+03  0.00000000000E+00 0. -1.
        -14    1    4    4    0    0 -0.32251879518E+02  0.21320381014E+02 -0.15450633605E+03  0.15927005450E+03  0.00000000000E+00 0.  1.
        -11    1    3    3    0    0  0.31061637200E+02  0.48344633637E+01 -0.22188522240E+02  0.38477628056E+02  0.00000000000E+00 0.  1.
         11    1    3    3    0    0 -0.27960822186E+02  0.88657310096E+02 -0.16296198353E+03  0.18761272421E+03  0.00000000000E+00 0. -1.
          4    1    1    2  501    0  0.24117086792E+02 -0.66130115030E+02 -0.14501880007E+03  0.16119949865E+03  0.00000000000E+00 0. -1.
<scales pt_clust_5="13000.00000" pt_clust_6="13000.00000" pt_clust_7="13000.00000" pt_clust_8="13000.00000" pt_clust_9="70.39052"></scales>
<clustering>
<clus scale="   70.391">  2  9  1 -1</clus>
<clus scale="   80.217">  5  6 -1 -1</clus>
<clus scale="   89.921">  7  8 -1 -1</clus>
<clus scale="  104.906">  2  5  1 -1</clus>
<clus scale="   70.391">  2  5  1 -1</clus>
</clustering>
</event>
<event>
 9    1  0.8429841E-005  0.8085891E+02  0.7546771E-02  0.1328122E+00
         21   -1    0    0  501  502  0.00000000000E+00  0.00000000000E+00  0.33623188710E+02  0.33623188710E+02  0.00000000000E+00 0. -1.
          1   -1    0    0  502    0 -0.00000000000E+00 -0.00000000000E+00 -0.69846330374E+03  0.69846330374E+03  0.00000000000E+00 0. -1.
        -24    2    1    2    0    0 -0.60031119159E+01  0.15768415210E+02 -0.60478197260E+03  0.61023457995E+03  0.79626176084E+02 0.  0.
         23    2    1    2    0    0 -0.95797809204E+01  0.33366041798E+01 -0.57580599864E+02  0.97073564442E+02  0.77490943359E+02 0.  0.
         11    1    3    3    0    0 -0.28909441755E+01  0.40735879985E+02 -0.17439470614E+03  0.17911248702E+03  0.00000000000E+00 0. -1.
        -12    1    3    3    0    0 -0.31121677404E+01 -0.24967464775E+02 -0.43038726646E+03  0.43112209293E+03  0.00000000000E+00 0.  1.
        -13    1    4    4    0    0  0.22149971072E+02 -0.92934068881E+01  0.61270355441E+01  0.24789699365E+02  0.00000000000E+00 0.  1.
         13    1    4    4    0    0 -0.31729751992E+02  0.12630011068E+02 -0.63707635409E+02  0.72283865076E+02  0.00000000000E+00 0. -1.
          2    1    1    2  501    0  0.15582892836E+02 -0.19105019390E+02 -0.24775425619E+01  0.24778348052E+02  0.00000000000E+00 0. -1.
<scales pt_clust_5="13000.00000" pt_clust_6="13000.00000" pt_clust_7="13000.00000" pt_clust_8="13000.00000" pt_clust_9="24.65417"></scales>
<clustering>
<clus scale="   24.654">  1  9  2 -1</clus>
<clus scale="   77.491">  7  8 -1 -1</clus>
<clus scale="   78.757">  1  7  2 -1</clus>
<clus scale="   79.626">  5  6 -1 -1</clus>
<clus scale="   24.654">  1  5  2 -1</clus>
</clustering>
</event>
<event>
 9    1  0.8429841E-005  0.1500703E+03  0.7546771E-02  0.1202987E+00
          1   -1    0    0  502    0 -0.00000000000E+00  0.00000000000E+00  0.73024369849E+03  0.73024369849E+03  0.00000000000E+00 0. -1.
         21   -1    0    0  501  502  0.00000000000E+00 -0.00000000000E+00 -0.79093945862E+02  0.79093945862E+02  0.00000000000E+00 0. -1.
        -24    2    1    2    0    0 -0.41143367193E+02  0.11169513420E+03  0.60733346511E+03  0.62372083102E+03  0.77492951524E+02 0.  0.
         23    2    1    2    0    0  0.61207314877E+02 -0.10229781834E+03  0.55830501568E+02  0.16041338338E+03  0.91674585527E+02 0.  0.
         11    1    3    3    0    0 -0.24767145333E+02  0.10946879397E+03  0.58642799218E+03  0.59707170286E+03  0.00000000000E+00 0. -1.
        -12    1    3    3    0    0 -0.16376221860E+02  0.22263402264E+01  0.20905472925E+02  0.26649128155E+02  0.00000000000E+00 0.  1.
        -11    1    4    4    0    0  0.74717486604E+02 -0.64285546804E+02  0.95645249047E+01  0.99029361651E+02  0.00000000000E+00 0. -1.
         11    1    4    4    0    0 -0.13510171727E+02 -0.38012271536E+02  0.46265976663E+02  0.61384021732E+02  0.00000000000E+00 0.  1.
          2    1    1    2  501    0 -0.20063947685E+02 -0.93973158553E+01 -0.12014214051E+02  0.25203429950E+02  0.00000000000E+00 0. -1.
<scales pt_clust_5="13000.00000" pt_clust_6="13000.00000" pt_clust_7="13000.00000" pt_clust_8="13000.00000" pt_clust_9="22.15562"></scales>
<clustering>
<clus scale="   22.156">  2  9  1 -1</clus>
<clus scale="   77.493">  5  6 -1 -1</clus>
<clus scale="   91.675">  7  8 -1 -1</clus>
<clus scale="  141.852">  1  5  2 -1</clus>
<clus scale="   22.156">  2  5  1 -1</clus>
</clustering>
</event>
<event>
 9    1  0.8429841E-005  0.1090612E+03  0.7546771E-02  0.1263857E+00
          1   -1    0    0  502    0 -0.00000000000E+00  0.00000000000E+00  0.14418040755E+03  0.14418040755E+03  0.00000000000E+00 0. -1.
         21   -1    0    0  501  502  0.00000000000E+00 -0.00000000000E+00 -0.26485349982E+03  0.26485349982E+03  0.00000000000E+00 0. -1.
        -24    2    1    2    0    0 -0.63577260911E+02  0.27745047817E+02  0.10323718399E+03  0.14913368433E+03  0.82286595866E+02 0.  0.
         23    2    1    2    0    0  0.43136530955E+02 -0.41932857458E+01 -0.19370678594E+03  0.21648640307E+03  0.86404281397E+02 0.  0.
         11    1    3    3    0    0 -0.12574758550E+02 -0.17987904253E+02  0.69284402397E+02  0.72677490790E+02  0.00000000000E+00 0. -1.
        -12    1    3    3    0    0 -0.51002502361E+02  0.45732952070E+02  0.33952781594E+02  0.76456193537E+02  0.00000000000E+00 0.  1.
        -11    1    4    4    0    0  0.30213105584E+02 -0.30215065199E+02 -0.35263410434E+02  0.55401173538E+02  0.00000000000E+00 0.  1.
         11    1    4    4    0    0  0.12923425372E+02  0.26021779453E+02 -0.15844337551E+03  0.16108522953E+03  0.00000000000E+00 0. -1.
          2    1    1    2  501    0  0.20440729956E+02 -0.23551762071E+02 -0.30203490315E+02  0.43413819977E+02  0.00000000000E+00 0. -1.
<scales pt_clust_5="13000.00000" pt_clust_6="13000.00000" pt_clust_7="13000.00000" pt_clust_8="13000.00000" pt_clust_9="31.18508"></scales>
<clustering>
<clus scale="   31.185">  2  9  1 -1</clus>
<clus scale="   82.287">  5  6 -1 -1</clus>
<clus scale="   86.404">  7  8 -1 -1</clus>
<clus scale="  105.829">  1  5  2 -1</clus>
<clus scale="   31.185">  2  5  1 -1</clus>
</clustering>
</event>
<event>
 9    1  0.8429841E-005  0.9342359E+02  0.7546771E-02  0.1301746E+00
          1   -1    0    0  502    0 -0.00000000000E+00  0.00000000000E+00  0.28416911393E+03  0.28416911393E+03  0.00000000000E+00 0. -1.
         21   -1    0    0  501  502  0.00000000000E+00 -0.00000000000E+00 -0.23759387414E+03  0.23759387414E+03  0.00000000000E+00 0. -1.
        -24    2    1    2    0    0 -0.23110445826E+01 -0.15036732520E+02  0.23856487322E+03  0.25214919567E+03  0.80215795777E+02 0.  0.
         23    2    1    2    0    0  0.11441514908E+02  0.39219556064E+02 -0.28941806523E+02  0.10452966748E+03  0.91759148742E+02 0.  0.
         13    1    3    3    0    0 -0.40318434233E+02 -0.13688904513E+02  0.14582681306E+03  0.15191583740E+03  0.00000000000E+00 0. -1.
        -14    1    3    3    0    0  0.38007389650E+02 -0.13478280070E+01  0.92738060152E+02  0.10023335827E+03  0.00000000000E+00 0.  1.
        -13    1    4    4    0    0 -0.22167501607E+02  0.55438324771E+02 -0.44056844097E+01  0.59868322475E+02  0.00000000000E+00 0. -1.
         13    1    4    4    0    0  0.33609016515E+02 -0.16218768707E+02 -0.24536122113E+02  0.44661345007E+02  0.00000000000E+00 0.  1.
          2    1    1    2  501    0 -0.91304703251E+01 -0.24182823544E+02 -0.16304782691E+03  0.16508412492E+03  0.00000000000E+00 0. -1.
<scales pt_clust_5="13000.00000" pt_clust_6="13000.00000" pt_clust_7="13000.00000" pt_clust_8="13000.00000" pt_clust_9="25.84907"></scales>
<clustering>
<clus scale="   25.849">  2  9  1 -1</clus>
<clus scale="   80.216">  5  6 -1 -1</clus>
<clus scale="   82.115">  1  5  2 -1</clus>
<clus scale="   91.759">  7  8 -1 -1</clus>
<clus scale="   25.849">  2  5  1 -1</clus>
</clustering>
</event>
<event>
 9    1  0.8429841E-005  0.1472866E+03  0.7546771E-02  0.1205459E+00
         -4   -1    0    0    0  501 -0.00000000000E+00  0.00000000000E+00  0.58911608057E+03  0.58911608057E+03  0.00000000000E+00 0.  1.
         21   -1    0    0  501  502  0.00000000000E+00 -0.00000000000E+00 -0.81241841271E+02  0.81241841271E+02  0.00000000000E+00 0.  1.
        -24    2    1    2    0    0  0.91146487545E+01  0.88094156174E+02  0.92151083227E+02  0.15149134824E+03  0.81327420213E+02 0.  0.
         23    2    1    2    0    0  0.97112259706E+02 -0.13634060104E+03  0.21681940449E+03  0.28827043764E+03  0.89831178205E+02 0.  0.
         13    1    3    3    0    0  0.38400829475E+02  0.26827259078E+02  0.60650228783E+02  0.76634038035E+02  0.00000000000E+00 0. -1.
        -14    1    3    3    0    0 -0.29286180720E+02  0.61266897096E+02  0.31500854443E+02  0.74857310208E+02  0.00000000000E+00 0.  1.
        -13    1    4    4    0    0  0.58408220383E+02 -0.16672058937E+02  0.97698872086E+02  0.11504150279E+03  0.00000000000E+00 0. -1.
         13    1    4    4    0    0  0.38704039322E+02 -0.11966854211E+03  0.11912053240E+03  0.17322893485E+03  0.00000000000E+00 0.  1.
         -3    1    1    2    0  502 -0.10622690846E+03  0.48246444870E+02  0.19890375158E+03  0.23059613595E+03  0.00000000000E+00 0.  1.
<scales pt_clust_5="13000.00000" pt_clust_6="13000.00000" pt_clust_7="13000.00000" pt_clust_8="13000.00000" pt_clust_9="116.67000"></scales>
<clustering>
<clus scale="   81.327">  5  6 -1 -1</clus>
<clus scale="   89.831">  7  8 -1 -1</clus>
<clus scale="  116.670">  2  9  1 -1</clus>
<clus scale="  142.260">  1  5  2 -1</clus>
<clus scale="  116.670">  2  5  1 -1</clus>
</clustering>
</event>
<event>
 9    1  0.8429841E-005  0.1307501E+03  0.7546771E-02  0.1230011E+00
          1   -1    0    0  502    0 -0.00000000000E+00  0.00000000000E+00  0.31589023706E+03  0.31589023706E+03  0.00000000000E+00 0. -1.
         21   -1    0    0  501  502  0.00000000000E+00 -0.00000000000E+00 -0.70235405991E+02  0.70235405991E+02  0.00000000000E+00 0. -1.
         23    2    1    2    0    0 -0.27927637686E+02  0.94736795680E+02  0.10716594052E+03  0.17198554005E+03  0.91320719329E+02 0.  0.
        -24    2    1    2    0    0 -0.98987549820E+01 -0.91558104967E+02  0.79491402702E+02  0.14398567598E+03  0.77020256098E+02 0.  0.
         11    1    4    4    0    0 -0.22407650316E+02 -0.82253617553E+02  0.90934475785E+02  0.12464685828E+03  0.00000000000E+00 0. -1.
        -12    1    4    4    0    0  0.12508895334E+02 -0.93044874133E+01 -0.11443073083E+02  0.19338817701E+02  0.00000000000E+00 0.  1.
        -13    1    3    3    0    0  0.18206921210E+02  0.14472632267E+02  0.67269009885E+02  0.71176321594E+02  0.00000000000E+00 0.  1.
         13    1    3    3    0    0 -0.46134558896E+02  0.80264163413E+02  0.39896930631E+02  0.10080921846E+03  0.00000000000E+00 0. -1.
          2    1    1    2  501    0  0.37826392668E+02 -0.31786907134E+01  0.58997487855E+02  0.70154427017E+02  0.00000000000E+00 0. -1.
<scales pt_clust_5="13000.00000" pt_clust_6="13000.00000" pt_clust_7="13000.00000" pt_clust_8="13000.00000" pt_clust_9="37.95974"></scales>
<clustering>
<clus scale="   37.960">  2  9  1 -1</clus>
<clus scale="   77.020">  5  6 -1 -1</clus>
<clus scale="   91.321">  7  8 -1 -1</clus>
<clus scale="  121.195">  2  5  1 -1</clus>
<clus scale="   37.960">  2  5  1 -1</clus>
</clustering>
</event>
<event>
 9    1  0.8429841E-005  0.1065284E+03  0.7546771E-02  0.1270805E+00
         -2   -1    0    0    0  501 -0.00000000000E+00  0.00000000000E+00  0.10028998423E+03  0.10028998423E+03  0.00000000000E+00 0.  1.
         21   -1    0    0  501  502  0.00000000000E+00 -0.00000000000E+00 -0.23533833230E+03  0.23533833230E+03  0.00000000000E+00 0.  1.
         23    2    1    2    0    0 -0.42447141659E+02  0.73002733678E+02  0.56542007353E+00  0.12298107006E+03  0.89402823972E+02 0.  0.
        -24    2    1    2    0    0  0.37326199242E+02 -0.18707128740E+01 -0.52631342869E+02  0.10323028554E+03  0.80558605280E+02 0.  0.
         13    1    4    4    0    0  0.21398492498E+02 -0.39191924849E+01  0.19571834421E+02  0.29262813493E+02  0.00000000000E+00 0. -1.
        -14    1    4    4    0    0  0.15927706743E+02  0.20484796108E+01 -0.72203177290E+02  0.73967472050E+02  0.00000000000E+00 0.  1.
        -11    1    3    3    0    0 -0.12133778193E+02  0.83012884805E+02  0.19135162411E+02  0.86049532581E+02  0.00000000000E+00 0.  1.
         11    1    3    3    0    0 -0.30313363466E+02 -0.10010151127E+02 -0.18569742338E+02  0.36931537481E+02  0.00000000000E+00 0. -1.
         -1    1    1    2    0  502  0.51209424177E+01 -0.71132020804E+02 -0.82982425267E+02  0.10941696093E+03  0.00000000000E+00 0.  1.
<scales pt_clust_5="13000.00000" pt_clust_6="13000.00000" pt_clust_7="13000.00000" pt_clust_8="13000.00000" pt_clust_9="71.31612"></scales>
<clustering>
<clus scale="   71.316">  2  9  1 -1</clus>
<clus scale="   80.559">  5  6 -1 -1</clus>
<clus scale="   89.403">  7  8 -1 -1</clus>
<clus scale="   99.223">  2  5  1 -1</clus>
<clus scale="   71.316">  2  5  1 -1</clus>
</clustering>
</event>
<event>
 9    1  0.8429841E-005  0.1065366E+03  0.7546771E-02  0.1273082E+00
          1   -1    0    0  502    0 -0.00000000000E+00  0.00000000000E+00  0.12390992235E+03  0.12390992235E+03  0.00000000000E+00 0. -1.
         21   -1    0    0  501  502  0.00000000000E+00 -0.00000000000E+00 -0.80515979493E+03  0.80515979493E+03  0.00000000000E+00 0. -1.
        -24    2    1    2    0    0  0.35639347104E+01  0.54354192999E+02  0.77374033390E+02  0.12269607101E+03  0.78105728802E+02 0.  0.
         23    2    1    2    0    0 -0.95634728093E+02 -0.35530799947E+02 -0.21785595486E+03  0.25750086677E+03  0.91853363345E+02 0.  0.
         13    1    3    3    0    0 -0.36430084878E+02  0.31693154397E+02  0.48347871560E+02  0.68330987145E+02  0.00000000000E+00 0. -1.
        -14    1    3    3    0    0  0.39994019588E+02  0.22661038602E+02  0.29026161830E+02  0.54365083868E+02  0.00000000000E+00 0.  1.
        -13    1    4    4    0    0  0.10712826306E+02 -0.21098203203E+02 -0.15033535873E+02  0.28034015529E+02  0.00000000000E+00 0.  1.
         13    1    4    4    0    0 -0.10634755440E+03 -0.14432596744E+02 -0.20282241899E+03  0.22946685124E+03  0.00000000000E+00 0. -1.
          2    1    1    2  501    0  0.92070793383E+02 -0.18823393053E+02 -0.54076795111E+03  0.54887277950E+03  0.00000000000E+00 0. -1.
<scales pt_clust_5="13000.00000" pt_clust_6="13000.00000" pt_clust_7="13000.00000" pt_clust_8="13000.00000" pt_clust_9="93.97527"></scales>
<clustering>
<clus scale="   78.106">  5  6 -1 -1</clus>
<clus scale="   91.853">  7  8 -1 -1</clus>
<clus scale="   93.975">  2  9  1 -1</clus>
<clus scale="   94.939">  1  5  2 -1</clus>
<clus scale="   93.975">  2  5  1 -1</clus>
</clustering>
</event>
<event>
 9    1  0.8429841E-005  0.9172194E+02  0.7546771E-02  0.1304771E+00
         21   -1    0    0  501  502  0.00000000000E+00  0.00000000000E+00  0.15780818317E+03  0.15780818317E+03  0.00000000000E+00 0. -1.
         -2   -1    0    0    0  501 -0.00000000000E+00 -0.00000000000E+00 -0.70770775118E+02  0.70770775118E+02  0.00000000000E+00 0.  1.
        -24    2    1    2    0    0 -0.19376136117E+02  0.34471281296E+01 -0.58605690789E+00  0.82460757939E+02  0.80075687908E+02 0.  0.
         23    2    1    2    0    0  0.71179303559E+01 -0.21513531691E+02  0.81454928964E+02  0.12343099289E+03  0.89926678881E+02 0.  0.
         11    1    3    3    0    0 -0.15319929441E+02  0.38278107275E+02  0.15282212828E+02  0.43971124202E+02  0.00000000000E+00 0. -1.
        -12    1    3    3    0    0 -0.40562066761E+01 -0.34830979145E+02 -0.15868269736E+02  0.38489633737E+02  0.00000000000E+00 0.  1.
        -11    1    4    4    0    0  0.61333979524E+00 -0.46834595102E+02  0.10762301085E+02  0.48059157386E+02  0.00000000000E+00 0.  1.
         11    1    4    4    0    0  0.65045905607E+01  0.25321063411E+02  0.70692627878E+02  0.75371835502E+02  0.00000000000E+00 0. -1.
         -1    1    1    2    0  502  0.12258205761E+02  0.18066403561E+02  0.61685359979E+01  0.22687207463E+02  0.00000000000E+00 0.  1.
<scales pt_clust_5="13000.00000" pt_clust_6="13000.00000" pt_clust_7="13000.00000" pt_clust_8="13000.00000" pt_clust_9="21.83252"></scales>
<clustering>
<clus scale="   21.833">  1  9  2 -1</clus>
<clus scale="   80.076">  5  6 -1 -1</clus>
<clus scale="   82.087">  2  5  1 -1</clus>
<clus scale="   89.927">  7  8 -1 -1</clus>
<clus scale="   21.833">  1  5  2 -1</clus>
</clustering>
</event>
<event>
 9    1  0.8429841E-005  0.1753376E+03  0.7546771E-02  0.1173688E+00
         21   -1    0    0  501  502  0.00000000000E+00  0.00000000000E+00  0.14771464333E+03  0.14771464333E+03  0.00000000000E+00 0. -1.
          1   -1    0    0  502    0 -0.00000000000E+00 -0.00000000000E+00 -0.89996440247E+03  0.89996440247E+03  0.00000000000E+00 0. -1.
         23    2    1    2    0    0 -0.46636509060E+00  0.11377077173E+03 -0.23844200720E+03  0.27926854958E+03  0.90511468817E+02 0.  0.
        -24    2    1    2    0    0  0.13790842792E+03 -0.15343165805E+03 -0.57249128919E+03  0.61379140269E+03  0.80209735337E+02 0.  0.
         11    1    4    4    0    0  0.45332445966E+02 -0.23777513017E+02 -0.70483980522E+02  0.87111378664E+02  0.00000000000E+00 0. -1.
        -12    1    4    4    0    0  0.92575981953E+02 -0.12965414503E+03 -0.50200730867E+03  0.52668002403E+03  0.00000000000E+00 0.  1.
        -11    1    3    3    0    0 -0.20028217599E+02  0.94093019655E+02 -0.23146148894E+03  0.25065722952E+03  0.00000000000E+00 0. -1.
         11    1    3    3    0    0  0.19561852509E+02  0.19677752079E+02 -0.69805182665E+01  0.28611320063E+02  0.00000000000E+00 0.  1.
          2    1    1    2  501    0 -0.13744206283E+03  0.39660886312E+02  0.58683537251E+02  0.15461909352E+03  0.00000000000E+00 0. -1.
<scales pt_clust_5="13000.00000" pt_clust_6="13000.00000" pt_clust_7="13000.00000" pt_clust_8="13000.00000" pt_clust_9="143.05001"></scales>
<clustering>
<clus scale="   80.210">  5  6 -1 -1</clus>
<clus scale="   90.511">  7  8 -1 -1</clus>
<clus scale="  143.050">  1  9  2 -1</clus>
<clus scale="  170.249">  1  5  2 -1</clus>
<clus scale="  143.050">  1  5  2 -1</clus>
</clustering>
</event>
<event>
 9    1  0.8429841E-005  0.1167232E+03  0.7546771E-02  0.1251627E+00
          1   -1    0    0  502    0 -0.00000000000E+00  0.00000000000E+00  0.49622034181E+03  0.49622034181E+03  0.00000000000E+00 0. -1.
         21   -1    0    0  501  502  0.00000000000E+00 -0.00000000000E+00 -0.51443542232E+02  0.51443542232E+02  0.00000000000E+00 0.  1.
         23    2    1    2    0    0 -0.76513254186E+02 -0.31820653354E+02  0.36665758874E+03  0.38641233438E+03  0.89497892350E+02 0.  0.
        -24    2    1    2    0    0  0.57190938210E+02  0.90297989006E+01  0.85073468257E+02  0.13057359932E+03  0.80371818169E+02 0.  0.
         13    1    4    4    0    0  0.27528662687E+02  0.45125443028E+01  0.94967688299E+02  0.98980059336E+02  0.00000000000E+00 0. -1.
        -14    1    4    4    0    0  0.29662275523E+02  0.45172545978E+01 -0.98942200413E+01  0.31593539981E+02  0.00000000000E+00 0.  1.
        -11    1    3    3    0    0 -0.87655513852E+02 -0.75681491465E+00  0.28984258612E+03  0.30280816800E+03  0.00000000000E+00 0. -1.
         11    1    3    3    0    0  0.11142259666E+02 -0.31063838439E+02  0.76815002616E+02  0.83604166379E+02  0.00000000000E+00 0.  1.
          2    1    1    2  501    0  0.19322315976E+02  0.22790854453E+02 -0.69542574148E+01  0.30677950348E+02  0.00000000000E+00 0. -1.
<scales pt_clust_5="13000.00000" pt_clust_6="13000.00000" pt_clust_7="13000.00000" pt_clust_8="13000.00000" pt_clust_9="29.87934"></scales>
<clustering>
<clus scale="   29.879">  2  9  1 -1</clus>
<clus scale="   80.372">  5  6 -1 -1</clus>
<clus scale="   89.498">  7  8 -1 -1</clus>
<clus scale="  109.882">  2  5  1 -1</clus>
<clus scale="   29.879">  2  5  1 -1</clus>
</clustering>
</event>
<event>
 9    1  0.8429841E-005  0.1295229E+03  0.7546771E-02  0.1232265E+00
         21   -1    0    0  501  502  0.00000000000E+00  0.00000000000E+00  0.52500289369E+02  0.52500289369E+02  0.00000000000E+00 0.  1.
         -2   -1    0    0    0  501 -0.00000000000E+00 -0.00000000000E+00 -0.75499509019E+03  0.75499509019E+03  0.00000000000E+00 0.  1.
         23    2    1    2    0    0  0.27859693282E+02  0.63192132087E+02 -0.28034485847E+03  0.30295252191E+03  0.91747385761E+02 0.  0.
        -24    2    1    2    0    0 -0.12571700147E+03 -0.92431990057E+02 -0.25038644795E+03  0.30470862618E+03  0.76194070007E+02 0.  0.
         11    1    4    4    0    0 -0.41020545148E+02 -0.15484281081E+02 -0.13607007317E+03  0.14295982967E+03  0.00000000000E+00 0. -1.
        -12    1    4    4    0    0 -0.84696456322E+02 -0.76947708976E+02 -0.11431637478E+03  0.16174879651E+03  0.00000000000E+00 0.  1.
        -13    1    3    3    0    0  0.21448132177E+02  0.84979746518E+02 -0.18179098669E+03  0.20181561519E+03  0.00000000000E+00 0. -1.
         13    1    3    3    0    0  0.64115611051E+01 -0.21787614432E+02 -0.98553871783E+02  0.10113690672E+03  0.00000000000E+00 0.  1.
         -1    1    1    2    0  502  0.97857308187E+02  0.29239857970E+02 -0.17176349439E+03  0.19983423146E+03  0.00000000000E+00 0.  1.
<scales pt_clust_5="13000.00000" pt_clust_6="13000.00000" pt_clust_7="13000.00000" pt_clust_8="13000.00000" pt_clust_9="102.13238"></scales>
<clustering>
<clus scale="   76.194">  5  6 -1 -1</clus>
<clus scale="   91.747">  7  8 -1 -1</clus>
<clus scale="  102.132">  1  9  2 -1</clus>
<clus scale="  119.013">  1  5  2 -1</clus>
<clus scale="  102.132">  1  5  2 -1</clus>
</clustering>
</event>
<event>
 9    1  0.8429841E-005  0.1146940E+03  0.7546771E-02  0.1253683E+00
          1   -1    0    0  502    0 -0.00000000000E+00  0.00000000000E+00  0.19429929923E+03  0.19429929923E+03  0.00000000000E+00 0. -1.
         21   -1    0    0  501  502  0.00000000000E+00 -0.00000000000E+00 -0.19803769904E+03  0.19803769904E+03  0.00000000000E+00 0.  1.
        -24    2    1    2    0    0  0.15047394819E+01 -0.89444596401E+02  0.51384210669E+02  0.13573215957E+03  0.88205906655E+02 0.  0.
         23    2    1    2    0    0 -0.23870822749E+02  0.18477318374E+02 -0.12577245628E+03  0.15399881090E+03  0.83580473352E+02 0.  0.
         11    1    3    3    0    0  0.40160930573E+02 -0.72069808002E+02  0.26858972966E+02  0.86766133939E+02  0.00000000000E+00 0. -1.
        -12    1    3    3    0    0 -0.38656191091E+02 -0.17374788399E+02  0.24525237703E+02  0.48966025629E+02  0.00000000000E+00 0.  1.
        -13    1    4    4    0    0 -0.51286849735E+02  0.20506463129E+02 -0.54446045052E+02  0.77557899711E+02  0.00000000000E+00 0.  1.
         13    1    4    4    0    0  0.27416026986E+02 -0.20291447550E+01 -0.71326411227E+02  0.76440911184E+02  0.00000000000E+00 0. -1.
          2    1    1    2  501    0  0.22366083267E+02  0.70967278027E+02  0.70649845794E+02  0.10260602781E+03  0.00000000000E+00 0. -1.
<scales pt_clust_5="13000.00000" pt_clust_6="13000.00000" pt_clust_7="13000.00000" pt_clust_8="13000.00000" pt_clust_9="74.40834"></scales>
<clustering>
<clus scale="   74.408">  2  9  1 -1</clus>
<clus scale="   83.580">  7  8 -1 -1</clus>
<clus scale="   88.206">  5  6 -1 -1</clus>
<clus scale="  111.176">  2  7  1 -1</clus>
<clus scale="   74.408">  2  5  1 -1</clus>
</clustering>
</event>
<event>
 9    1  0.8429841E-005  0.1027235E+03  0.7546771E-02  0.1278421E+00
         -2   -1    0    0    0  501 -0.00000000000E+00  0.00000000000E+00  0.29272270168E+03  0.29272270168E+03  0.00000000000E+00 0.  1.
         21   -1    0    0  501  502  0.00000000000E+00 -0.00000000000E+00 -0.48765879848E+02  0.48765879848E+02  0.00000000000E+00 0.  1.
         23    2    1    2    0    0  0.38983634312E+02 -0.41008000896E+02  0.15754392880E+03  0.19024996104E+03  0.90407844203E+02 0.  0.
        -24    2    1    2    0    0 -0.12427444372E+02  0.39856908277E+02  0.83656385904E+02  0.12451494990E+03  0.82234830420E+02 0.  0.
         11    1    4    4    0    0 -0.22636173883E+02 -0.19896068506E+02  0.17775539108E+02  0.34988851091E+02  0.00000000000E+00 0. -1.
        -12    1    4    4    0    0  0.10208729511E+02  0.59752976784E+02  0.65880846796E+02  0.89526098806E+02  0.00000000000E+00 0.  1.
        -11    1    3    3    0    0  0.13090358961E+02 -0.26760768345E+02 -0.16947683861E+00  0.29791356843E+02  0.00000000000E+00 0.  1.
         11    1    3    3    0    0  0.25893275350E+02 -0.14247232551E+02  0.15771340563E+03  0.16045860420E+03  0.00000000000E+00 0. -1.
         -1    1    1    2    0  502 -0.26556189940E+02  0.11510926189E+01  0.27565071318E+01  0.26723670592E+02  0.00000000000E+00 0.  1.
<scales pt_clust_5="13000.00000" pt_clust_6="13000.00000" pt_clust_7="13000.00000" pt_clust_8="13000.00000" pt_clust_9="26.58113"></scales>
<clustering>
<clus scale="   26.581">  2  9  1 -1</clus>
<clus scale="   82.235">  5  6 -1 -1</clus>
<clus scale="   90.408">  7  8 -1 -1</clus>
<clus scale="   95.609">  2  5  1 -1</clus>
<clus scale="   26.581">  2  5  1 -1</clus>
</clustering>
</event>
<event>
 9    1  0.8429841E-005  0.1028672E+03  0.7546771E-02  0.1278589E+00
          1   -1    0    0  502    0 -0.00000000000E+00  0.00000000000E+00  0.36474887655E+02  0.36474887655E+02  0.00000000000E+00 0. -1.
         21   -1    0    0  501  502  0.00000000000E+00 -0.00000000000E+00 -0.44983417204E+03  0.44983417204E+03  0.00000000000E+00 0.  1.
         23    2    1    2    0    0 -0.59363445068E+02  0.33408316406E+02 -0.10491312902E+03  0.15327999135E+03  0.88588130652E+02 0.  0.
        -24    2    1    2    0    0  0.24792914347E+02 -0.15039010932E+02 -0.18062362168E+03  0.19934603616E+03  0.79202834356E+02 0.  0.
         13    1    4    4    0    0 -0.28749156852E+01 -0.29048844230E+02 -0.19127888101E+02  0.34899521408E+02  0.00000000000E+00 0. -1.
        -14    1    4    4    0    0  0.27667830032E+02  0.14009833298E+02 -0.16149573358E+03  0.16444651475E+03  0.00000000000E+00 0.  1.
        -11    1    3    3    0    0 -0.37505701278E+02 -0.26174027059E+02 -0.28254823841E+02  0.53759579529E+02  0.00000000000E+00 0.  1.
         11    1    3    3    0    0 -0.21857743789E+02  0.59582343465E+02 -0.76658305179E+02  0.99520411822E+02  0.00000000000E+00 0. -1.
          2    1    1    2  501    0  0.34570530720E+02 -0.18369305474E+02 -0.12782253368E+03  0.13368303219E+03  0.00000000000E+00 0. -1.
<scales pt_clust_5="13000.00000" pt_clust_6="13000.00000" pt_clust_7="13000.00000" pt_clust_8="13000.00000" pt_clust_9="39.14783"></scales>
<clustering>
<clus scale="   39.148">  2  9  1 -1</clus>
<clus scale="   79.203">  5  6 -1 -1</clus>
<clus scale="   88.588">  7  8 -1 -1</clus>
<clus scale="   94.905">  2  5  1 -1</clus>
<clus scale="   39.148">  2  5  1 -1</clus>
</clustering>
</event>
<event>
 9    1  0.8429841E-005  0.1160462E+03  0.7546771E-02  0.1250191E+00
          1   -1    0    0  502    0 -0.00000000000E+00  0.00000000000E+00  0.10316713027E+03  0.10316713027E+03  0.00000000000E+00 0. -1.
         21   -1    0    0  501  502  0.00000000000E+00 -0.00000000000E+00 -0.16063653780E+03  0.16063653780E+03  0.00000000000E+00 0.  1.
         23    2    1    2    0    0  0.54888710498E+02 -0.53263273073E+02 -0.24009572052E+02  0.11788109745E+03  0.86427696879E+02 0.  0.
        -24    2    1    2    0    0 -0.40839863688E+02  0.68815488783E+02 -0.40768493317E+02  0.12372667033E+03  0.85104364999E+02 0.  0.
         11    1    4    4    0    0  0.24572881775E+02  0.31246908853E+02 -0.44333441433E+01  0.39998129605E+02  0.00000000000E+00 0. -1.
        -12    1    4    4    0    0 -0.65412745464E+02  0.37568579930E+02 -0.36335149173E+02  0.83728540728E+02  0.00000000000E+00 0.  1.
        -13    1    3    3    0    0  0.60170872454E+02 -0.28568175332E+02 -0.48738930142E+02  0.82535797356E+02  0.00000000000E+00 0.  1.
         13    1    3    3    0    0 -0.52821619564E+01 -0.24695097741E+02  0.24729358090E+02  0.35345300097E+02  0.00000000000E+00 0. -1.
          2    1    1    2  501    0 -0.14048846809E+02 -0.15552215709E+02  0.73086578370E+01  0.22195900286E+02  0.00000000000E+00 0. -1.
<scales pt_clust_5="13000.00000" pt_clust_6="13000.00000" pt_clust_7="13000.00000" pt_clust_8="13000.00000" pt_clust_9="20.95810"></scales>
<clustering>
<clus scale="   20.958">  2  9  1 -1</clus>
<clus scale="   85.104">  5  6 -1 -1</clus>
<clus scale="   86.428">  7  8 -1 -1</clus>
<clus scale="  115.064">  2  5  1 -1</clus>
<clus scale="   20.958">  2  5  1 -1</clus>
</clustering>
</event>
<event>
 9    1  0.8429841E-005  0.1168778E+03  0.7546771E-02  0.1252705E+00
          1   -1    0    0  502    0 -0.00000000000E+00  0.00000000000E+00  0.84089470153E+02  0.84089470153E+02  0.00000000000E+00 0. -1.
         21   -1    0    0  501  502  0.00000000000E+00 -0.00000000000E+00 -0.20480771662E+03  0.20480771662E+03  0.00000000000E+00 0.  1.
         23    2    1    2    0    0 -0.92310956297E+01  0.77804542442E+02 -0.70837929322E+01  0.12209763051E+03  0.93375003632E+02 0.  0.
        -24    2    1    2    0    0  0.39167923019E+00 -0.56014449754E+02 -0.95749551810E+02  0.13725614530E+03  0.80830073339E+02 0.  0.
         13    1    4    4    0    0 -0.31667175281E+02 -0.57349708089E+02 -0.56098573783E+02  0.86248762244E+02  0.00000000000E+00 0. -1.
        -14    1    4    4    0    0  0.32058854511E+02  0.13352583346E+01 -0.39650978027E+02  0.51007383053E+02  0.00000000000E+00 0.  1.
        -13    1    3    3    0    0 -0.33680479195E+02  0.68606835079E+02  0.25285783057E+02  0.80502442964E+02  0.00000000000E+00 0.  1.
         13    1    3    3    0    0  0.24449383565E+02  0.91977073629E+01 -0.32369575989E+02  0.41595187548E+02  0.00000000000E+00 0. -1.
          2    1    1    2  501    0  0.88394163995E+01 -0.21790092688E+02 -0.17884901723E+02  0.29543410962E+02  0.00000000000E+00 0. -1.
<scales pt_clust_5="13000.00000" pt_clust_6="13000.00000" pt_clust_7="13000.00000" pt_clust_8="13000.00000" pt_clust_9="23.51475"></scales>
<clustering>
<clus scale="   23.515">  2  9  1 -1</clus>
<clus scale="   80.830">  5  6 -1 -1</clus>
<clus scale="   93.375">  7  8 -1 -1</clus>
<clus scale="  107.122">  2  5  1 -1</clus>
<clus scale="   23.515">  2  5  1 -1</clus>
</clustering>
</event>
<event>
 9    1  0.8429841E-005  0.1345702E+03  0.7546771E-02  0.1240108E+00
          1   -1    0    0  502    0 -0.00000000000E+00  0.00000000000E+00  0.10103855906E+04  0.10103855906E+04  0.00000000000E+00 0. -1.
         21   -1    0    0  501  502  0.00000000000E+00 -0.00000000000E+00 -0.60932208854E+02  0.60932208854E+02  0.00000000000E+00 0. -1.
        -24    2    1    2    0    0  0.53745964750E+02 -0.49817048568E+02  0.42022473002E+03  0.42983862579E+03  0.52934425854E+02 0.  0.
         23    2    1    2    0    0 -0.21399151422E+02 -0.93293282369E+02  0.48077147284E+02  0.13845466793E+03  0.87730968096E+02 0.  0.
         13    1    3    3    0    0  0.61771190366E+02 -0.52714134952E+02  0.39323675637E+03  0.40153406648E+03  0.00000000000E+00 0. -1.
        -14    1    3    3    0    0 -0.80252256158E+01  0.28970863840E+01  0.26987973650E+02  0.28304559305E+02  0.00000000000E+00 0.  1.
        -11    1    4    4    0    0  0.30290493957E+02 -0.20310829813E+02  0.29976343644E+02  0.47208315052E+02  0.00000000000E+00 0.  1.
         11    1    4    4    0    0 -0.51689645378E+02 -0.72982452557E+02  0.18100803640E+02  0.91246352875E+02  0.00000000000E+00 0. -1.
          2    1    1    2  501    0 -0.32346813329E+02  0.14311033094E+03  0.48115150448E+03  0.50302450578E+03  0.00000000000E+00 0. -1.
<scales pt_clust_5="13000.00000" pt_clust_6="13000.00000" pt_clust_7="13000.00000" pt_clust_8="13000.00000" pt_clust_9="102.04132"></scales>
<clustering>
<clus scale="   52.934">  5  6 -1 -1</clus>
<clus scale="   87.731">  7  8 -1 -1</clus>
<clus scale="   90.401">  1  5  2 -1</clus>
<clus scale="  102.041">  2  9  1 -1</clus>
<clus scale="  102.041">  2  5  1 -1</clus>
</clustering>
</event>
<event>
 9    1  0.8429841E-005  0.9518777E+02  0.7546771E-02  0.1298128E+00
         21   -1    0    0  501  502  0.00000000000E+00  0.00000000000E+00  0.25220789410E+03  0.25220789410E+03  0.00000000000E+00 0. -1.
          1   -1    0    0  502    0 -0.00000000000E+00 -0.00000000000E+00 -0.17515474327E+03  0.17515474327E+03  0.00000000000E+00 0. -1.
        -24    2    1    2    0    0 -0.19500389475E+02  0.24972182947E+01 -0.11220963797E+03  0.13933633695E+03  0.80231606333E+02 0.  0.
         23    2    1    2    0    0  0.44187337644E+02 -0.25862468421E+02  0.21872188291E+03  0.24304609867E+03  0.92794158940E+02 0.  0.
         11    1    3    3    0    0  0.97314436285E+01 -0.32265460364E+02 -0.28662901055E+02  0.44241641296E+02  0.00000000000E+00 0. -1.
        -12    1    3    3    0    0 -0.29231833104E+02  0.34762678659E+02 -0.83546736910E+02  0.95094695659E+02  0.00000000000E+00 0.  1.
        -13    1    4    4    0    0  0.72126008754E+02 -0.17467946501E+02  0.17890431127E+03  0.19368542249E+03  0.00000000000E+00 0. -1.
         13    1    4    4    0    0 -0.27938671109E+02 -0.83945219194E+01  0.39817571638E+02  0.49360676178E+02  0.00000000000E+00 0.  1.
          2    1    1    2  501    0 -0.24686948169E+02  0.23365250126E+02 -0.29459094107E+02  0.44980201745E+02  0.00000000000E+00 0. -1.
<scales pt_clust_5="13000.00000" pt_clust_6="13000.00000" pt_clust_7="13000.00000" pt_clust_8="13000.00000" pt_clust_9="33.99090"></scales>
<clustering>
<clus scale="   33.991">  1  9  2 -1</clus>
<clus scale="   80.232">  5  6 -1 -1</clus>
<clus scale="   82.988">  2  5  1 -1</clus>
<clus scale="   92.794">  7  8 -1 -1</clus>
<clus scale="   33.991">  1  5  2 -1</clus>
</clustering>
</event>
<event>
 9    1  0.8429841E-005  0.2269128E+03  0.7546771E-02  0.1129268E+00
          1   -1    0    0  502    0 -0.00000000000E+00  0.00000000000E+00  0.65069641798E+03  0.65069641798E+03  0.00000000000E+00 0. -1.
         21   -1    0    0  501  502  0.00000000000E+00 -0.00000000000E+00 -0.12728807627E+03  0.12728807627E+03  0.00000000000E+00 0.  1.
        -24    2    1    2    0    0  0.17644993940E+03 -0.14244354991E+03  0.33309368189E+03  0.41204541691E+03  0.86053928786E+02 0.  0.
         23    2    1    2    0    0 -0.14608505804E+03  0.11746525327E+03  0.22956435168E+03  0.31038298287E+03  0.92189340965E+02 0.  0.
         11    1    3    3    0    0  0.70475362540E+02 -0.76656339294E+02  0.22117575645E+03  0.24446203451E+03  0.00000000000E+00 0. -1.
        -12    1    3    3    0    0  0.10597457686E+03 -0.65787210615E+02  0.11191792544E+03  0.16758338240E+03  0.00000000000E+00 0.  1.
        -11    1    4    4    0    0 -0.39392113097E+02  0.90261302276E+02  0.11680836562E+03  0.15278427780E+03  0.00000000000E+00 0. -1.
         11    1    4    4    0    0 -0.10669294494E+03  0.27203950996E+02  0.11275598605E+03  0.15759870507E+03  0.00000000000E+00 0.  1.
          2    1    1    2  501    0 -0.30364881359E+02  0.24978296637E+02 -0.39249691851E+02  0.55556094475E+02  0.00000000000E+00 0. -1.
<scales pt_clust_5="13000.00000" pt_clust_6="13000.00000" pt_clust_7="13000.00000" pt_clust_8="13000.00000" pt_clust_9="39.31846"></scales>
<clustering>
<clus scale="   39.318">  2  9  1 -1</clus>
<clus scale="   86.054">  5  6 -1 -1</clus>
<clus scale="   92.189">  7  8 -1 -1</clus>
<clus scale="  224.490">  1  5  2 -1</clus>
<clus scale="   39.318">  2  5  1 -1</clus>
</clustering>
</event>
<event>
 9    1  0.1404234E-004  0.1303139E+03  0.7546771E-02  0.1228180E+00
         21   -1    0    0  501  502  0.00000000000E+00  0.00000000000E+00  0.25919869621E+03  0.25919869621E+03  0.00000000000E+00 0.  1.
          1   -1    0    0  502    0 -0.00000000000E+00 -0.00000000000E+00 -0.56192166240E+03  0.56192166240E+03  0.00000000000E+00 0. -1.
         23    2    1    2    0    0  0.18100460677E+01  0.94439043632E+02 -0.44558301321E+03  0.46421349807E+03  0.89598777291E+02 0.  0.
        -24    2    1    2    0    0  0.20872451284E+02 -0.99421063332E+02  0.23072882888E+03  0.26602100338E+03  0.84918635798E+02 0.  0.
         11    1    4    4    0    0 -0.25865509124E+02 -0.24194655969E+02  0.11476879268E+03  0.12010945722E+03  0.00000000000E+00 0. -1.
        -12    1    4    4    0    0  0.46737960407E+02 -0.75226407363E+02  0.11596003620E+03  0.14591154616E+03  0.00000000000E+00 0.  1.
        -11    1    3    3    0    0  0.35126846115E+02  0.86936058668E+02 -0.28460391664E+03  0.29965173616E+03  0.00000000000E+00 0. -1.
         11    1    3    3    0    0 -0.33316800047E+02  0.75029849644E+01 -0.16097909657E+03  0.16456176191E+03  0.00000000000E+00 0.  1.
          2    1    1    2  501    0 -0.22682497351E+02  0.49820196994E+01 -0.87868781856E+02  0.90885857157E+02  0.00000000000E+00 0. -1.
<scales pt_clust_5="13000.00000" pt_clust_6="13000.00000" pt_clust_7="13000.00000" pt_clust_8="13000.00000" pt_clust_9="23.22319"></scales>
<clustering>
<clus scale="   23.223">  1  9  2 -1</clus>
<clus scale="   84.919">  5  6 -1 -1</clus>
<clus scale="   89.599">  7  8 -1 -1</clus>
<clus scale="  127.141">  1  5  2 -1</clus>
<clus scale="   23.223">  1  5  2 -1</clus>
</clustering>
</event>
<event>
 9    1  0.8429841E-005  0.2040235E+03  0.7546771E-02  0.1179330E+00
         21   -1    0    0  501  502  0.00000000000E+00  0.00000000000E+00  0.95261774213E+02  0.95261774213E+02  0.00000000000E+00 0.  1.
         -4   -1    0    0    0  501 -0.00000000000E+00 -0.00000000000E+00 -0.96323557996E+03  0.96323557996E+03  0.00000000000E+00 0.  1.
         23    2    1    2    0    0 -0.13300082823E+02 -0.45026355710E+01 -0.35474119532E+03  0.36727105081E+03  0.94072010592E+02 0.  0.
        -24    2    1    2    0    0 -0.38673777334E+02  0.18409634366E+03 -0.80187393652E+02  0.21954490464E+03  0.79892566953E+02 0.  0.
         13    1    4    4    0    0 -0.29192722189E+02  0.17685171990E+02  0.99205500107E+00  0.34146222489E+02  0.00000000000E+00 0. -1.
        -14    1    4    4    0    0 -0.94810551452E+01  0.16641117167E+03 -0.81179448653E+02  0.18539868216E+03  0.00000000000E+00 0.  1.
        -13    1    3    3    0    0  0.10813584630E+02  0.40227750224E+02 -0.11797915273E+03  0.12511708907E+03  0.00000000000E+00 0.  1.
         13    1    3    3    0    0 -0.24113667453E+02 -0.44730385795E+02 -0.23676204259E+03  0.24215396174E+03  0.00000000000E+00 0. -1.
         -3    1    1    2    0  502  0.51973860157E+02 -0.17959370808E+03 -0.43304521677E+03  0.47168139871E+03  0.00000000000E+00 0.  1.
<scales pt_clust_5="13000.00000" pt_clust_6="13000.00000" pt_clust_7="13000.00000" pt_clust_8="13000.00000" pt_clust_9="187.73070"></scales>
<clustering>
<clus scale="   79.893">  5  6 -1 -1</clus>
<clus scale="   94.072">  7  8 -1 -1</clus>
<clus scale="   95.114">  2  7  1 -1</clus>
<clus scale="  187.731">  1  9  2 -1</clus>
<clus scale="  187.731">  1  5  2 -1</clus>
</clustering>
</event>
<event>
 9    1  0.8429841E-005  0.1311713E+03  0.7546771E-02  0.1227856E+00
          1   -1    0    0  502    0 -0.00000000000E+00  0.00000000000E+00  0.37637213739E+03  0.37637213739E+03  0.00000000000E+00 0. -1.
         21   -1    0    0  501  502  0.00000000000E+00 -0.00000000000E+00 -0.90127669787E+02  0.90127669787E+02  0.00000000000E+00 0. -1.
        -24    2    1    2    0    0 -0.79287828493E+01 -0.12500996967E+03  0.17209566835E+03  0.22854858503E+03  0.83229673417E+02 0.  0.
         23    2    1    2    0    0  0.36381314634E+02  0.40417785470E+02  0.20229267298E+02  0.10838941190E+03  0.91552410780E+02 0.  0.
         11    1    3    3    0    0  0.29386871669E+02 -0.97908139399E+02  0.13515300156E+03  0.16945774051E+03  0.00000000000E+00 0. -1.
        -12    1    3    3    0    0 -0.37315654518E+02 -0.27101830273E+02  0.36942666792E+02  0.59090844520E+02  0.00000000000E+00 0.  1.
        -11    1    4    4    0    0 -0.20778557825E+02  0.11773931698E+02 -0.21423193358E+02  0.32083128691E+02  0.00000000000E+00 0. -1.
         11    1    4    4    0    0  0.57159872459E+02  0.28643853771E+02  0.41652460656E+02  0.76306283208E+02  0.00000000000E+00 0.  1.
          2    1    1    2  501    0 -0.28452531785E+02  0.84592184202E+02  0.93919531951E+02  0.12956181025E+03  0.00000000000E+00 0. -1.
<scales pt_clust_5="13000.00000" pt_clust_6="13000.00000" pt_clust_7="13000.00000" pt_clust_8="13000.00000" pt_clust_9="89.24905"></scales>
<clustering>
<clus scale="   83.230">  5  6 -1 -1</clus>
<clus scale="   89.249">  2  9  1 -1</clus>
<clus scale="   91.552">  7  8 -1 -1</clus>
<clus scale="  125.504">  1  5  2 -1</clus>
<clus scale="   89.249">  2  5  1 -1</clus>
</clustering>
</event>
<event>
 9    1  0.8429841E-005  0.1684772E+03  0.7546771E-02  0.1181093E+00
          1   -1    0    0  502    0 -0.00000000000E+00  0.00000000000E+00  0.43221574847E+03  0.43221574847E+03  0.00000000000E+00 0. -1.
         21   -1    0    0  501  502  0.00000000000E+00 -0.00000000000E+00 -0.16776524397E+03  0.16776524397E+03  0.00000000000E+00 0.  1.
         23    2    1    2    0    0  0.65968369192E+02 -0.11968064773E+03  0.33408544531E+03  0.37353711163E+03  0.96133271137E+02 0.  0.
        -24    2    1    2    0    0 -0.86820697180E+02  0.11922156260E+03 -0.18478356207E+02  0.17119873178E+03  0.84946698992E+02 0.  0.
         11    1    4    4    0    0 -0.89176255178E+01  0.41738961534E+02  0.28899532042E+02  0.51544620544E+02  0.00000000000E+00 0. -1.
        -12    1    4    4    0    0 -0.77903071662E+02  0.77482601061E+02 -0.47377888248E+02  0.11965411124E+03  0.00000000000E+00 0.  1.
        -13    1    3    3    0    0 -0.20173464413E+01 -0.83826110911E+02  0.22480669092E+03  0.23993527219E+03  0.00000000000E+00 0.  1.
         13    1    3    3    0    0  0.67985715634E+02 -0.35854536822E+02  0.10927875439E+03  0.13360183944E+03  0.00000000000E+00 0. -1.
          2    1    1    2  501    0  0.20852327987E+02  0.45908513741E+00 -0.51156584609E+02  0.55245149022E+02  0.00000000000E+00 0. -1.
<scales pt_clust_5="13000.00000" pt_clust_6="13000.00000" pt_clust_7="13000.00000" pt_clust_8="13000.00000" pt_clust_9="20.85738"></scales>
<clustering>
<clus scale="   20.857">  2  9  1 -1</clus>
<clus scale="   84.947">  5  6 -1 -1</clus>
<clus scale="   96.133">  7  8 -1 -1</clus>
<clus scale="  162.354">  2  5  1 -1</clus>
<clus scale="   20.857">  2  5  1 -1</clus>
</clustering>
</event>
<event>
 9    1  0.8429841E-005  0.9741253E+02  0.7546771E-02  0.1288990E+00
         21   -1    0    0  501  502  0.00000000000E+00  0.00000000000E+00  0.27323537644E+02  0.27323537644E+02  0.00000000000E+00 0.  1.
          1   -1    0    0  502    0 -0.00000000000E+00 -0.00000000000E+00 -0.55713482388E+03  0.55713482388E+03  0.00000000000E+00 0. -1.
        -24    2    1    2    0    0 -0.13634296193E+02  0.48502449001E+02 -0.32899870654E+03  0.34261282542E+03  0.81271259684E+02 0.  0.
         23    2    1    2    0    0  0.34198569252E+02 -0.14746835997E+02 -0.14586273018E+03  0.17415641809E+03  0.87564322605E+02 0.  0.
         11    1    3    3    0    0 -0.29732291990E+02 -0.12471981424E+02 -0.12480836521E+03  0.12890573119E+03  0.00000000000E+00 0. -1.
        -12    1    3    3    0    0  0.16097995797E+02  0.60974430425E+02 -0.20419034132E+03  0.21370709423E+03  0.00000000000E+00 0.  1.
        -13    1    4    4    0    0  0.49478281558E+02  0.87499100729E+01 -0.38792477414E+02  0.63478481205E+02  0.00000000000E+00 0.  1.
         13    1    4    4    0    0 -0.15279712306E+02 -0.23496746070E+02 -0.10707025277E+03  0.11067793688E+03  0.00000000000E+00 0. -1.
          2    1    1    2  501    0 -0.20564273058E+02 -0.33755613003E+02 -0.54949849519E+02  0.67689118016E+02  0.00000000000E+00 0. -1.
<scales pt_clust_5="13000.00000" pt_clust_6="13000.00000" pt_clust_7="13000.00000" pt_clust_8="13000.00000" pt_clust_9="39.52633"></scales>
<clustering>
<clus scale="   39.526">  1  9  2 -1</clus>
<clus scale="   81.271">  5  6 -1 -1</clus>
<clus scale="   87.564">  7  8 -1 -1</clus>
<clus scale="   91.797">  2  5  1 -1</clus>
<clus scale="   39.526">  1  5  2 -1</clus>
</clustering>
</event>
<event>
 9    1  0.8429841E-005  0.1541380E+03  0.7546771E-02  0.1195749E+00
         21   -1    0    0  501  502  0.00000000000E+00  0.00000000000E+00  0.37312614631E+02  0.37312614631E+02  0.00000000000E+00 0. -1.
          1   -1    0    0  502    0 -0.00000000000E+00 -0.00000000000E+00 -0.85979458703E+03  0.85979458703E+03  0.00000000000E+00 0. -1.
        -24    2    1    2    0    0 -0.57576629099E+02  0.11917920539E+03 -0.44475494141E+03  0.47205225631E+03  0.86646543859E+02 0.  0.
         23    2    1    2    0    0  0.68547281951E+02 -0.98816402941E+02 -0.21449335196E+03  0.26019065899E+03  0.85019819090E+02 0.  0.
         11    1    3    3    0    0 -0.71782517541E+02  0.75514732805E+02 -0.23081923618E+03  0.25324439675E+03  0.00000000000E+00 0. -1.
        -12    1    3    3    0    0  0.14205888442E+02  0.43664472585E+02 -0.21393570522E+03  0.21880785955E+03  0.00000000000E+00 0.  1.
        -11    1    4    4    0    0  0.46814867461E+02 -0.16825227459E+01 -0.82529597714E+02  0.94897825038E+02  0.00000000000E+00 0.  1.
         11    1    4    4    0    0  0.21732414489E+02 -0.97133880195E+02 -0.13196375425E+03  0.16529283395E+03  0.00000000000E+00 0. -1.
          2    1    1    2  501    0 -0.10970652852E+02 -0.20362802449E+02 -0.16323367903E+03  0.16486428637E+03  0.00000000000E+00 0. -1.
<scales pt_clust_5="13000.00000" pt_clust_6="13000.00000" pt_clust_7="13000.00000" pt_clust_8="13000.00000" pt_clust_9="23.13006"></scales>
<clustering>
<clus scale="   23.130">  1  9  2 -1</clus>
<clus scale="   85.020">  7  8 -1 -1</clus>
<clus scale="   86.647">  5  6 -1 -1</clus>
<clus scale="  153.230">  1  7  2 -1</clus>
<clus scale="   23.130">  1  5  2 -1</clus>
</clustering>
</event>
<event>
 9    1  0.8429841E-005  0.3388890E+03  0.7546771E-02  0.1107814E+00
         21   -1    0    0  501  502  0.00000000000E+00  0.00000000000E+00  0.19460664024E+03  0.19460664024E+03  0.00000000000E+00 0.  1.
          1   -1    0    0  502    0 -0.00000000000E+00 -0.00000000000E+00 -0.11038303411E+04  0.11038303411E+04  0.00000000000E+00 0. -1.
         23    2    1    2    0    0 -0.27368363111E+02 -0.93264879481E+02 -0.47183180604E+03  0.48574277026E+03  0.62236810865E+02 0.  0.
        -24    2    1    2    0    0 -0.31038542413E+03  0.10729194546E+03 -0.15453831954E+03  0.37192156625E+03  0.81196589598E+02 0.  0.
         11    1    4    4    0    0 -0.11439214292E+03  0.60587307688E+02 -0.23461123410E+02  0.13155534397E+03  0.00000000000E+00 0. -1.
        -12    1    4    4    0    0 -0.19599328121E+03  0.46704637771E+02 -0.13107719613E+03  0.24036622228E+03  0.00000000000E+00 0.  1.
        -13    1    3    3    0    0  0.13077824726E+02 -0.45216316732E+02 -0.27894564649E+03  0.28288905686E+03  0.00000000000E+00 0. -1.
         13    1    3    3    0    0 -0.40446187837E+02 -0.48048562750E+02 -0.19288615955E+03  0.20285371340E+03  0.00000000000E+00 0.  1.
          2    1    1    2  501    0  0.33775378724E+03 -0.14027065978E+02 -0.28285357524E+03  0.44077264480E+03  0.00000000000E+00 0. -1.
<scales pt_clust_5="13000.00000" pt_clust_6="13000.00000" pt_clust_7="13000.00000" pt_clust_8="13000.00000" pt_clust_9="329.01819"></scales>
<clustering>
<clus scale="   62.237">  7  8 -1 -1</clus>
<clus scale="   81.197">  5  6 -1 -1</clus>
<clus scale="  115.416">  2  7  1 -1</clus>
<clus scale="  329.018">  1  9  2 -1</clus>
<clus scale="  329.018">  1  5  2 -1</clus>
</clustering>
</event>
<event>
 9    1  0.8429841E-005  0.1065190E+03  0.7546771E-02  0.1271804E+00
         21   -1    0    0  501  502  0.00000000000E+00  0.00000000000E+00  0.29551026342E+03  0.29551026342E+03  0.00000000000E+00 0.  1.
          1   -1    0    0  502    0 -0.00000000000E+00 -0.00000000000E+00 -0.13041074478E+03  0.13041074478E+03  0.00000000000E+00 0. -1.
         23    2    1    2    0    0 -0.53380022058E+02 -0.86315750181E+01 -0.82672919457E+02  0.13406999932E+03  0.90642276364E+02 0.  0.
        -24    2    1    2    0    0  0.60992644115E+02  0.28720552427E+02  0.10707880245E+03  0.14952666754E+03  0.79670456281E+02 0.  0.
         11    1    4    4    0    0  0.16173378561E+02  0.49895946484E+02  0.70737812377E+02  0.88062601310E+02  0.00000000000E+00 0. -1.
        -12    1    4    4    0    0  0.44819265554E+02 -0.21175394057E+02  0.36340990077E+02  0.61464066234E+02  0.00000000000E+00 0.  1.
        -11    1    3    3    0    0 -0.28202344981E+02 -0.77381352298E+01  0.15233296731E+02  0.32974297999E+02  0.00000000000E+00 0.  1.
         11    1    3    3    0    0 -0.25177677078E+02 -0.89343978827E+00 -0.97906216188E+02  0.10109570132E+03  0.00000000000E+00 0. -1.
          2    1    1    2  501    0 -0.76126220569E+01 -0.20088977408E+02  0.14069363564E+03  0.14232434134E+03  0.00000000000E+00 0. -1.
<scales pt_clust_5="13000.00000" pt_clust_6="13000.00000" pt_clust_7="13000.00000" pt_clust_8="13000.00000" pt_clust_9="21.48299"></scales>
<clustering>
<clus scale="   21.483">  1  9  2 -1</clus>
<clus scale="   79.670">  5  6 -1 -1</clus>
<clus scale="   90.642">  7  8 -1 -1</clus>
<clus scale="   97.353">  1  5  2 -1</clus>
<clus scale="   21.483">  1  5  2 -1</clus>
</clustering>
</event>
<event>
 9    1  0.8429841E-005  0.1371679E+03  0.7546771E-02  0.1220080E+00
         21   -1    0    0  501  502  0.00000000000E+00  0.00000000000E+00  0.33485895439E+03  0.33485895439E+03  0.00000000000E+00 0. -1.
          1   -1    0    0  502    0 -0.00000000000E+00 -0.00000000000E+00 -0.11771292986E+03  0.11771292986E+03  0.00000000000E+00 0. -1.
         23    2    1    2    0    0 -0.87565204307E+02 -0.22123254015E+02  0.47905245401E+02  0.13694845200E+03  0.91120044973E+02 0.  0.
        -24    2    1    2    0    0  0.72456786154E+02  0.10638772661E+03  0.32328068498E+02  0.15414942204E+03  0.78413047836E+02 0.  0.
         13    1    4    4    0    0  0.59143676755E+02  0.76206304068E+02 -0.13793245733E+02  0.97445517638E+02  0.00000000000E+00 0. -1.
        -14    1    4    4    0    0  0.13313109399E+02  0.30181422538E+02  0.46121314231E+02  0.56703904404E+02  0.00000000000E+00 0.  1.
        -11    1    3    3    0    0 -0.68489137641E+02 -0.76308853200E+01  0.74275843609E+02  0.10132074481E+03  0.00000000000E+00 0. -1.
         11    1    3    3    0    0 -0.19076066666E+02 -0.14492368695E+02 -0.26370598209E+02  0.35627707192E+02  0.00000000000E+00 0.  1.
          2    1    1    2  501    0  0.15108418153E+02 -0.84264472590E+02  0.13691271063E+03  0.16147401021E+03  0.00000000000E+00 0. -1.
<scales pt_clust_5="13000.00000" pt_clust_6="13000.00000" pt_clust_7="13000.00000" pt_clust_8="13000.00000" pt_clust_9="85.60821"></scales>
<clustering>
<clus scale="   78.413">  5  6 -1 -1</clus>
<clus scale="   85.608">  1  9  2 -1</clus>
<clus scale="   91.120">  7  8 -1 -1</clus>
<clus scale="  129.077">  1  5  2 -1</clus>
<clus scale="   85.608">  1  5  2 -1</clus>
</clustering>
</event>
<event>
 9    1  0.8429841E-005  0.1031094E+03  0.7546771E-02  0.1278500E+00
         -2   -1    0    0    0  501 -0.00000000000E+00  0.00000000000E+00  0.30994627582E+03  0.30994627582E+03  0.00000000000E+00 0.  1.
         21   -1    0    0  501  502  0.00000000000E+00 -0.00000000000E+00 -0.18800718874E+03  0.18800718874E+03  0.00000000000E+00 0. -1.
        -24    2    1    2    0    0 -0.33395547885E+02  0.38258775073E+02  0.27636480890E+03  0.29206433828E+03  0.79655970339E+02 0.  0.
         23    2    1    2    0    0  0.47626249360E+02 -0.21731124926E+02 -0.15171420821E+03  0.18391121942E+03  0.89808876153E+02 0.  0.
         11    1    3    3    0    0 -0.54395689827E+02  0.56169461081E+01  0.18172386457E+03  0.18977356009E+03  0.00000000000E+00 0. -1.
        -12    1    3    3    0    0  0.21000141942E+02  0.32641828965E+02  0.94640944324E+02  0.10229077819E+03  0.00000000000E+00 0.  1.
        -13    1    4    4    0    0 -0.15128849259E+02 -0.21764711330E+02 -0.89726313490E+01  0.27983796249E+02  0.00000000000E+00 0.  1.
         13    1    4    4    0    0  0.62755098619E+02  0.33586403952E-01 -0.14274157687E+03  0.15592742317E+03  0.00000000000E+00 0. -1.
         -1    1    1    2    0  502 -0.14230701475E+02 -0.16527650147E+02 -0.27115135963E+01  0.21977906857E+02  0.00000000000E+00 0.  1.
<scales pt_clust_5="13000.00000" pt_clust_6="13000.00000" pt_clust_7="13000.00000" pt_clust_8="13000.00000" pt_clust_9="21.81000"></scales>
<clustering>
<clus scale="   21.810">  2  9  1 -1</clus>
<clus scale="   79.656">  5  6 -1 -1</clus>
<clus scale="   89.809">  7  8 -1 -1</clus>
<clus scale="   94.398">  1  5  2 -1</clus>
<clus scale="   21.810">  2  5  1 -1</clus>
</clustering>
</event>
<event>
 9    1  0.8429841E-005  0.1138052E+03  0.7546771E-02  0.1259823E+00
         21   -1    0    0  501  502  0.00000000000E+00  0.00000000000E+00  0.95132512283E+02  0.95132512283E+02  0.00000000000E+00 0. -1.
         -2   -1    0    0    0  501 -0.00000000000E+00 -0.00000000000E+00 -0.19278555949E+03  0.19278555949E+03  0.00000000000E+00 0.  1.
         23    2    1    2    0    0  0.64738813335E+02 -0.32960924280E+02 -0.10785171455E+03  0.15846505913E+03  0.90562940286E+02 0.  0.
        -24    2    1    2    0    0 -0.60407240519E+02  0.10883456650E+02  0.29041582748E+02  0.10010624857E+03  0.73555170718E+02 0.  0.
         11    1    4    4    0    0 -0.48820277943E+02 -0.31248013670E+01  0.51620332243E+02  0.71118511112E+02  0.00000000000E+00 0. -1.
        -12    1    4    4    0    0 -0.11586962577E+02  0.14008258017E+02 -0.22578749495E+02  0.28987737462E+02  0.00000000000E+00 0.  1.
        -11    1    3    3    0    0  0.14639951327E+02 -0.55409202960E+02 -0.34672648470E+02  0.66982837350E+02  0.00000000000E+00 0.  1.
         11    1    3    3    0    0  0.50098862008E+02  0.22448278680E+02 -0.73179066078E+02  0.91482221782E+02  0.00000000000E+00 0. -1.
         -1    1    1    2    0  502 -0.43315728160E+01  0.22077467630E+02 -0.18842915404E+02  0.29346764062E+02  0.00000000000E+00 0.  1.
<scales pt_clust_5="13000.00000" pt_clust_6="13000.00000" pt_clust_7="13000.00000" pt_clust_8="13000.00000" pt_clust_9="22.49839"></scales>
<clustering>
<clus scale="   22.498">  1  9  2 -1</clus>
<clus scale="   73.555">  5  6 -1 -1</clus>
<clus scale="   90.563">  7  8 -1 -1</clus>
<clus scale="  100.799">  1  5  2 -1</clus>
<clus scale="   22.498">  1  5  2 -1</clus>
</clustering>
</event>
<event>
 9    1  0.8429841E-005  0.2583667E+03  0.7546771E-02  0.1108717E+00
         21   -1    0    0  501  502  0.00000000000E+00  0.00000000000E+00  0.45685432966E+02  0.45685432966E+02  0.00000000000E+00 0. -1.
          1   -1    0    0  502    0 -0.00000000000E+00 -0.00000000000E+00 -0.22924222282E+04  0.22924222282E+04  0.00000000000E+00 0. -1.
        -24    2    1    2    0    0  0.24111117158E+03  0.53058067561E+01 -0.15088381905E+04  0.15300962595E+04  0.80244186528E+02 0.  0.
         23    2    1    2    0    0 -0.23943240446E+03 -0.63704208422E+02 -0.53211118248E+03  0.59409166270E+03  0.91741433902E+02 0.  0.
         13    1    3    3    0    0  0.23833962870E+03 -0.10027287805E+02 -0.14098715441E+04  0.14299105203E+04  0.00000000000E+00 0. -1.
        -14    1    3    3    0    0  0.27715428771E+01  0.15333094561E+02 -0.98966646426E+02  0.10018573922E+03  0.00000000000E+00 0.  1.
        -11    1    4    4    0    0 -0.27858684464E+02 -0.17314030842E+02 -0.16175503708E+03  0.16504718715E+03  0.00000000000E+00 0.  1.
         11    1    4    4    0    0 -0.21157371999E+03 -0.46390177580E+02 -0.37035614539E+03  0.42904447555E+03  0.00000000000E+00 0. -1.
          2    1    1    2  501    0 -0.16787671246E+01  0.58398401666E+02 -0.20578742226E+03  0.21391973900E+03  0.00000000000E+00 0. -1.
<scales pt_clust_5="13000.00000" pt_clust_6="13000.00000" pt_clust_7="13000.00000" pt_clust_8="13000.00000" pt_clust_9="58.42256"></scales>
<clustering>
<clus scale="   58.423">  1  9  2 -1</clus>
<clus scale="   80.244">  5  6 -1 -1</clus>
<clus scale="   91.741">  7  8 -1 -1</clus>
<clus scale="  254.511">  2  5  1 -1</clus>
<clus scale="   58.423">  1  5  2 -1</clus>
</clustering>
</event>
<event>
 9    1  0.8429841E-005  0.1317520E+03  0.7546771E-02  0.1227054E+00
         21   -1    0    0  501  502  0.00000000000E+00  0.00000000000E+00  0.68904696778E+03  0.68904696778E+03  0.00000000000E+00 0. -1.
          1   -1    0    0  502    0 -0.00000000000E+00 -0.00000000000E+00 -0.26430398353E+03  0.26430398353E+03  0.00000000000E+00 0. -1.
        -24    2    1    2    0    0 -0.15120020413E+02  0.10428716608E+03 -0.18751880760E+03  0.22970314008E+03  0.80596534250E+02 0.  0.
         23    2    1    2    0    0  0.88338531845E+02 -0.42892715973E+02  0.33398292529E+02  0.13695097320E+03  0.89423944353E+02 0.  0.
         11    1    3    3    0    0 -0.22992845473E+02  0.62403365969E+02 -0.43394458362E+02  0.79409886310E+02  0.00000000000E+00 0. -1.
        -12    1    3    3    0    0  0.78728250608E+01  0.41883800115E+02 -0.14412434923E+03  0.15029325377E+03  0.00000000000E+00 0.  1.
        -11    1    4    4    0    0 -0.17789583127E+02 -0.14070940468E+02  0.31871066334E+01  0.22904547194E+02  0.00000000000E+00 0. -1.
         11    1    4    4    0    0  0.10612811497E+03 -0.28821775505E+02  0.30211185895E+02  0.11404642600E+03  0.00000000000E+00 0.  1.
          2    1    1    2  501    0 -0.73218511433E+02 -0.61394450111E+02  0.57886349932E+03  0.58669683804E+03  0.00000000000E+00 0. -1.
<scales pt_clust_5="13000.00000" pt_clust_6="13000.00000" pt_clust_7="13000.00000" pt_clust_8="13000.00000" pt_clust_9="95.55223"></scales>
<clustering>
<clus scale="   80.597">  5  6 -1 -1</clus>
<clus scale="   89.424">  7  8 -1 -1</clus>
<clus scale="   95.552">  1  9  2 -1</clus>
<clus scale="  125.928">  2  5  1 -1</clus>
<clus scale="   95.552">  1  5  2 -1</clus>
</clustering>
</event>
<event>
 9    1  0.8429841E-005  0.9205897E+02  0.7546771E-02  0.1304487E+00
         21   -1    0    0  501  502  0.00000000000E+00  0.00000000000E+00  0.14426207308E+03  0.14426207308E+03  0.00000000000E+00 0. -1.
          1   -1    0    0  502    0 -0.00000000000E+00 -0.00000000000E+00 -0.36128393094E+03  0.36128393094E+03  0.00000000000E+00 0. -1.
         23    2    1    2    0    0  0.11993380191E+02  0.63597500611E+01 -0.32218988479E+03  0.33502782318E+03  0.90846204427E+02 0.  0.
        -24    2    1    2    0    0 -0.94540683036E+01 -0.46479092782E+02  0.64621293299E+02  0.11342135628E+03  0.80242177437E+02 0.  0.
         13    1    4    4    0    0 -0.28635333995E+02 -0.46222215885E+02  0.74192086792E+02  0.91983375329E+02  0.00000000000E+00 0. -1.
        -14    1    4    4    0    0  0.19181265691E+02 -0.25687689732E+00 -0.95707934932E+01  0.21437980953E+02  0.00000000000E+00 0.  1.
        -13    1    3    3    0    0  0.23014080921E+02 -0.38878351165E+02 -0.16703042321E+03  0.17303276103E+03  0.00000000000E+00 0. -1.
         13    1    3    3    0    0 -0.11020700729E+02  0.45238101226E+02 -0.15515946158E+03  0.16199506216E+03  0.00000000000E+00 0.  1.
          2    1    1    2  501    0 -0.25393118876E+01  0.40119342721E+02  0.40546733628E+02  0.57096824545E+02  0.00000000000E+00 0. -1.
<scales pt_clust_5="13000.00000" pt_clust_6="13000.00000" pt_clust_7="13000.00000" pt_clust_8="13000.00000" pt_clust_9="40.19962"></scales>
<clustering>
<clus scale="   40.200">  1  9  2 -1</clus>
<clus scale="   80.242">  5  6 -1 -1</clus>
<clus scale="   81.613">  1  5  2 -1</clus>
<clus scale="   90.846">  7  8 -1 -1</clus>
<clus scale="   40.200">  1  5  2 -1</clus>
</clustering>
</event>
<event>
 9    1  0.8429841E-005  0.1106563E+03  0.7546771E-02  0.1264534E+00
          1   -1    0    0  502    0 -0.00000000000E+00  0.00000000000E+00  0.28738688904E+03  0.28738688904E+03  0.00000000000E+00 0. -1.
         21   -1    0    0  501  502  0.00000000000E+00 -0.00000000000E+00 -0.64884893486E+02  0.64884893486E+02  0.00000000000E+00 0. -1.
         23    2    1    2    0    0 -0.50874885842E+02  0.65777079860E+02  0.16322981402E+03  0.20385344979E+03  0.89428063632E+02 0.  0.
        -24    2    1    2    0    0  0.93807986690E+01 -0.43995759248E+02  0.47279939453E+02  0.10004479587E+03  0.75828373917E+02 0.  0.
         13    1    4    4    0    0 -0.18784242501E+01 -0.59498135201E+02  0.53360785305E+02  0.79943292266E+02  0.00000000000E+00 0. -1.
        -14    1    4    4    0    0  0.11259222919E+02  0.15502375952E+02 -0.60808458523E+01  0.20101503605E+02  0.00000000000E+00 0.  1.
        -11    1    3    3    0    0 -0.30122561898E+02  0.40741157683E+02  0.16086977376E+02  0.53160149602E+02  0.00000000000E+00 0.  1.
         11    1    3    3    0    0 -0.20752323944E+02  0.25035922178E+02  0.14714283664E+03  0.15069330019E+03  0.00000000000E+00 0. -1.
          2    1    1    2  501    0  0.41494087173E+02 -0.21781320612E+02  0.11992242082E+02  0.48373536858E+02  0.00000000000E+00 0. -1.
<scales pt_clust_5="13000.00000" pt_clust_6="13000.00000" pt_clust_7="13000.00000" pt_clust_8="13000.00000" pt_clust_9="46.86347"></scales>
<clustering>
<clus scale="   46.863">  2  9  1 -1</clus>
<clus scale="   75.828">  5  6 -1 -1</clus>
<clus scale="   89.428">  7  8 -1 -1</clus>
<clus scale="   99.987">  2  5  1 -1</clus>
<clus scale="   46.863">  2  5  1 -1</clus>
</clustering>
</event>
<event>
 9    1  0.8429841E-005  0.1684634E+03  0.7546771E-02  0.1207195E+00
          1   -1    0    0  502    0 -0.00000000000E+00  0.00000000000E+00  0.85439643924E+03  0.85439643924E+03  0.00000000000E+00 0. -1.
         21   -1    0    0  501  502  0.00000000000E+00 -0.00000000000E+00 -0.28044181171E+03  0.28044181171E+03  0.00000000000E+00 0. -1.
        -24    2    1    2    0    0 -0.35867587641E+02  0.27889748238E+02  0.73723117898E+03  0.74289893304E+03  0.79527929360E+02 0.  0.
         23    2    1    2    0    0 -0.11287777453E+03 -0.38385325160E+02  0.24519281201E+02  0.15214228987E+03  0.91275714435E+02 0.  0.
         13    1    3    3    0    0 -0.53114719294E+02  0.20752104916E+02  0.30625769727E+03  0.31152142848E+03  0.00000000000E+00 0. -1.
        -14    1    3    3    0    0  0.17247131653E+02  0.71376433221E+01  0.43097348171E+03  0.43137750456E+03  0.00000000000E+00 0.  1.
        -11    1    4    4    0    0 -0.10455934752E+03  0.38799354286E+01  0.47303800353E+01  0.10473818572E+03  0.00000000000E+00 0.  1.
         11    1    4    4    0    0 -0.83184270064E+01 -0.42265260589E+02  0.19788901166E+02  0.47404104146E+02  0.00000000000E+00 0. -1.
          2    1    1    2  501    0  0.14874536217E+03  0.10495576922E+02 -0.18779583264E+03  0.23979702805E+03  0.00000000000E+00 0. -1.
<scales pt_clust_5="13000.00000" pt_clust_6="13000.00000" pt_clust_7="13000.00000" pt_clust_8="13000.00000" pt_clust_9="141.59331"></scales>
<clustering>
<clus scale="   79.528">  5  6 -1 -1</clus>
<clus scale="   91.276">  7  8 -1 -1</clus>
<clus scale="   91.592">  1  5  2 -1</clus>
<clus scale="  141.593">  2  9  1 -1</clus>
<clus scale="  141.593">  2  5  1 -1</clus>
</clustering>
</event>
<event>
 9    1  0.8429841E-005  0.1512621E+03  0.7546771E-02  0.1201017E+00
          1   -1    0    0  502    0 -0.00000000000E+00  0.00000000000E+00  0.11671073286E+04  0.11671073286E+04  0.00000000000E+00 0. -1.
         21   -1    0    0  501  502  0.00000000000E+00 -0.00000000000E+00 -0.30094472538E+02  0.30094472538E+02  0.00000000000E+00 0. -1.
         23    2    1    2    0    0  0.11993483771E+03 -0.27429903793E+02  0.60858028997E+03  0.62773438123E+03  0.92432240674E+02 0.  0.
        -24    2    1    2    0    0 -0.97934377810E+02  0.71623567515E+02  0.47418901234E+03  0.49612259548E+03  0.81002052707E+02 0.  0.
         11    1    4    4    0    0 -0.83800166195E+02  0.82217921379E+02  0.45558846280E+03  0.47047114884E+03  0.00000000000E+00 0. -1.
        -12    1    4    4    0    0 -0.14134211615E+02 -0.10594353864E+02  0.18600549533E+02  0.25651446639E+02  0.00000000000E+00 0.  1.
        -11    1    3    3    0    0 -0.22812125339E+01 -0.28964632266E+02  0.77407080656E+02  0.82680166839E+02  0.00000000000E+00 0.  1.
         11    1    3    3    0    0  0.12221605024E+03  0.15347284739E+01  0.53117320931E+03  0.54505421439E+03  0.00000000000E+00 0. -1.
          2    1    1    2  501    0 -0.22000459896E+02 -0.44193663723E+02  0.54243553800E+02  0.73344824478E+02  0.00000000000E+00 0. -1.
<scales pt_clust_5="13000.00000" pt_clust_6="13000.00000" pt_clust_7="13000.00000" pt_clust_8="13000.00000" pt_clust_9="49.36699"></scales>
<clustering>
<clus scale="   49.367">  2  9  1 -1</clus>
<clus scale="   81.002">  5  6 -1 -1</clus>
<clus scale="   92.432">  7  8 -1 -1</clus>
<clus scale="  144.561">  2  5  1 -1</clus>
<clus scale="   49.367">  2  5  1 -1</clus>
</clustering>
</event>
<event>
 9    1  0.8429841E-005  0.1995023E+03  0.7546771E-02  0.1166745E+00
         21   -1    0    0  501  502  0.00000000000E+00  0.00000000000E+00  0.70773107731E+03  0.70773107731E+03  0.00000000000E+00 0.  1.
         -2   -1    0    0    0  501 -0.00000000000E+00 -0.00000000000E+00 -0.17091740652E+03  0.17091740652E+03  0.00000000000E+00 0.  1.
         23    2    1    2    0    0 -0.38146909582E+02 -0.87927293479E+02  0.89168751801E+02  0.16217233198E+03  0.95720443552E+02 0.  0.
        -24    2    1    2    0    0  0.71870439422E+02 -0.15708780062E+03  0.42790725299E+03  0.46836478923E+03  0.80118795954E+02 0.  0.
         11    1    4    4    0    0  0.13529893446E+02 -0.12091482254E+03  0.26589079168E+03  0.29240616516E+03  0.00000000000E+00 0. -1.
        -12    1    4    4    0    0  0.58340545977E+02 -0.36172978077E+02  0.16201646131E+03  0.17595862407E+03  0.00000000000E+00 0.  1.
        -11    1    3    3    0    0  0.31053703297E+01 -0.62316619520E+02  0.20400139529E+01  0.62427286103E+02  0.00000000000E+00 0. -1.
         11    1    3    3    0    0 -0.41252279912E+02 -0.25610673959E+02  0.87128737848E+02  0.99745045880E+02  0.00000000000E+00 0.  1.
         -1    1    1    2    0  502 -0.33723529840E+02  0.24501509410E+03  0.19737665997E+02  0.24811136262E+03  0.00000000000E+00 0.  1.
<scales pt_clust_5="13000.00000" pt_clust_6="13000.00000" pt_clust_7="13000.00000" pt_clust_8="13000.00000" pt_clust_9="182.70789"></scales>
<clustering>
<clus scale="   80.119">  5  6 -1 -1</clus>
<clus scale="   95.720">  7  8 -1 -1</clus>
<clus scale="  135.458">  2  7  1 -1</clus>
<clus scale="  182.708">  1  9  2 -1</clus>
<clus scale="  182.708">  1  5  2 -1</clus>
</clustering>
</event>
<event>
 9    1  0.8429841E-005  0.1136700E+03  0.7546771E-02  0.1256843E+00
         21   -1    0    0  501  502  0.00000000000E+00  0.00000000000E+00  0.18105566178E+03  0.18105566178E+03  0.00000000000E+00 0. -1.
          3   -1    0    0  502    0 -0.00000000000E+00 -0.00000000000E+00 -0.14888074675E+03  0.14888074675E+03  0.00000000000E+00 0. -1.
         23    2    1    2    0    0  0.31258474809E+02  0.17233108854E+02  0.18897646225E+02  0.97148681101E+02  0.88355378550E+02 0.  0.
        -24    2    1    2    0    0 -0.10793524074E+03 -0.56444285618E+02  0.16283540721E+02  0.14661417877E+03  0.79966181256E+02 0.  0.
         13    1    4    4    0    0 -0.11703854250E+03 -0.43817265574E+02  0.26819671831E+02  0.12781732273E+03  0.00000000000E+00 0. -1.
        -14    1    4    4    0    0  0.91033017594E+01 -0.12627020045E+02 -0.10536131110E+02  0.18796856037E+02  0.00000000000E+00 0.  1.
        -13    1    3    3    0    0  0.34611405198E+02 -0.30985073502E+02  0.42761952310E+01  0.46650937775E+02  0.00000000000E+00 0. -1.
         13    1    3    3    0    0 -0.33529303892E+01  0.48218182355E+02  0.14621450994E+02  0.50497743326E+02  0.00000000000E+00 0.  1.
          4    1    1    2  501    0  0.76676765933E+02  0.39211176765E+02 -0.30062719114E+01  0.86173548656E+02  0.00000000000E+00 0. -1.
<scales pt_clust_5="13000.00000" pt_clust_6="13000.00000" pt_clust_7="13000.00000" pt_clust_8="13000.00000" pt_clust_9="86.12114"></scales>
<clustering>
<clus scale="   79.966">  5  6 -1 -1</clus>
<clus scale="   86.121">  1  9  2 -1</clus>
<clus scale="   88.355">  7  8 -1 -1</clus>
<clus scale="  107.279">  1  5  2 -1</clus>
<clus scale="   86.121">  1  5  2 -1</clus>
</clustering>
</event>
<event>
 9    1  0.8429841E-005  0.9596760E+02  0.7546771E-02  0.1294806E+00
         21   -1    0    0  501  502  0.00000000000E+00  0.00000000000E+00  0.55623003760E+02  0.55623003760E+02  0.00000000000E+00 0. -1.
         -4   -1    0    0    0  501 -0.00000000000E+00 -0.00000000000E+00 -0.56949371902E+03  0.56949371902E+03  0.00000000000E+00 0.  1.
         23    2    1    2    0    0  0.29730463113E+02 -0.21572052687E+02 -0.38124888291E+03  0.39371545915E+03  0.91169612034E+02 0.  0.
        -24    2    1    2    0    0 -0.28411932284E+02 -0.61960000710E+02 -0.81614029081E+02  0.13351797362E+03  0.80746021289E+02 0.  0.
         11    1    4    4    0    0 -0.54136843173E+02 -0.58083263245E+02 -0.65367219204E+02  0.10284617934E+03  0.00000000000E+00 0. -1.
        -12    1    4    4    0    0  0.25724910889E+02 -0.38767374649E+01 -0.16246809877E+02  0.30671794287E+02  0.00000000000E+00 0.  1.
        -13    1    3    3    0    0 -0.27451029710E+02 -0.31312933290E+00 -0.51393890936E+02  0.58266535058E+02  0.00000000000E+00 0. -1.
         13    1    3    3    0    0  0.57181492823E+02 -0.21258923354E+02 -0.32985499197E+03  0.33544892409E+03  0.00000000000E+00 0.  1.
         -3    1    1    2    0  502 -0.13185308290E+01  0.83532053396E+02 -0.51007803271E+02  0.97883290007E+02  0.00000000000E+00 0.  1.
<scales pt_clust_5="13000.00000" pt_clust_6="13000.00000" pt_clust_7="13000.00000" pt_clust_8="13000.00000" pt_clust_9="83.54246"></scales>
<clustering>
<clus scale="   80.746">  5  6 -1 -1</clus>
<clus scale="   83.542">  1  9  2 -1</clus>
<clus scale="   86.127">  1  5  2 -1</clus>
<clus scale="   91.170">  7  8 -1 -1</clus>
<clus scale="   83.542">  1  5  2 -1</clus>
</clustering>
</event>
<event>
 9    1  0.8429841E-005  0.1649665E+03  0.7546771E-02  0.1184592E+00
          1   -1    0    0  502    0 -0.00000000000E+00  0.00000000000E+00  0.18044072831E+03  0.18044072831E+03  0.00000000000E+00 0. -1.
         21   -1    0    0  501  502  0.00000000000E+00 -0.00000000000E+00 -0.40849682869E+03  0.40849682869E+03  0.00000000000E+00 0.  1.
         23    2    1    2    0    0 -0.54130278530E+02  0.12385817049E+03  0.72071708385E+02  0.17797922951E+03  0.90616452905E+02 0.  0.
        -24    2    1    2    0    0  0.77519706383E+02 -0.13576760093E+03 -0.32823901138E+03  0.37249874376E+03  0.81069841328E+02 0.  0.
         13    1    4    4    0    0  0.28880830076E+02 -0.11813532510E+03 -0.19807913675E+03  0.23243365031E+03  0.00000000000E+00 0. -1.
        -14    1    4    4    0    0  0.48638876307E+02 -0.17632275832E+02 -0.13015987463E+03  0.14006509345E+03  0.00000000000E+00 0.  1.
        -13    1    3    3    0    0  0.22248190928E+02  0.56187040492E+02  0.21994170073E+02  0.64309478587E+02  0.00000000000E+00 0.  1.
         13    1    3    3    0    0 -0.76378469458E+02  0.67671129994E+02  0.50077538311E+02  0.11366975092E+03  0.00000000000E+00 0. -1.
          2    1    1    2  501    0 -0.23389427853E+02  0.11909430444E+02  0.28111202614E+02  0.38459583737E+02  0.00000000000E+00 0. -1.
<scales pt_clust_5="13000.00000" pt_clust_6="13000.00000" pt_clust_7="13000.00000" pt_clust_8="13000.00000" pt_clust_9="26.24692"></scales>
<clustering>
<clus scale="   26.247">  2  9  1 -1</clus>
<clus scale="   81.070">  5  6 -1 -1</clus>
<clus scale="   90.616">  7  8 -1 -1</clus>
<clus scale="  159.922">  2  5  1 -1</clus>
<clus scale="   26.247">  2  5  1 -1</clus>
</clustering>
</event>
<event>
 9    1  0.8429841E-005  0.1067725E+03  0.7546771E-02  0.1272721E+00
          1   -1    0    0  502    0 -0.00000000000E+00  0.00000000000E+00  0.29392110532E+03  0.29392110532E+03  0.00000000000E+00 0. -1.
         21   -1    0    0  501  502  0.00000000000E+00 -0.00000000000E+00 -0.15174336609E+03  0.15174336609E+03  0.00000000000E+00 0. -1.
         23    2    1    2    0    0 -0.56556069767E+02 -0.24595505297E+01  0.20285967486E+03  0.23007944355E+03  0.92627556610E+02 0.  0.
        -24    2    1    2    0    0  0.17322265468E+02  0.47597095441E+02 -0.10535359343E+03  0.14093754718E+03  0.78730351082E+02 0.  0.
         11    1    4    4    0    0  0.44766960003E+02  0.39892919526E+02 -0.47697620143E+02  0.76619767055E+02  0.00000000000E+00 0. -1.
        -12    1    4    4    0    0 -0.27444694535E+02  0.77041759146E+01 -0.57655973290E+02  0.64317780129E+02  0.00000000000E+00 0.  1.
        -13    1    3    3    0    0  0.23486647048E+02 -0.33357161981E-01  0.80405673374E+02  0.83765720990E+02  0.00000000000E+00 0.  1.
         13    1    3    3    0    0 -0.80042716815E+02 -0.24261933677E+01  0.12245400149E+03  0.14631372256E+03  0.00000000000E+00 0. -1.
          2    1    1    2  501    0  0.39233804299E+02 -0.45137544911E+02  0.44671657808E+02  0.74647480679E+02  0.00000000000E+00 0. -1.
<scales pt_clust_5="13000.00000" pt_clust_6="13000.00000" pt_clust_7="13000.00000" pt_clust_8="13000.00000" pt_clust_9="59.80546"></scales>
<clustering>
<clus scale="   59.805">  2  9  1 -1</clus>
<clus scale="   78.730">  5  6 -1 -1</clus>
<clus scale="   92.628">  7  8 -1 -1</clus>
<clus scale="   94.968">  2  5  1 -1</clus>
<clus scale="   59.805">  2  5  1 -1</clus>
</clustering>
</event>
<event>
 9    1  0.8429841E-005  0.1724778E+03  0.7546771E-02  0.1177064E+00
          1   -1    0    0  502    0 -0.00000000000E+00  0.00000000000E+00  0.93255135136E+03  0.93255135136E+03  0.00000000000E+00 0. -1.
         21   -1    0    0  501  502  0.00000000000E+00 -0.00000000000E+00 -0.47546675651E+02  0.47546675651E+02  0.00000000000E+00 0.  1.
        -24    2    1    2    0    0 -0.98071617454E+02  0.12154423976E+03  0.50643631890E+03  0.53575207615E+03  0.78495207648E+02 0.  0.
         23    2    1    2    0    0  0.88294974847E+02 -0.10140417524E+03  0.38741688398E+03  0.42027311611E+03  0.91971956527E+02 0.  0.
         13    1    3    3    0    0 -0.49747896828E+02  0.11886166377E+02  0.20704304621E+03  0.21326733734E+03  0.00000000000E+00 0. -1.
        -14    1    3    3    0    0 -0.48323720626E+02  0.10965807338E+03  0.29939327269E+03  0.32248473881E+03  0.00000000000E+00 0.  1.
        -13    1    4    4    0    0  0.19729659379E+00 -0.47000729971E+02  0.56276380732E+02  0.73322156079E+02  0.00000000000E+00 0.  1.
         13    1    4    4    0    0  0.88097678253E+02 -0.54403445270E+02  0.33114050325E+03  0.34695096003E+03  0.00000000000E+00 0. -1.
          2    1    1    2  501    0  0.97766426070E+01 -0.20140064521E+02 -0.88485271825E+01  0.24072834750E+02  0.00000000000E+00 0. -1.
<scales pt_clust_5="13000.00000" pt_clust_6="13000.00000" pt_clust_7="13000.00000" pt_clust_8="13000.00000" pt_clust_9="22.38761"></scales>
<clustering>
<clus scale="   22.388">  2  9  1 -1</clus>
<clus scale="   78.495">  5  6 -1 -1</clus>
<clus scale="   91.972">  7  8 -1 -1</clus>
<clus scale="  165.684">  1  5  2 -1</clus>
<clus scale="   22.388">  2  5  1 -1</clus>
</clustering>
</event>
<event>
 9    1  0.8429841E-005  0.1280384E+03  0.7546771E-02  0.1232829E+00
          1   -1    0    0  502    0 -0.00000000000E+00  0.00000000000E+00  0.24939361362E+03  0.24939361362E+03  0.00000000000E+00 0. -1.
         21   -1    0    0  501  502  0.00000000000E+00 -0.00000000000E+00 -0.13955892261E+03  0.13955892261E+03  0.00000000000E+00 0. -1.
         23    2    1    2    0    0 -0.45680230067E+02 -0.28191190231E+02 -0.89323831534E+00  0.10583019882E+03  0.91202009194E+02 0.  0.
        -24    2    1    2    0    0  0.13758831452E+03 -0.92281970457E+00  0.45088687945E+02  0.16648944509E+03  0.82184850541E+02 0.  0.
         11    1    4    4    0    0  0.79129693360E+02 -0.35512346387E+02  0.46777342664E+02  0.98543162644E+02  0.00000000000E+00 0. -1.
        -12    1    4    4    0    0  0.58458621160E+02  0.34589526683E+02 -0.16886547188E+01  0.67946282450E+02  0.00000000000E+00 0.  1.
        -11    1    3    3    0    0 -0.29838914430E+02  0.80401695409E+01 -0.39777859767E+02  0.50371452910E+02  0.00000000000E+00 0. -1.
         11    1    3    3    0    0 -0.15841315637E+02 -0.36231359772E+02  0.38884621451E+02  0.55458745906E+02  0.00000000000E+00 0.  1.
          2    1    1    2  501    0 -0.91908084452E+02  0.29114009935E+02  0.65639241378E+02  0.11663289232E+03  0.00000000000E+00 0. -1.
<scales pt_clust_5="13000.00000" pt_clust_6="13000.00000" pt_clust_7="13000.00000" pt_clust_8="13000.00000" pt_clust_9="96.40918"></scales>
<clustering>
<clus scale="   82.185">  5  6 -1 -1</clus>
<clus scale="   91.202">  7  8 -1 -1</clus>
<clus scale="   96.409">  2  9  1 -1</clus>
<clus scale="  121.780">  2  5  1 -1</clus>
<clus scale="   96.409">  2  5  1 -1</clus>
</clustering>
</event>
<event>
 9    1  0.8429841E-005  0.1986636E+03  0.7546771E-02  0.1156315E+00
          1   -1    0    0  502    0 -0.00000000000E+00  0.00000000000E+00  0.14944677554E+04  0.14944677554E+04  0.00000000000E+00 0. -1.
         21   -1    0    0  501  502  0.00000000000E+00 -0.00000000000E+00 -0.51634901213E+02  0.51634901213E+02  0.00000000000E+00 0.  1.
        -24    2    1    2    0    0 -0.60634541030E+02  0.16729562307E+03  0.47429932589E+03  0.51284901997E+03  0.79936810538E+02 0.  0.
         23    2    1    2    0    0 -0.66588264568E+02 -0.13945352899E+03  0.35907887910E+03  0.41003955312E+03  0.12374776760E+03 0.  0.
         11    1    3    3    0    0 -0.29303447829E+02  0.11813496526E+03  0.40173496520E+03  0.41976844133E+03  0.00000000000E+00 0. -1.
        -12    1    3    3    0    0 -0.31331093201E+02  0.49160657806E+02  0.72564360683E+02  0.93080578632E+02  0.00000000000E+00 0.  1.
        -13    1    4    4    0    0  0.16181685558E+02 -0.10692299508E+03  0.17741059365E+03  0.20777125057E+03  0.00000000000E+00 0. -1.
         13    1    4    4    0    0 -0.82769950126E+02 -0.32530533910E+02  0.18166828545E+03  0.20226830255E+03  0.00000000000E+00 0.  1.
          2    1    1    2  501    0  0.12722280560E+03 -0.27842094075E+02  0.60945464917E+03  0.62321408349E+03  0.00000000000E+00 0. -1.
<scales pt_clust_5="13000.00000" pt_clust_6="13000.00000" pt_clust_7="13000.00000" pt_clust_8="13000.00000" pt_clust_9="130.23380"></scales>
<clustering>
<clus scale="   79.937">  5  6 -1 -1</clus>
<clus scale="  123.748">  7  8 -1 -1</clus>
<clus scale="  130.234">  2  9  1 -1</clus>
<clus scale="  174.767">  1  5  2 -1</clus>
<clus scale="  130.234">  2  5  1 -1</clus>
</clustering>
</event>
<event>
 9    1  0.8429841E-005  0.1232446E+03  0.7546771E-02  0.1241991E+00
          1   -1    0    0  502    0 -0.00000000000E+00  0.00000000000E+00  0.13325859405E+03  0.13325859405E+03  0.00000000000E+00 0. -1.
         21   -1    0    0  501  502  0.00000000000E+00 -0.00000000000E+00 -0.89502802162E+03  0.89502802162E+03  0.00000000000E+00 0. -1.
        -24    2    1    2    0    0  0.53745992353E+02  0.44429812147E+02  0.16606850299E+02  0.10793222735E+03  0.80690385559E+02 0.  0.
         23    2    1    2    0    0  0.74450426050E+01 -0.12909937574E+03 -0.27587234446E+02  0.16233231379E+03  0.94173494792E+02 0.  0.
         13    1    3    3    0    0  0.27102864280E+02  0.42018687987E+02 -0.26960744961E+02  0.56806840796E+02  0.00000000000E+00 0. -1.
        -14    1    3    3    0    0  0.26643128073E+02  0.24111241601E+01  0.43567595260E+02  0.51125386551E+02  0.00000000000E+00 0.  1.
        -11    1    4    4    0    0  0.46427382319E+02 -0.44737391769E+02  0.28626426154E+01  0.64537824367E+02  0.00000000000E+00 0.  1.
         11    1    4    4    0    0 -0.38982339714E+02 -0.84361983972E+02 -0.30449877061E+02  0.97794489427E+02  0.00000000000E+00 0. -1.
          2    1    1    2  501    0 -0.61191034958E+02  0.84669563594E+02 -0.75078904342E+03  0.75802207454E+03  0.00000000000E+00 0. -1.
<scales pt_clust_5="13000.00000" pt_clust_6="13000.00000" pt_clust_7="13000.00000" pt_clust_8="13000.00000" pt_clust_9="104.46663"></scales>
<clustering>
<clus scale="   80.690">  5  6 -1 -1</clus>
<clus scale="   94.173">  7  8 -1 -1</clus>
<clus scale="  104.467">  2  9  1 -1</clus>
<clus scale="  113.276">  1  5  2 -1</clus>
<clus scale="  104.467">  2  5  1 -1</clus>
</clustering>
</event>
<event>
 9    1  0.8429841E-005  0.9968140E+02  0.7546771E-02  0.1285939E+00
          1   -1    0    0  502    0 -0.00000000000E+00  0.00000000000E+00  0.43876838937E+03  0.43876838937E+03  0.00000000000E+00 0. -1.
         21   -1    0    0  501  502  0.00000000000E+00 -0.00000000000E+00 -0.17224786457E+03  0.17224786457E+03  0.00000000000E+00 0. -1.
        -24    2    1    2    0    0  0.20785635512E+02  0.31524536969E+02  0.33607824936E+03  0.34748267183E+03  0.79810891835E+02 0.  0.
         23    2    1    2    0    0 -0.16972579319E+02 -0.91488689199E+02  0.42689587538E+02  0.13621626977E+03  0.89856677916E+02 0.  0.
         13    1    3    3    0    0 -0.30058729833E+02  0.11823132107E+02  0.15693544648E+03  0.16022499198E+03  0.00000000000E+00 0. -1.
        -14    1    3    3    0    0  0.50844365345E+02  0.19701404862E+02  0.17914280287E+03  0.18725767985E+03  0.00000000000E+00 0.  1.
        -11    1    4    4    0    0 -0.49995957795E+02 -0.49903522277E+02  0.44527164367E+01  0.70779827741E+02  0.00000000000E+00 0. -1.
         11    1    4    4    0    0  0.33023378476E+02 -0.41585166923E+02  0.38236871101E+02  0.65436442030E+02  0.00000000000E+00 0.  1.
          2    1    1    2  501    0 -0.38130561935E+01  0.59964152230E+02 -0.11224731210E+03  0.12731731235E+03  0.00000000000E+00 0. -1.
<scales pt_clust_5="13000.00000" pt_clust_6="13000.00000" pt_clust_7="13000.00000" pt_clust_8="13000.00000" pt_clust_9="60.08526"></scales>
<clustering>
<clus scale="   60.085">  2  9  1 -1</clus>
<clus scale="   79.811">  5  6 -1 -1</clus>
<clus scale="   89.857">  7  8 -1 -1</clus>
<clus scale="   90.730">  1  5  2 -1</clus>
<clus scale="   60.085">  2  5  1 -1</clus>
</clustering>
</event>
<event>
 9    1  0.8429841E-005  0.1411262E+03  0.7546771E-02  0.1214396E+00
          1   -1    0    0  502    0 -0.00000000000E+00  0.00000000000E+00  0.81840159170E+03  0.81840159170E+03  0.00000000000E+00 0. -1.
         21   -1    0    0  501  502  0.00000000000E+00 -0.00000000000E+00 -0.38055544168E+02  0.38055544168E+02  0.00000000000E+00 0. -1.
        -24    2    1    2    0    0 -0.68773038287E+02  0.10783555402E+03  0.33026993747E+03  0.36264727494E+03  0.77952401613E+02 0.  0.
         23    2    1    2    0    0  0.66862420887E+02 -0.56814685299E+02  0.18427110232E+03  0.22314571176E+03  0.90220162583E+02 0.  0.
         13    1    3    3    0    0 -0.47041227325E+02  0.88911239217E+01  0.91250794496E+02  0.10304676923E+03  0.00000000000E+00 0. -1.
        -14    1    3    3    0    0 -0.21731810962E+02  0.98944430093E+02  0.23901914298E+03  0.25960050571E+03  0.00000000000E+00 0.  1.
        -13    1    4    4    0    0 -0.22050921855E+02 -0.72794359066E+01  0.45108589261E+02  0.50734782614E+02  0.00000000000E+00 0.  1.
         13    1    4    4    0    0  0.88913342742E+02 -0.49535249392E+02  0.13916251306E+03  0.17241092915E+03  0.00000000000E+00 0. -1.
          2    1    1    2  501    0  0.19106174003E+01 -0.51020868716E+02  0.26580500774E+03  0.27066414917E+03  0.00000000000E+00 0. -1.
<scales pt_clust_5="13000.00000" pt_clust_6="13000.00000" pt_clust_7="13000.00000" pt_clust_8="13000.00000" pt_clust_9="51.05666"></scales>
<clustering>
<clus scale="   51.057">  2  9  1 -1</clus>
<clus scale="   77.952">  5  6 -1 -1</clus>
<clus scale="   90.220">  7  8 -1 -1</clus>
<clus scale="  133.617">  1  5  2 -1</clus>
<clus scale="   51.057">  2  5  1 -1</clus>
</clustering>
</event>
<event>
 9    1  0.8429841E-005  0.2180406E+03  0.7546771E-02  0.1137398E+00
          1   -1    0    0  502    0 -0.00000000000E+00  0.00000000000E+00  0.21995964873E+03  0.21995964873E+03  0.00000000000E+00 0. -1.
         21   -1    0    0  501  502  0.00000000000E+00 -0.00000000000E+00 -0.56562359767E+03  0.56562359767E+03  0.00000000000E+00 0. -1.
        -24    2    1    2    0    0 -0.73860843189E+02 -0.14232017325E+03 -0.97933015733E+01  0.17964489555E+03  0.80410968598E+02 0.  0.
         23    2    1    2    0    0 -0.94282748073E+01  0.26893410983E+03 -0.65644570369E+02  0.29611533880E+03  0.10469305832E+03 0.  0.
         13    1    3    3    0    0 -0.64671632696E+02 -0.13286708922E+03 -0.34406763058E+02  0.15172313211E+03  0.00000000000E+00 0. -1.
        -14    1    3    3    0    0 -0.91892104925E+01 -0.94530840263E+01  0.24613461485E+02  0.27921763436E+02  0.00000000000E+00 0.  1.
        -11    1    4    4    0    0 -0.16859061646E+02  0.95317093861E+02 -0.74450269921E+02  0.12211641590E+03  0.00000000000E+00 0.  1.
         11    1    4    4    0    0  0.74307868391E+01  0.17361701596E+03  0.88056995518E+01  0.17399892290E+03  0.00000000000E+00 0. -1.
          2    1    1    2  501    0  0.83289117996E+02 -0.12661393658E+03 -0.27022607699E+03  0.30982301206E+03  0.00000000000E+00 0. -1.
<scales pt_clust_5="13000.00000" pt_clust_6="13000.00000" pt_clust_7="13000.00000" pt_clust_8="13000.00000" pt_clust_9="151.55252"></scales>
<clustering>
<clus scale="   80.411">  5  6 -1 -1</clus>
<clus scale="  104.693">  7  8 -1 -1</clus>
<clus scale="  151.553">  2  9  1 -1</clus>
<clus scale="  207.478">  1  5  2 -1</clus>
<clus scale="  151.553">  2  5  1 -1</clus>
</clustering>
</event>
<event>
 9    1  0.8429841E-005  0.1124168E+03  0.7546771E-02  0.1263469E+00
         -4   -1    0    0    0  501 -0.00000000000E+00  0.00000000000E+00  0.60650619981E+02  0.60650619981E+02  0.00000000000E+00 0.  1.
         21   -1    0    0  501  502  0.00000000000E+00 -0.00000000000E+00 -0.39665755636E+03  0.39665755636E+03  0.00000000000E+00 0.  1.
        -24    2    1    2    0    0  0.50131033094E+02  0.20657608429E+02 -0.21748656286E+02  0.98709992835E+02  0.79566333145E+02 0.  0.
         23    2    1    2    0    0 -0.44515770175E+02 -0.48064529978E+02 -0.14272263016E+03  0.18479614174E+03  0.97406426911E+02 0.  0.
         11    1    3    3    0    0  0.11238969293E+02  0.42575883227E+02 -0.30038001456E+02  0.53303862851E+02  0.00000000000E+00 0. -1.
        -12    1    3    3    0    0  0.38892063800E+02 -0.21918274798E+02  0.82893451702E+01  0.45406129984E+02  0.00000000000E+00 0.  1.
        -11    1    4    4    0    0 -0.57983986856E+02 -0.36557050750E+01 -0.35815499595E+02  0.68251424326E+02  0.00000000000E+00 0. -1.
         11    1    4    4    0    0  0.13468216681E+02 -0.44408824903E+02 -0.10690713057E+03  0.11654471741E+03  0.00000000000E+00 0.  1.
         -3    1    1    2    0  502 -0.56152629184E+01  0.27406921549E+02 -0.17153564993E+03  0.17380204177E+03  0.00000000000E+00 0.  1.
<scales pt_clust_5="13000.00000" pt_clust_6="13000.00000" pt_clust_7="13000.00000" pt_clust_8="13000.00000" pt_clust_9="27.97625"></scales>
<clustering>
<clus scale="   27.976">  2  9  1 -1</clus>
<clus scale="   79.566">  5  6 -1 -1</clus>
<clus scale="   97.367">  1  5  2 -1</clus>
<clus scale="   97.406">  7  8 -1 -1</clus>
<clus scale="   27.976">  2  5  1 -1</clus>
</clustering>
</event>
<event>
 9    1  0.8429841E-005  0.1469189E+03  0.7546771E-02  0.1209470E+00
         21   -1    0    0  501  502  0.00000000000E+00  0.00000000000E+00  0.87557832112E+03  0.87557832112E+03  0.00000000000E+00 0. -1.
          3   -1    0    0  502    0 -0.00000000000E+00 -0.00000000000E+00 -0.50432866463E+02  0.50432866463E+02  0.00000000000E+00 0. -1.
        -24    2    1    2    0    0 -0.39506635334E+01  0.10371012216E+03  0.18206035454E+03  0.22459387739E+03  0.80777718977E+02 0.  0.
         23    2    1    2    0    0 -0.10839199484E+03 -0.34707559390E+02  0.31277640763E+03  0.34576852433E+03  0.93666173301E+02 0.  0.
         13    1    3    3    0    0  0.18665314352E+02  0.10456113805E+03  0.16508939192E+03  0.19630571279E+03  0.00000000000E+00 0. -1.
        -14    1    3    3    0    0 -0.22615977886E+02 -0.85101589297E+00  0.16970962622E+02  0.28288164594E+02  0.00000000000E+00 0.  1.
        -11    1    4    4    0    0 -0.78186118182E+02  0.15940130646E+02  0.23490500994E+03  0.24808772750E+03  0.00000000000E+00 0. -1.
         11    1    4    4    0    0 -0.30205876658E+02 -0.50647690036E+02  0.77871397699E+02  0.97680796834E+02  0.00000000000E+00 0.  1.
          4    1    1    2  501    0  0.11234265837E+03 -0.69002562769E+02  0.33030869248E+03  0.35564878587E+03  0.00000000000E+00 0. -1.
<scales pt_clust_5="13000.00000" pt_clust_6="13000.00000" pt_clust_7="13000.00000" pt_clust_8="13000.00000" pt_clust_9="113.18925"></scales>
<clustering>
<clus scale="   80.778">  5  6 -1 -1</clus>
<clus scale="   93.666">  7  8 -1 -1</clus>
<clus scale="  131.516">  2  5  1 -1</clus>
<clus scale="  113.189">  1  9  2 -1</clus>
<clus scale="  113.189">  1  5  2 -1</clus>
</clustering>
</event>
<event>
 9    1  0.8429841E-005  0.1493771E+03  0.7546771E-02  0.1204754E+00
          1   -1    0    0  502    0 -0.00000000000E+00  0.00000000000E+00  0.50071311411E+02  0.50071311411E+02  0.00000000000E+00 0. -1.
         21   -1    0    0  501  502  0.00000000000E+00 -0.00000000000E+00 -0.50655765759E+03  0.50655765759E+03  0.00000000000E+00 0. -1.
         23    2    1    2    0    0  0.10750138904E+03 -0.98388581278E+01 -0.17834355423E+03  0.22759345342E+03  0.91318152233E+02 0.  0.
        -24    2    1    2    0    0 -0.12880819065E+03  0.20350866389E+02 -0.21511281366E+03  0.26167632708E+03  0.72078220103E+02 0.  0.
         11    1    4    4    0    0 -0.12827858916E+03  0.33146178332E+02 -0.17454193956E+03  0.21913227567E+03  0.00000000000E+00 0. -1.
        -12    1    4    4    0    0 -0.52960149092E+00 -0.12795311942E+02 -0.40570874096E+02  0.42544051409E+02  0.00000000000E+00 0.  1.
        -13    1    3    3    0    0  0.85839521908E+02 -0.44694937195E+02 -0.10005998447E+03  0.13920510560E+03  0.00000000000E+00 0.  1.
         13    1    3    3    0    0  0.21661867134E+02  0.34856079067E+02 -0.78283569764E+02  0.88388347822E+02  0.00000000000E+00 0. -1.
          2    1    1    2  501    0  0.21306801610E+02 -0.10512008262E+02 -0.63029978279E+02  0.67359188493E+02  0.00000000000E+00 0. -1.
<scales pt_clust_5="13000.00000" pt_clust_6="13000.00000" pt_clust_7="13000.00000" pt_clust_8="13000.00000" pt_clust_9="23.75883"></scales>
<clustering>
<clus scale="   23.759">  2  9  1 -1</clus>
<clus scale="   72.078">  5  6 -1 -1</clus>
<clus scale="   91.318">  7  8 -1 -1</clus>
<clus scale="  138.455">  2  5  1 -1</clus>
<clus scale="   23.759">  2  5  1 -1</clus>
</clustering>
</event>
<event>
 9    1  0.8429841E-005  0.2195054E+03  0.7546771E-02  0.1170694E+00
          1   -1    0    0  502    0 -0.00000000000E+00  0.00000000000E+00  0.16221990886E+04  0.16221990886E+04  0.00000000000E+00 0. -1.
         21   -1    0    0  501  502  0.00000000000E+00 -0.00000000000E+00 -0.49090228244E+02  0.49090228244E+02  0.00000000000E+00 0. -1.
         23    2    1    2    0    0  0.78689828616E+01  0.10762200334E+02  0.95214622488E+02  0.13302390560E+03  0.91933613426E+02 0.  0.
        -24    2    1    2    0    0  0.16927429085E+03 -0.11461705996E+03  0.68544304351E+03  0.71964189172E+03  0.79129200915E+02 0.  0.
         11    1    4    4    0    0  0.14713498639E+03 -0.12328486100E+03  0.56057052339E+03  0.59252609467E+03  0.00000000000E+00 0. -1.
        -12    1    4    4    0    0  0.22139304462E+02  0.86678010422E+01  0.12487252012E+03  0.12711579705E+03  0.00000000000E+00 0.  1.
        -13    1    3    3    0    0  0.22316638610E+02 -0.40278890821E+01  0.10689711131E+03  0.10927602050E+03  0.00000000000E+00 0. -1.
         13    1    3    3    0    0 -0.14447655748E+02  0.14790089416E+02 -0.11682488824E+02  0.23747885099E+02  0.00000000000E+00 0.  1.
          2    1    1    2  501    0 -0.17714327372E+03  0.10385485963E+03  0.79245119435E+03  0.81862351953E+03  0.00000000000E+00 0. -1.
<scales pt_clust_5="13000.00000" pt_clust_6="13000.00000" pt_clust_7="13000.00000" pt_clust_8="13000.00000" pt_clust_9="204.74675"></scales>
<clustering>
<clus scale="   79.129">  5  6 -1 -1</clus>
<clus scale="   91.934">  7  8 -1 -1</clus>
<clus scale="   92.895">  1  7  2 -1</clus>
<clus scale="  204.747">  2  9  1 -1</clus>
<clus scale="  204.747">  2  5  1 -1</clus>
</clustering>
</event>
<event>
 9    1  0.8429841E-005  0.1700583E+03  0.7546771E-02  0.1178654E+00
         21   -1    0    0  501  502  0.00000000000E+00  0.00000000000E+00  0.56675800197E+03  0.56675800197E+03  0.00000000000E+00 0. -1.
          1   -1    0    0  502    0 -0.00000000000E+00 -0.00000000000E+00 -0.16940699936E+03  0.16940699936E+03  0.00000000000E+00 0. -1.
         23    2    1    2    0    0  0.10451461665E+03  0.10399538317E+03 -0.10165144967E+03  0.19928203533E+03  0.87418348017E+02 0.  0.
        -24    2    1    2    0    0 -0.11605005516E+03 -0.72752972312E+02  0.35367622860E+03  0.38778948569E+03  0.80828214481E+02 0.  0.
         13    1    4    4    0    0 -0.33407413092E+02 -0.82694627093E+01  0.19231183453E+03  0.19536704165E+03  0.00000000000E+00 0. -1.
        -14    1    4    4    0    0 -0.82642642066E+02 -0.64483509603E+02  0.16136439407E+03  0.19242244404E+03  0.00000000000E+00 0.  1.
        -13    1    3    3    0    0 -0.11620935544E+02  0.20539869932E+02 -0.33199387087E+02  0.40732440422E+02  0.00000000000E+00 0.  1.
         13    1    3    3    0    0  0.11613555219E+03  0.83455513238E+02 -0.68452062588E+02  0.15854959491E+03  0.00000000000E+00 0. -1.
          2    1    1    2  501    0  0.11535438511E+02 -0.31242410858E+02  0.14532622369E+03  0.14909348031E+03  0.00000000000E+00 0. -1.
<scales pt_clust_5="13000.00000" pt_clust_6="13000.00000" pt_clust_7="13000.00000" pt_clust_8="13000.00000" pt_clust_9="33.30397"></scales>
<clustering>
<clus scale="   33.304">  1  9  2 -1</clus>
<clus scale="   80.828">  5  6 -1 -1</clus>
<clus scale="   87.418">  7  8 -1 -1</clus>
<clus scale="  166.766">  1  5  2 -1</clus>
<clus scale="   33.304">  1  5  2 -1</clus>
</clustering>
</event>
<event>
 9    1  0.8429841E-005  0.1339054E+03  0.7546771E-02  0.1223837E+00
         21   -1    0    0  501  502  0.00000000000E+00  0.00000000000E+00  0.35133139106E+03  0.35133139106E+03  0.00000000000E+00 0.  1.
          3   -1    0    0  502    0 -0.00000000000E+00 -0.00000000000E+00 -0.17812561342E+03  0.17812561342E+03  0.00000000000E+00 0. -1.
        -24    2    1    2    0    0  0.30047137094E+02 -0.98714824047E+02 -0.11279476474E+03  0.17363122004E+03  0.82326755597E+02 0.  0.
         23    2    1    2    0    0 -0.57671484807E+02  0.63734646489E+02  0.88179727825E+02  0.15304562743E+03  0.90880109774E+02 0.  0.
         11    1    3    3    0    0  0.28680291935E+02 -0.55583915576E+02 -0.11447287499E+03  0.13044604220E+03  0.00000000000E+00 0. -1.
        -12    1    3    3    0    0  0.13668451594E+01 -0.43130908471E+02  0.16781102575E+01  0.43185177842E+02  0.00000000000E+00 0.  1.
        -13    1    4    4    0    0  0.73573397602E+01  0.24065254015E+02 -0.11437680577E+02  0.27642131541E+02  0.00000000000E+00 0. -1.
         13    1    4    4    0    0 -0.65028824567E+02  0.39669392474E+02  0.99617408402E+02  0.12540349589E+03  0.00000000000E+00 0.  1.
          4    1    1    2  501    0  0.27624347713E+02  0.34980177558E+02  0.19782081455E+03  0.20278015701E+03  0.00000000000E+00 0. -1.
<scales pt_clust_5="13000.00000" pt_clust_6="13000.00000" pt_clust_7="13000.00000" pt_clust_8="13000.00000" pt_clust_9="44.57261"></scales>
<clustering>
<clus scale="   44.573">  1  9  2 -1</clus>
<clus scale="   82.327">  5  6 -1 -1</clus>
<clus scale="   90.880">  7  8 -1 -1</clus>
<clus scale="  128.254">  2  5  1 -1</clus>
<clus scale="   44.573">  1  5  2 -1</clus>
</clustering>
</event>
<event>
 9    1  0.8429841E-005  0.1418817E+03  0.7546771E-02  0.1224687E+00
          1   -1    0    0  502    0 -0.00000000000E+00  0.00000000000E+00  0.29364357560E+03  0.29364357560E+03  0.00000000000E+00 0. -1.
         21   -1    0    0  501  502  0.00000000000E+00 -0.00000000000E+00 -0.28854844337E+03  0.28854844337E+03  0.00000000000E+00 0. -1.
         23    2    1    2    0    0 -0.53078941581E+02 -0.37281690859E+02 -0.21167442035E+03  0.23669731291E+03  0.83739233321E+02 0.  0.
        -24    2    1    2    0    0  0.10637556643E+03 -0.65877832326E+02  0.92491860080E+02  0.17541424775E+03  0.80992371304E+02 0.  0.
         13    1    4    4    0    0  0.53046875460E+02 -0.58170628500E+02  0.92585599237E+02  0.12153142064E+03  0.00000000000E+00 0. -1.
        -14    1    4    4    0    0  0.53328690966E+02 -0.77072038259E+01 -0.93739156958E-01  0.53882827116E+02  0.00000000000E+00 0.  1.
        -11    1    3    3    0    0 -0.59380643459E+02  0.27880520138E+01 -0.85284519458E+02  0.10395808439E+03  0.00000000000E+00 0.  1.
         11    1    3    3    0    0  0.63017018781E+01 -0.40069742873E+02 -0.12638990089E+03  0.13273922852E+03  0.00000000000E+00 0. -1.
          2    1    1    2  501    0 -0.53296624846E+02  0.10315952318E+03  0.12427769250E+03  0.17008045830E+03  0.00000000000E+00 0. -1.
<scales pt_clust_5="13000.00000" pt_clust_6="13000.00000" pt_clust_7="13000.00000" pt_clust_8="13000.00000" pt_clust_9="116.49322"></scales>
<clustering>
<clus scale="   80.992">  5  6 -1 -1</clus>
<clus scale="   83.739">  7  8 -1 -1</clus>
<clus scale="  105.922">  1  7  2 -1</clus>
<clus scale="  116.493">  2  9  1 -1</clus>
<clus scale="  116.493">  2  5  1 -1</clus>
</clustering>
</event>
<event>
 9    1  0.8429841E-005  0.1399426E+03  0.7546771E-02  0.1215618E+00
         21   -1    0    0  501  502  0.00000000000E+00  0.00000000000E+00  0.11315969632E+03  0.11315969632E+03  0.00000000000E+00 0.  1.
         -4   -1    0    0    0  501 -0.00000000000E+00 -0.00000000000E+00 -0.35513762522E+03  0.35513762522E+03  0.00000000000E+00 0.  1.
        -24    2    1    2    0    0  0.22704303184E+02  0.11071820137E+03 -0.27068516833E+03  0.30417175904E+03  0.80473555580E+02 0.  0.
         23    2    1    2    0    0  0.27563733607E+01 -0.79244860495E+02  0.27737361040E+02  0.12363163827E+03  0.90708738689E+02 0.  0.
         13    1    3    3    0    0  0.29730425493E+02  0.50870905278E+02 -0.56358953056E+02  0.81535751627E+02  0.00000000000E+00 0. -1.
        -14    1    3    3    0    0 -0.70261223091E+01  0.59847296090E+02 -0.21432621528E+03  0.22263600742E+03  0.00000000000E+00 0.  1.
        -13    1    4    4    0    0  0.28182861633E+02  0.69776766717E+01  0.15490724564E+02  0.32907813800E+02  0.00000000000E+00 0. -1.
         13    1    4    4    0    0 -0.25426488272E+02 -0.86222537167E+02  0.12246636476E+02  0.90723824469E+02  0.00000000000E+00 0.  1.
         -3    1    1    2    0  502 -0.25460676544E+02 -0.31473340873E+02  0.96987839389E+00  0.40493924235E+02  0.00000000000E+00 0.  1.
<scales pt_clust_5="13000.00000" pt_clust_6="13000.00000" pt_clust_7="13000.00000" pt_clust_8="13000.00000" pt_clust_9="40.48231"></scales>
<clustering>
<clus scale="   40.482">  1  9  2 -1</clus>
<clus scale="   80.474">  5  6 -1 -1</clus>
<clus scale="   90.709">  7  8 -1 -1</clus>
<clus scale="  133.536">  2  5  1 -1</clus>
<clus scale="   40.482">  1  5  2 -1</clus>
</clustering>
</event>
<event>
 9    1  0.8429841E-005  0.1035888E+03  0.7546771E-02  0.1277092E+00
         21   -1    0    0  501  502  0.00000000000E+00  0.00000000000E+00  0.64128070726E+02  0.64128070726E+02  0.00000000000E+00 0. -1.
          1   -1    0    0  502    0 -0.00000000000E+00 -0.00000000000E+00 -0.41286564510E+03  0.41286564510E+03  0.00000000000E+00 0. -1.
         23    2    1    2    0    0 -0.86603847479E+01 -0.54072732060E+02 -0.21766252452E+03  0.24197504775E+03  0.90421714961E+02 0.  0.
        -24    2    1    2    0    0 -0.29649640780E+02  0.44709043384E+02 -0.15919723344E+03  0.18658114201E+03  0.81183518419E+02 0.  0.
         13    1    4    4    0    0 -0.51300192406E+02  0.49923210261E+02 -0.13974670176E+03  0.15701330300E+03  0.00000000000E+00 0. -1.
        -14    1    4    4    0    0  0.21650551625E+02 -0.52141668773E+01 -0.19450531672E+02  0.29567839018E+02  0.00000000000E+00 0.  1.
        -11    1    3    3    0    0 -0.29116020585E+02 -0.41696065763E+02 -0.21116051668E+03  0.21719822366E+03  0.00000000000E+00 0. -1.
         11    1    3    3    0    0  0.20455635837E+02 -0.12376666297E+02 -0.65020078386E+01  0.24776824092E+02  0.00000000000E+00 0.  1.
          2    1    1    2  501    0  0.38310025528E+02  0.93636886758E+01  0.28122183582E+02  0.48437526062E+02  0.00000000000E+00 0. -1.
<scales pt_clust_5="13000.00000" pt_clust_6="13000.00000" pt_clust_7="13000.00000" pt_clust_8="13000.00000" pt_clust_9="39.43776"></scales>
<clustering>
<clus scale="   39.438">  1  9  2 -1</clus>
<clus scale="   81.184">  5  6 -1 -1</clus>
<clus scale="   90.422">  7  8 -1 -1</clus>
<clus scale="   95.631">  1  5  2 -1</clus>
<clus scale="   39.438">  1  5  2 -1</clus>
</clustering>
</event>
<event>
 9    1  0.8429841E-005  0.3444259E+03  0.7546771E-02  0.1065473E+00
          3   -1    0    0  502    0 -0.00000000000E+00  0.00000000000E+00  0.81832841848E+03  0.81832841848E+03  0.00000000000E+00 0. -1.
         21   -1    0    0  501  502  0.00000000000E+00 -0.00000000000E+00 -0.23926083110E+03  0.23926083110E+03  0.00000000000E+00 0. -1.
         23    2    1    2    0    0  0.28901216180E+03 -0.55064795794E+02  0.20187669807E+03  0.37044568468E+03  0.99577320073E+02 0.  0.
        -24    2    1    2    0    0 -0.31362270191E+03  0.21832485574E+03  0.34049328717E+03  0.51800977212E+03  0.79834225839E+02 0.  0.
         11    1    4    4    0    0 -0.31102182604E+03  0.19570748361E+03  0.31722160947E+03  0.48545395758E+03  0.00000000000E+00 0. -1.
        -12    1    4    4    0    0 -0.26008758713E+01  0.22617372132E+02  0.23271677702E+02  0.32555814543E+02  0.00000000000E+00 0.  1.
        -11    1    3    3    0    0  0.76742201200E+02  0.29351829149E+02  0.52816838733E+02  0.97675553611E+02  0.00000000000E+00 0.  1.
         11    1    3    3    0    0  0.21226996060E+03 -0.84416624944E+02  0.14905985933E+03  0.27277013107E+03  0.00000000000E+00 0. -1.
          4    1    1    2  501    0  0.24610540116E+02 -0.16326005994E+03  0.36697602135E+02  0.16913379278E+03  0.00000000000E+00 0. -1.
<scales pt_clust_5="13000.00000" pt_clust_6="13000.00000" pt_clust_7="13000.00000" pt_clust_8="13000.00000" pt_clust_9="165.10459"></scales>
<clustering>
<clus scale="   79.834">  5  6 -1 -1</clus>
<clus scale="   99.577">  7  8 -1 -1</clus>
<clus scale="  165.105">  2  9  1 -1</clus>
<clus scale="  339.245">  2  5  1 -1</clus>
<clus scale="  165.105">  2  5  1 -1</clus>
</clustering>
</event>
<event>
 9    1  0.8429841E-005  0.1043806E+03  0.7546771E-02  0.1274370E+00
         -4   -1    0    0    0  501 -0.00000000000E+00  0.00000000000E+00  0.21710105190E+03  0.21710105190E+03  0.00000000000E+00 0.  1.
         21   -1    0    0  501  502  0.00000000000E+00 -0.00000000000E+00 -0.27953133663E+03  0.27953133663E+03  0.00000000000E+00 0.  1.
        -24    2    1    2    0    0 -0.38887459629E+02  0.25319895657E+01  0.80223521761E+02  0.12104299364E+03  0.81834878735E+02 0.  0.
         23    2    1    2    0    0  0.70849040738E+02 -0.50636358607E+02  0.78440502746E+02  0.14707622992E+03  0.88853123460E+02 0.  0.
         13    1    3    3    0    0 -0.39984626381E+02 -0.34893904727E+02  0.50192129301E+02  0.73045224195E+02  0.00000000000E+00 0. -1.
        -14    1    3    3    0    0  0.10971667522E+01  0.37425894292E+02  0.30031392460E+02  0.47997769443E+02  0.00000000000E+00 0.  1.
        -13    1    4    4    0    0  0.61249449599E+02 -0.68972909874E+02  0.34461018194E+02  0.98469889548E+02  0.00000000000E+00 0. -1.
         13    1    4    4    0    0  0.95995911393E+01  0.18336551267E+02  0.43979484552E+02  0.48606340367E+02  0.00000000000E+00 0.  1.
         -3    1    1    2    0  502 -0.31961581110E+02  0.48104369041E+02 -0.22109430924E+03  0.22851316498E+03  0.00000000000E+00 0.  1.
<scales pt_clust_5="13000.00000" pt_clust_6="13000.00000" pt_clust_7="13000.00000" pt_clust_8="13000.00000" pt_clust_9="57.75442"></scales>
<clustering>
<clus scale="   57.754">  2  9  1 -1</clus>
<clus scale="   81.835">  5  6 -1 -1</clus>
<clus scale="   88.853">  7  8 -1 -1</clus>
<clus scale="   98.475">  1  5  2 -1</clus>
<clus scale="   57.754">  2  5  1 -1</clus>
</clustering>
</event>
<event>
 9    1  0.8429841E-005  0.1244436E+03  0.7546771E-02  0.1236415E+00
         -2   -1    0    0    0  501 -0.00000000000E+00  0.00000000000E+00  0.36141371539E+02  0.36141371539E+02  0.00000000000E+00 0.  1.
         21   -1    0    0  501  502  0.00000000000E+00 -0.00000000000E+00 -0.14560396606E+04  0.14560396606E+04  0.00000000000E+00 0.  1.
        -24    2    1    2    0    0 -0.36179087918E+01  0.74870277425E+02 -0.14755797362E+03  0.18485086133E+03  0.82327623862E+02 0.  0.
         23    2    1    2    0    0  0.75796501230E+02 -0.13848615998E+03 -0.54382435092E+03  0.57248852782E+03  0.84111020180E+02 0.  0.
         13    1    3    3    0    0 -0.38862879221E+02  0.59266019696E+02 -0.78463013147E+02  0.10573187270E+03  0.00000000000E+00 0. -1.
        -14    1    3    3    0    0  0.35244970430E+02  0.15604257729E+02 -0.69094960476E+02  0.79118988637E+02  0.00000000000E+00 0.  1.
        -13    1    4    4    0    0  0.59594067012E+02 -0.38261872245E+02 -0.15141502628E+03  0.16715840953E+03  0.00000000000E+00 0.  1.
         13    1    4    4    0    0  0.16202434218E+02 -0.10022428774E+03 -0.39240932464E+03  0.40533011829E+03  0.00000000000E+00 0. -1.
         -1    1    1    2    0  502 -0.72178592438E+02  0.63615882559E+02 -0.72851596455E+03  0.73484164303E+03  0.00000000000E+00 0.  1.
<scales pt_clust_5="13000.00000" pt_clust_6="13000.00000" pt_clust_7="13000.00000" pt_clust_8="13000.00000" pt_clust_9="96.21190"></scales>
<clustering>
<clus scale="   82.328">  5  6 -1 -1</clus>
<clus scale="   84.111">  7  8 -1 -1</clus>
<clus scale="   96.212">  2  9  1 -1</clus>
<clus scale="  123.245">  1  5  2 -1</clus>
<clus scale="   96.212">  2  5  1 -1</clus>
</clustering>
</event>
<event>
 9    1  0.8429841E-005  0.1799686E+03  0.7546771E-02  0.1182170E+00
         21   -1    0    0  501  502  0.00000000000E+00  0.00000000000E+00  0.73665153837E+03  0.73665153837E+03  0.00000000000E+00 0. -1.
         -4   -1    0    0    0  501 -0.00000000000E+00 -0.00000000000E+00 -0.82239424789E+02  0.82239424789E+02  0.00000000000E+00 0.  1.
         23    2    1    2    0    0 -0.79224334095E+02 -0.22022466912E+02  0.10570609387E+03  0.16756787655E+03  0.10071609013E+03 0.  0.
        -24    2    1    2    0    0  0.16945974693E+03 -0.86307752173E+02  0.37049482373E+03  0.42408511339E+03  0.80100780744E+02 0.  0.
         13    1    4    4    0    0  0.16284204159E+03 -0.52910736697E+02  0.32396713973E+03  0.36643114523E+03  0.00000000000E+00 0. -1.
        -14    1    4    4    0    0  0.66177053338E+01 -0.33397015476E+02  0.46527683997E+02  0.57653968161E+02  0.00000000000E+00 0.  1.
        -13    1    3    3    0    0 -0.93941435590E+02 -0.42494702974E+02  0.73285798852E+02  0.12649743640E+03  0.00000000000E+00 0.  1.
         13    1    3    3    0    0  0.14717101495E+02  0.20472236062E+02  0.32420295016E+02  0.41070440157E+02  0.00000000000E+00 0. -1.
         -3    1    1    2    0  502 -0.90235412832E+02  0.10833021909E+03  0.17821119598E+03  0.22723797321E+03  0.00000000000E+00 0.  1.
<scales pt_clust_5="13000.00000" pt_clust_6="13000.00000" pt_clust_7="13000.00000" pt_clust_8="13000.00000" pt_clust_9="161.16010"></scales>
<clustering>
<clus scale="   80.101">  5  6 -1 -1</clus>
<clus scale="  100.716">  7  8 -1 -1</clus>
<clus scale="  130.020">  2  7  1 -1</clus>
<clus scale="  161.160">  1  9  2 -1</clus>
<clus scale="  161.160">  1  5  2 -1</clus>
</clustering>
</event>
<event>
 9    1  0.8429841E-005  0.1004362E+03  0.7546771E-02  0.1284959E+00
         21   -1    0    0  501  502  0.00000000000E+00  0.00000000000E+00  0.48235793938E+03  0.48235793938E+03  0.00000000000E+00 0. -1.
         -2   -1    0    0    0  501 -0.00000000000E+00 -0.00000000000E+00 -0.53311066963E+02  0.53311066963E+02  0.00000000000E+00 0.  1.
         23    2    1    2    0    0 -0.26434511355E+02 -0.51157188537E+02  0.36761383407E+02  0.11196456888E+03  0.88706392360E+02 0.  0.
        -24    2    1    2    0    0 -0.20630651197E+02  0.11757584397E+02  0.31414396403E+03  0.32433866740E+03  0.77105618980E+02 0.  0.
         11    1    4    4    0    0 -0.25556731671E+02  0.42380583229E+02  0.20327963123E+03  0.20921727664E+03  0.00000000000E+00 0. -1.
        -12    1    4    4    0    0  0.49260804742E+01 -0.30622998832E+02  0.11086433279E+03  0.11512139077E+03  0.00000000000E+00 0.  1.
        -13    1    3    3    0    0  0.29530508243E+02 -0.13116188297E+02  0.29768185395E+02  0.43934384874E+02  0.00000000000E+00 0. -1.
         13    1    3    3    0    0 -0.55965019598E+02 -0.38041000240E+02  0.69931980121E+01  0.68030184009E+02  0.00000000000E+00 0.  1.
         -1    1    1    2    0  502  0.47065162552E+02  0.39399604140E+02  0.78141524986E+02  0.99365770060E+02  0.00000000000E+00 0.  1.
<scales pt_clust_5="13000.00000" pt_clust_6="13000.00000" pt_clust_7="13000.00000" pt_clust_8="13000.00000" pt_clust_9="61.37966"></scales>
<clustering>
<clus scale="   61.380">  1  9  2 -1</clus>
<clus scale="   77.106">  5  6 -1 -1</clus>
<clus scale="   88.706">  7  8 -1 -1</clus>
<clus scale="   90.354">  1  5  2 -1</clus>
<clus scale="   61.380">  1  5  2 -1</clus>
</clustering>
</event>
<event>
 9    1  0.8429841E-005  0.1757913E+03  0.7546771E-02  0.1196700E+00
         21   -1    0    0  501  502  0.00000000000E+00  0.00000000000E+00  0.12762306779E+03  0.12762306779E+03  0.00000000000E+00 0. -1.
          1   -1    0    0  502    0 -0.00000000000E+00 -0.00000000000E+00 -0.49838565934E+03  0.49838565934E+03  0.00000000000E+00 0. -1.
        -24    2    1    2    0    0 -0.48845633728E+02  0.28240185280E+02 -0.25621655441E+03  0.27546742002E+03  0.83976024780E+02 0.  0.
         23    2    1    2    0    0 -0.10308168843E+03  0.52768129319E+02 -0.36671590921E+02  0.16157388233E+03  0.10654109024E+03 0.  0.
         13    1    3    3    0    0 -0.49218105484E+02 -0.18883091659E+02 -0.15731415622E+03  0.16591183444E+03  0.00000000000E+00 0. -1.
        -14    1    3    3    0    0  0.37247175534E+00  0.47123276938E+02 -0.98902398190E+02  0.10955558558E+03  0.00000000000E+00 0.  1.
        -13    1    4    4    0    0 -0.15193512241E+01 -0.26589944127E+02  0.27882879604E+01  0.26778874259E+02  0.00000000000E+00 0.  1.
         13    1    4    4    0    0 -0.10156233721E+03  0.79358073446E+02 -0.39459878881E+02  0.13479500807E+03  0.00000000000E+00 0. -1.
          2    1    1    2  501    0  0.15192732216E+03 -0.81008314598E+02 -0.77874446218E+02  0.18896742478E+03  0.00000000000E+00 0. -1.
<scales pt_clust_5="13000.00000" pt_clust_6="13000.00000" pt_clust_7="13000.00000" pt_clust_8="13000.00000" pt_clust_9="139.82697"></scales>
<clustering>
<clus scale="   83.976">  5  6 -1 -1</clus>
<clus scale="  101.170">  2  5  1 -1</clus>
<clus scale="  106.541">  7  8 -1 -1</clus>
<clus scale="  139.827">  1  9  2 -1</clus>
<clus scale="  139.827">  1  5  2 -1</clus>
</clustering>
</event>
<event>
 9    1  0.8429841E-005  0.1038836E+03  0.7546771E-02  0.1278279E+00
         21   -1    0    0  501  502  0.00000000000E+00  0.00000000000E+00  0.70978070581E+02  0.70978070581E+02  0.00000000000E+00 0.  1.
          1   -1    0    0  502    0 -0.00000000000E+00 -0.00000000000E+00 -0.48022388425E+03  0.48022388425E+03  0.00000000000E+00 0. -1.
         23    2    1    2    0    0  0.34903789940E+02 -0.84636135563E+01 -0.88847646105E+02  0.13340814057E+03  0.92811208614E+02 0.  0.
        -24    2    1    2    0    0 -0.15976738538E+02  0.91285565989E+02 -0.46485712759E+02  0.13100862989E+03  0.80087632518E+02 0.  0.
         13    1    4    4    0    0 -0.25981151752E+02  0.18298209093E+02 -0.47714970077E+02  0.57328553722E+02  0.00000000000E+00 0. -1.
        -14    1    4    4    0    0  0.10004413214E+02  0.72987356896E+02  0.12292573176E+01  0.73680076167E+02  0.00000000000E+00 0.  1.
        -11    1    3    3    0    0 -0.19650087442E+02 -0.11020131193E+02  0.65688367615E+01  0.23467399608E+02  0.00000000000E+00 0. -1.
         11    1    3    3    0    0  0.54553877382E+02  0.25565176365E+01 -0.95416482866E+02  0.10994074096E+03  0.00000000000E+00 0.  1.
          2    1    1    2  501    0 -0.18927051402E+02 -0.82821952433E+02 -0.27391245480E+03  0.28678518437E+03  0.00000000000E+00 0. -1.
<scales pt_clust_5="13000.00000" pt_clust_6="13000.00000" pt_clust_7="13000.00000" pt_clust_8="13000.00000" pt_clust_9="84.95714"></scales>
<clustering>
<clus scale="   80.088">  5  6 -1 -1</clus>
<clus scale="   84.957">  1  9  2 -1</clus>
<clus scale="   92.693">  1  5  2 -1</clus>
<clus scale="   92.811">  7  8 -1 -1</clus>
<clus scale="   84.957">  1  5  2 -1</clus>
</clustering>
</event>
<event>
 9    1  0.8429841E-005  0.1267343E+03  0.7546771E-02  0.1232851E+00
          3   -1    0    0  502    0 -0.00000000000E+00  0.00000000000E+00  0.35994797084E+03  0.35994797084E+03  0.00000000000E+00 0. -1.
         21   -1    0    0  501  502  0.00000000000E+00 -0.00000000000E+00 -0.64973343797E+02  0.64973343797E+02  0.00000000000E+00 0.  1.
         23    2    1    2    0    0 -0.74467803251E+02 -0.71184242927E+02  0.19192164736E+03  0.23574526611E+03  0.90162417923E+02 0.  0.
        -24    2    1    2    0    0  0.60661093790E+02  0.31593480359E+02  0.52567952722E+02  0.12354989784E+03  0.88449258342E+02 0.  0.
         11    1    4    4    0    0  0.71833351310E+02 -0.62924488854E+01  0.37480900142E+02  0.81267725136E+02  0.00000000000E+00 0. -1.
        -12    1    4    4    0    0 -0.11172257520E+02  0.37885929244E+02  0.15087052580E+02  0.42282172701E+02  0.00000000000E+00 0.  1.
        -13    1    3    3    0    0 -0.96462172273E+01 -0.67503505012E+02  0.70664216427E+02  0.98199817611E+02  0.00000000000E+00 0.  1.
         13    1    3    3    0    0 -0.64821586023E+02 -0.36807379151E+01  0.12125743093E+03  0.13754544850E+03  0.00000000000E+00 0. -1.
          4    1    1    2  501    0  0.13806709461E+02  0.39590762568E+02  0.50485026957E+02  0.65626150685E+02  0.00000000000E+00 0. -1.
<scales pt_clust_5="13000.00000" pt_clust_6="13000.00000" pt_clust_7="13000.00000" pt_clust_8="13000.00000" pt_clust_9="41.92917"></scales>
<clustering>
<clus scale="   41.929">  2  9  1 -1</clus>
<clus scale="   88.449">  5  6 -1 -1</clus>
<clus scale="   90.162">  7  8 -1 -1</clus>
<clus scale="  125.521">  2  5  1 -1</clus>
<clus scale="   41.929">  2  5  1 -1</clus>
</clustering>
</event>
<event>
 9    1  0.8429841E-005  0.1723220E+03  0.7546771E-02  0.1208574E+00
         21   -1    0    0  501  502  0.00000000000E+00  0.00000000000E+00  0.13170381044E+04  0.13170381044E+04  0.00000000000E+00 0. -1.
          3   -1    0    0  502    0 -0.00000000000E+00 -0.00000000000E+00 -0.59039363047E+02  0.59039363047E+02  0.00000000000E+00 0. -1.
        -24    2    1    2    0    0 -0.14860004129E+02  0.74830677325E+01  0.68507553116E+01  0.83365734742E+02  0.81400840630E+02 0.  0.
         23    2    1    2    0    0 -0.12878260982E+03 -0.52061419770E+02  0.50852752237E+03  0.53501417887E+03  0.91348664841E+02 0.  0.
         11    1    3    3    0    0  0.99652796276E+01  0.40447222593E+02  0.85222653900E+00  0.41665464159E+02  0.00000000000E+00 0. -1.
        -12    1    3    3    0    0 -0.24825283756E+02 -0.32964154860E+02  0.59985287726E+01  0.41700270583E+02  0.00000000000E+00 0.  1.
        -13    1    4    4    0    0 -0.80117600715E+02  0.38416386190E+01  0.36233310548E+03  0.37110492783E+03  0.00000000000E+00 0. -1.
         13    1    4    4    0    0 -0.48665009109E+02 -0.55903058389E+02  0.14619441688E+03  0.16390925104E+03  0.00000000000E+00 0.  1.
          4    1    1    2  501    0  0.14364261395E+03  0.44578352038E+02  0.74262046366E+03  0.75769755382E+03  0.00000000000E+00 0. -1.
<scales pt_clust_5="13000.00000" pt_clust_6="13000.00000" pt_clust_7="13000.00000" pt_clust_8="13000.00000" pt_clust_9="146.11736"></scales>
<clustering>
<clus scale="   81.401">  5  6 -1 -1</clus>
<clus scale="   83.084">  2  5  1 -1</clus>
<clus scale="   91.349">  7  8 -1 -1</clus>
<clus scale="  146.117">  1  9  2 -1</clus>
<clus scale="  146.117">  1  5  2 -1</clus>
</clustering>
</event>
<event>
 9    1  0.8429841E-005  0.1334195E+03  0.7546771E-02  0.1246326E+00
          1   -1    0    0  502    0 -0.00000000000E+00  0.00000000000E+00  0.15679275708E+03  0.15679275708E+03  0.00000000000E+00 0. -1.
         21   -1    0    0  501  502  0.00000000000E+00 -0.00000000000E+00 -0.16604400746E+03  0.16604400746E+03  0.00000000000E+00 0. -1.
         23    2    1    2    0    0 -0.12659565318E+02  0.18157402074E+02  0.22123669864E+01  0.81839773689E+02  0.78758479833E+02 0.  0.
        -24    2    1    2    0    0  0.17122286733E+02  0.95831615486E+02 -0.15003745073E+01  0.12648638778E+03  0.80744559812E+02 0.  0.
         11    1    4    4    0    0 -0.23321084496E+01  0.10062168961E+03 -0.15786519799E+02  0.10187922928E+03  0.00000000000E+00 0. -1.
        -12    1    4    4    0    0  0.19454395183E+02 -0.47900741287E+01  0.14286145291E+02  0.24607158498E+02  0.00000000000E+00 0.  1.
        -11    1    3    3    0    0  0.30114720538E+02  0.77837162190E+01  0.16950962683E+02  0.35423407052E+02  0.00000000000E+00 0.  1.
         11    1    3    3    0    0 -0.42774285856E+02  0.10373685855E+02 -0.14738595697E+02  0.46416366637E+02  0.00000000000E+00 0. -1.
          2    1    1    2  501    0 -0.44627214151E+01 -0.11398901756E+03 -0.99632428589E+01  0.11451060307E+03  0.00000000000E+00 0. -1.
<scales pt_clust_5="13000.00000" pt_clust_6="13000.00000" pt_clust_7="13000.00000" pt_clust_8="13000.00000" pt_clust_9="106.21247"></scales>
<clustering>
<clus scale="   78.758">  7  8 -1 -1</clus>
<clus scale="   80.745">  5  6 -1 -1</clus>
<clus scale="   81.810">  1  7  2 -1</clus>
<clus scale="  106.212">  2  9  1 -1</clus>
<clus scale="  106.212">  2  5  1 -1</clus>
</clustering>
</event>
<event>
 9    1  0.8429841E-005  0.1135496E+03  0.7546771E-02  0.1258239E+00
          1   -1    0    0  502    0 -0.00000000000E+00  0.00000000000E+00  0.25876088944E+03  0.25876088944E+03  0.00000000000E+00 0. -1.
         21   -1    0    0  501  502  0.00000000000E+00 -0.00000000000E+00 -0.26212026583E+03  0.26212026583E+03  0.00000000000E+00 0. -1.
         23    2    1    2    0    0  0.61806626715E+02  0.40367733656E+02  0.19577580046E+03  0.22843459838E+03  0.91676543709E+02 0.  0.
        -24    2    1    2    0    0 -0.59592946686E+02  0.45612283167E+02 -0.51249616958E+02  0.12136878950E+03  0.80449115320E+02 0.  0.
         13    1    4    4    0    0 -0.35255976500E+02 -0.13114249533E+02 -0.43215500089E+02  0.57293515058E+02  0.00000000000E+00 0. -1.
        -14    1    4    4    0    0 -0.24336970186E+02  0.58726532701E+02 -0.80341168691E+01  0.64075274441E+02  0.00000000000E+00 0.  1.
        -11    1    3    3    0    0  0.53846015675E+01  0.41256263212E+02  0.15032831362E+03  0.15597972645E+03  0.00000000000E+00 0.  1.
         11    1    3    3    0    0  0.56422025147E+02 -0.88852955587E+00  0.45447486840E+02  0.72454871931E+02  0.00000000000E+00 0. -1.
          2    1    1    2  501    0 -0.22136800291E+01 -0.85980016823E+02 -0.14788555988E+03  0.17107776739E+03  0.00000000000E+00 0. -1.
<scales pt_clust_5="13000.00000" pt_clust_6="13000.00000" pt_clust_7="13000.00000" pt_clust_8="13000.00000" pt_clust_9="86.00851"></scales>
<clustering>
<clus scale="   80.449">  5  6 -1 -1</clus>
<clus scale="   86.009">  2  9  1 -1</clus>
<clus scale="   91.677">  7  8 -1 -1</clus>
<clus scale="  104.695">  2  5  1 -1</clus>
<clus scale="   86.009">  2  5  1 -1</clus>
</clustering>
</event>
<event>
 9    1  0.8429841E-005  0.2022894E+03  0.7546771E-02  0.1148661E+00
         21   -1    0    0  501  502  0.00000000000E+00  0.00000000000E+00  0.51555870530E+03  0.51555870530E+03  0.00000000000E+00 0.  1.
          1   -1    0    0  502    0 -0.00000000000E+00 -0.00000000000E+00 -0.24981520938E+03  0.24981520938E+03  0.00000000000E+00 0. -1.
         23    2    1    2    0    0 -0.16840513876E+03  0.82227310651E+02 -0.46233506316E+01  0.20844493070E+03  0.91138863196E+02 0.  0.
        -24    2    1    2    0    0  0.17737847460E+03  0.24007285419E+02  0.36479359820E+03  0.41451156375E+03  0.81890134879E+02 0.  0.
         13    1    4    4    0    0  0.51215963955E+02  0.37812604023E+02  0.76542138782E+02  0.99556853085E+02  0.00000000000E+00 0. -1.
        -14    1    4    4    0    0  0.12616251065E+03 -0.13805318604E+02  0.28825145942E+03  0.31495471067E+03  0.00000000000E+00 0.  1.
        -11    1    3    3    0    0 -0.42230142410E+02 -0.19143775033E+02 -0.45811008124E+01  0.46592440751E+02  0.00000000000E+00 0.  1.
         11    1    3    3    0    0 -0.12617499635E+03  0.10137108568E+03 -0.42249819142E-01  0.16185248995E+03  0.00000000000E+00 0. -1.
          2    1    1    2  501    0 -0.89733358440E+01 -0.10623459607E+03 -0.94426751653E+02  0.14241742023E+03  0.00000000000E+00 0. -1.
<scales pt_clust_5="13000.00000" pt_clust_6="13000.00000" pt_clust_7="13000.00000" pt_clust_8="13000.00000" pt_clust_9="106.61295"></scales>
<clustering>
<clus scale="   81.890">  5  6 -1 -1</clus>
<clus scale="   91.139">  7  8 -1 -1</clus>
<clus scale="  106.613">  1  9  2 -1</clus>
<clus scale="  198.294">  1  5  2 -1</clus>
<clus scale="  106.613">  1  5  2 -1</clus>
</clustering>
</event>
<event>
 9    1  0.8429841E-005  0.1068466E+03  0.7546771E-02  0.1267271E+00
         -2   -1    0    0    0  501 -0.00000000000E+00  0.00000000000E+00  0.10693281405E+03  0.10693281405E+03  0.00000000000E+00 0.  1.
         21   -1    0    0  501  502  0.00000000000E+00 -0.00000000000E+00 -0.23507264521E+03  0.23507264521E+03  0.00000000000E+00 0. -1.
         23    2    1    2    0    0  0.28706321598E+02  0.49229318420E+02 -0.38238076334E+02  0.10723099727E+03  0.82393917267E+02 0.  0.
        -24    2    1    2    0    0 -0.30987191287E+02 -0.87087860315E+02 -0.13065642446E+03  0.17910207513E+03  0.80386258935E+02 0.  0.
         11    1    4    4    0    0 -0.52224247932E+02 -0.78522454709E+02 -0.12292820363E+03  0.15493382850E+03  0.00000000000E+00 0. -1.
        -12    1    4    4    0    0  0.21237056645E+02 -0.85654056063E+01 -0.77282208315E+01  0.24168246634E+02  0.00000000000E+00 0.  1.
        -13    1    3    3    0    0  0.47382044732E+02  0.17804033851E+01 -0.84096601969E+01  0.48155481348E+02  0.00000000000E+00 0. -1.
         13    1    3    3    0    0 -0.18675723134E+02  0.47448915035E+02 -0.29828416137E+02  0.59075515925E+02  0.00000000000E+00 0.  1.
         -1    1    1    2    0  502  0.22808696891E+01  0.37858541895E+02  0.40754669640E+02  0.55672386858E+02  0.00000000000E+00 0.  1.
<scales pt_clust_5="13000.00000" pt_clust_6="13000.00000" pt_clust_7="13000.00000" pt_clust_8="13000.00000" pt_clust_9="37.92721"></scales>
<clustering>
<clus scale="   37.927">  2  9  1 -1</clus>
<clus scale="   80.386">  5  6 -1 -1</clus>
<clus scale="   82.394">  7  8 -1 -1</clus>
<clus scale="  105.306">  2  5  1 -1</clus>
<clus scale="   37.927">  2  5  1 -1</clus>
</clustering>
</event>
<event>
 9    1  0.8429841E-005  0.1783745E+03  0.7546771E-02  0.1174119E+00
          3   -1    0    0  502    0 -0.00000000000E+00  0.00000000000E+00  0.60423977615E+03  0.60423977615E+03  0.00000000000E+00 0. -1.
         21   -1    0    0  501  502  0.00000000000E+00 -0.00000000000E+00 -0.73628356561E+02  0.73628356561E+02  0.00000000000E+00 0.  1.
         23    2    1    2    0    0 -0.43526202849E+02 -0.12242906179E+03  0.39039179103E+03  0.42675638864E+03  0.11327779675E+03 0.  0.
        -24    2    1    2    0    0  0.61612941315E+02  0.14434330804E+03  0.13430439979E+03  0.22208840470E+03  0.81574766851E+02 0.  0.
         11    1    4    4    0    0  0.53266886787E+02  0.31931319864E+02  0.64316116077E+02  0.89406561300E+02  0.00000000000E+00 0. -1.
        -12    1    4    4    0    0  0.83460545283E+01  0.11241198817E+03  0.69988283718E+02  0.13268184340E+03  0.00000000000E+00 0.  1.
        -13    1    3    3    0    0 -0.35868750795E+01 -0.12740585740E+03  0.33384889752E+03  0.35735165391E+03  0.00000000000E+00 0. -1.
         13    1    3    3    0    0 -0.39939327769E+02  0.49767956122E+01  0.56542893507E+02  0.69404734733E+02  0.00000000000E+00 0.  1.
          4    1    1    2  501    0 -0.18086738467E+02 -0.21914246245E+02  0.59152287676E+01  0.29023339370E+02  0.00000000000E+00 0. -1.
<scales pt_clust_5="13000.00000" pt_clust_6="13000.00000" pt_clust_7="13000.00000" pt_clust_8="13000.00000" pt_clust_9="28.41416"></scales>
<clustering>
<clus scale="   28.414">  2  9  1 -1</clus>
<clus scale="   81.575">  5  6 -1 -1</clus>
<clus scale="  113.278">  7  8 -1 -1</clus>
<clus scale="  160.125">  2  5  1 -1</clus>
<clus scale="   28.414">  2  5  1 -1</clus>
</clustering>
</event>
<event>
 9    1  0.8429841E-005  0.1432181E+03  0.7546771E-02  0.1210636E+00
         21   -1    0    0  501  502  0.00000000000E+00  0.00000000000E+00  0.13023964734E+03  0.13023964734E+03  0.00000000000E+00 0. -1.
          1   -1    0    0  502    0 -0.00000000000E+00 -0.00000000000E+00 -0.30128490217E+03  0.30128490217E+03  0.00000000000E+00 0. -1.
        -24    2    1    2    0    0 -0.10544646516E+03 -0.20682245508E+02 -0.63265251575E+02  0.14958386787E+03  0.82620392016E+02 0.  0.
         23    2    1    2    0    0  0.11397892974E+03 -0.75438982066E+02 -0.62533897629E+02  0.17536064872E+03  0.90325147815E+02 0.  0.
         11    1    3    3    0    0 -0.82918638531E+02 -0.26203734762E+02 -0.82184907155E+02  0.11965155785E+03  0.00000000000E+00 0. -1.
        -12    1    3    3    0    0 -0.22527826625E+02  0.55214892541E+01  0.18919655579E+02  0.29932310022E+02  0.00000000000E+00 0.  1.
        -13    1    4    4    0    0  0.99541199496E+01 -0.31277132501E+02 -0.52485924400E+02  0.61904085338E+02  0.00000000000E+00 0.  1.
         13    1    4    4    0    0  0.10402480979E+03 -0.44161849564E+02 -0.10047973229E+02  0.11345656338E+03  0.00000000000E+00 0. -1.
          2    1    1    2  501    0 -0.85324645826E+01  0.96121227573E+02 -0.45246105623E+02  0.10658003291E+03  0.00000000000E+00 0. -1.
<scales pt_clust_5="13000.00000" pt_clust_6="13000.00000" pt_clust_7="13000.00000" pt_clust_8="13000.00000" pt_clust_9="96.49924"></scales>
<clustering>
<clus scale="   82.620">  5  6 -1 -1</clus>
<clus scale="   90.325">  7  8 -1 -1</clus>
<clus scale="   96.499">  1  9  2 -1</clus>
<clus scale="  138.488">  2  5  1 -1</clus>
<clus scale="   96.499">  1  5  2 -1</clus>
</clustering>
</event>
<event>
 9    1  0.8429841E-005  0.9399769E+02  0.7546771E-02  0.1299311E+00
         21   -1    0    0  501  502  0.00000000000E+00  0.00000000000E+00  0.97122322702E+02  0.97122322702E+02  0.00000000000E+00 0. -1.
          1   -1    0    0  502    0 -0.00000000000E+00 -0.00000000000E+00 -0.53153003992E+03  0.53153003992E+03  0.00000000000E+00 0. -1.
         23    2    1    2    0    0 -0.58947326159E+01  0.28851791170E+02 -0.30414125149E+03  0.31879609996E+03  0.90894877568E+02 0.  0.
        -24    2    1    2    0    0 -0.29090703806E+01  0.39152695895E+02  0.59698550798E+02  0.10789382875E+03  0.80844078497E+02 0.  0.
         11    1    4    4    0    0 -0.24827428990E+02  0.54372099773E+02  0.54119254441E+02  0.80632624695E+02  0.00000000000E+00 0. -1.
        -12    1    4    4    0    0  0.21918358609E+02 -0.15219403878E+02  0.55792963571E+01  0.27261204052E+02  0.00000000000E+00 0.  1.
        -13    1    3    3    0    0 -0.20374616396E+02 -0.27768494123E+02 -0.78768569004E+02  0.85969190540E+02  0.00000000000E+00 0.  1.
         13    1    3    3    0    0  0.14479883781E+02  0.56620285293E+02 -0.22537268248E+03  0.23282690942E+03  0.00000000000E+00 0. -1.
          2    1    1    2  501    0  0.88038029965E+01 -0.68004487064E+02 -0.18996501652E+03  0.20196243391E+03  0.00000000000E+00 0. -1.
<scales pt_clust_5="13000.00000" pt_clust_6="13000.00000" pt_clust_7="13000.00000" pt_clust_8="13000.00000" pt_clust_9="68.57202"></scales>
<clustering>
<clus scale="   68.572">  1  9  2 -1</clus>
<clus scale="   80.844">  5  6 -1 -1</clus>
<clus scale="   84.318">  1  5  2 -1</clus>
<clus scale="   90.895">  7  8 -1 -1</clus>
<clus scale="   68.572">  1  5  2 -1</clus>
</clustering>
</event>
<event>
 9    1  0.8667294E-005  0.1106341E+03  0.7546771E-02  0.1262664E+00
         21   -1    0    0  501  502  0.00000000000E+00  0.00000000000E+00  0.42048062631E+02  0.42048062631E+02  0.00000000000E+00 0.  1.
          1   -1    0    0  502    0 -0.00000000000E+00 -0.00000000000E+00 -0.89350391272E+03  0.89350391272E+03  0.00000000000E+00 0. -1.
         23    2    1    2    0    0  0.29348150702E+02 -0.62192822570E+02 -0.49492503521E+03  0.50796314763E+03  0.91359223647E+02 0.  0.
        -24    2    1    2    0    0 -0.27525664498E+01  0.30515806002E+02 -0.22777681871E+02  0.91282550238E+02  0.82914957327E+02 0.  0.
         11    1    4    4    0    0 -0.21168586242E+02  0.20383444310E+02 -0.49328564303E+02  0.57418647681E+02  0.00000000000E+00 0. -1.
        -12    1    4    4    0    0  0.18416019792E+02  0.10132361693E+02  0.26550882432E+02  0.33863902557E+02  0.00000000000E+00 0.  1.
        -11    1    3    3    0    0 -0.30042658967E+02 -0.41818998433E+02 -0.23183813435E+03  0.23748749551E+03  0.00000000000E+00 0.  1.
         11    1    3    3    0    0  0.59390809669E+02 -0.20373824137E+02 -0.26308690086E+03  0.27047565212E+03  0.00000000000E+00 0. -1.
          2    1    1    2  501    0 -0.26595584252E+02  0.31677016568E+02 -0.33375313301E+03  0.33630627748E+03  0.00000000000E+00 0. -1.
<scales pt_clust_5="13000.00000" pt_clust_6="13000.00000" pt_clust_7="13000.00000" pt_clust_8="13000.00000" pt_clust_9="41.36134"></scales>
<clustering>
<clus scale="   41.361">  1  9  2 -1</clus>
<clus scale="   82.915">  5  6 -1 -1</clus>
<clus scale="   91.359">  7  8 -1 -1</clus>
<clus scale="  103.770">  1  5  2 -1</clus>
<clus scale="   41.361">  1  5  2 -1</clus>
</clustering>
</event>
<event>
 9    1  0.8429841E-005  0.2161052E+03  0.7546771E-02  0.1172295E+00
         21   -1    0    0  501  502  0.00000000000E+00  0.00000000000E+00  0.34873080069E+03  0.34873080069E+03  0.00000000000E+00 0. -1.
          1   -1    0    0  502    0 -0.00000000000E+00 -0.00000000000E+00 -0.22470708362E+03  0.22470708362E+03  0.00000000000E+00 0. -1.
         23    2    1    2    0    0  0.19996227685E+02 -0.26904499502E+02  0.68185189592E+02  0.11601173961E+03  0.87668708394E+02 0.  0.
        -24    2    1    2    0    0  0.12202905664E+03  0.16140683748E+03  0.12269731378E+03  0.25070856535E+03  0.82806377076E+02 0.  0.
         11    1    4    4    0    0  0.10828677023E+03  0.10825993621E+03  0.53099714702E+02  0.16206732581E+03  0.00000000000E+00 0. -1.
        -12    1    4    4    0    0  0.13742286409E+02  0.53146901269E+02  0.69597599073E+02  0.88641239539E+02  0.00000000000E+00 0.  1.
        -13    1    3    3    0    0  0.39320049711E+02  0.18386989607E+02  0.41269114924E+02  0.59893969167E+02  0.00000000000E+00 0.  1.
         13    1    3    3    0    0 -0.19323822025E+02 -0.45291489109E+02  0.26916074668E+02  0.56117770438E+02  0.00000000000E+00 0. -1.
          2    1    1    2  501    0 -0.14202528432E+03 -0.13450233798E+03 -0.66858786299E+02  0.20671757935E+03  0.00000000000E+00 0. -1.
<scales pt_clust_5="13000.00000" pt_clust_6="13000.00000" pt_clust_7="13000.00000" pt_clust_8="13000.00000" pt_clust_9="199.61116"></scales>
<clustering>
<clus scale="   82.806">  5  6 -1 -1</clus>
<clus scale="   87.669">  7  8 -1 -1</clus>
<clus scale="   93.859">  2  7  1 -1</clus>
<clus scale="  199.611">  1  9  2 -1</clus>
<clus scale="  199.611">  1  5  2 -1</clus>
</clustering>
</event>
<event>
 9    1  0.8429841E-005  0.3380378E+03  0.7546771E-02  0.1067875E+00
         21   -1    0    0  501  502  0.00000000000E+00  0.00000000000E+00  0.19576503910E+03  0.19576503910E+03  0.00000000000E+00 0.  1.
          1   -1    0    0  502    0 -0.00000000000E+00 -0.00000000000E+00 -0.12725608196E+04  0.12725608196E+04  0.00000000000E+00 0. -1.
         23    2    1    2    0    0 -0.88279495794E+02 -0.33636051262E+03 -0.10455487348E+04  0.11055890937E+04  0.90683093103E+02 0.  0.
        -24    2    1    2    0    0  0.60472235872E+02  0.23308627800E+03 -0.25160372581E+02  0.25561133000E+03  0.81963427029E+02 0.  0.
         11    1    4    4    0    0 -0.48489095726E+01  0.40747592622E+02  0.22736075766E+02  0.46912763399E+02  0.00000000000E+00 0. -1.
        -12    1    4    4    0    0  0.65321145445E+02  0.19233868538E+03 -0.47896448346E+02  0.20869856660E+03  0.00000000000E+00 0.  1.
        -13    1    3    3    0    0 -0.27266507658E+02 -0.26013035116E+03 -0.74527350087E+03  0.78983786510E+03  0.00000000000E+00 0. -1.
         13    1    3    3    0    0 -0.61012988135E+02 -0.76230161463E+02 -0.30027523391E+03  0.31575122856E+03  0.00000000000E+00 0.  1.
          2    1    1    2  501    0  0.27807259921E+02  0.10327423462E+03 -0.60866731294E+01  0.10712543503E+03  0.00000000000E+00 0. -1.
<scales pt_clust_5="13000.00000" pt_clust_6="13000.00000" pt_clust_7="13000.00000" pt_clust_8="13000.00000" pt_clust_9="106.95238"></scales>
<clustering>
<clus scale="   81.963">  5  6 -1 -1</clus>
<clus scale="   90.683">  7  8 -1 -1</clus>
<clus scale="  106.952">  1  9  2 -1</clus>
<clus scale="  335.804">  1  5  2 -1</clus>
<clus scale="  106.952">  1  5  2 -1</clus>
</clustering>
</event>
<event>
 9    1  0.8429841E-005  0.1626215E+03  0.7546771E-02  0.1196597E+00
         21   -1    0    0  501  502  0.00000000000E+00  0.00000000000E+00  0.19356664441E+04  0.19356664441E+04  0.00000000000E+00 0. -1.
          1   -1    0    0  502    0 -0.00000000000E+00 -0.00000000000E+00 -0.11026650036E+03  0.11026650036E+03  0.00000000000E+00 0. -1.
         23    2    1    2    0    0  0.73864658263E+02 -0.51227698019E+02 -0.54432128771E+02  0.13916581393E+03  0.91235970639E+02 0.  0.
        -24    2    1    2    0    0  0.27973577211E+02 -0.10176633836E+03  0.61732343883E+03  0.63095121455E+03  0.76630923022E+02 0.  0.
         11    1    4    4    0    0  0.12722898820E+02 -0.10392673691E+03  0.59291758419E+03  0.60209127251E+03  0.00000000000E+00 0. -1.
        -12    1    4    4    0    0  0.15250678390E+02  0.21603985506E+01  0.24405854644E+02  0.28859942033E+02  0.00000000000E+00 0.  1.
        -11    1    3    3    0    0  0.37283340162E+02 -0.18190962893E+02  0.22956599898E+02  0.47412699390E+02  0.00000000000E+00 0.  1.
         11    1    3    3    0    0  0.36581318101E+02 -0.33036735126E+02 -0.77388728670E+02  0.91753114535E+02  0.00000000000E+00 0. -1.
          2    1    1    2  501    0 -0.10183823547E+03  0.15299403638E+03  0.12625086337E+04  0.12758159160E+04  0.00000000000E+00 0. -1.
<scales pt_clust_5="13000.00000" pt_clust_6="13000.00000" pt_clust_7="13000.00000" pt_clust_8="13000.00000" pt_clust_9="143.43460"></scales>
<clustering>
<clus scale="   76.631">  5  6 -1 -1</clus>
<clus scale="   91.236">  7  8 -1 -1</clus>
<clus scale="  128.079">  2  7  1 -1</clus>
<clus scale="  143.435">  1  9  2 -1</clus>
<clus scale="  143.435">  1  5  2 -1</clus>
</clustering>
</event>
<event>
 9    1  0.8429841E-005  0.1658442E+03  0.7546771E-02  0.1184100E+00
          1   -1    0    0  502    0 -0.00000000000E+00  0.00000000000E+00  0.12533910472E+04  0.12533910472E+04  0.00000000000E+00 0. -1.
         21   -1    0    0  501  502  0.00000000000E+00 -0.00000000000E+00 -0.73475076649E+02  0.73475076649E+02  0.00000000000E+00 0. -1.
        -24    2    1    2    0    0 -0.89916175405E+02  0.13153328487E+03  0.97554809746E+03  0.99181012090E+03  0.81285311235E+02 0.  0.
         23    2    1    2    0    0  0.83763773753E+02 -0.40423463157E+02  0.20486332114E+03  0.24373734587E+03  0.93746931975E+02 0.  0.
         13    1    3    3    0    0 -0.10054421943E+03  0.13012180639E+03  0.84695692608E+03  0.86277277379E+03  0.00000000000E+00 0. -1.
        -14    1    3    3    0    0  0.10628044021E+02  0.14114784891E+01  0.12859117138E+03  0.12903734711E+03  0.00000000000E+00 0.  1.
        -13    1    4    4    0    0 -0.44437151641E+01 -0.37855385958E+02  0.32468442705E+02  0.50069717617E+02  0.00000000000E+00 0.  1.
         13    1    4    4    0    0  0.88207488917E+02 -0.25680771985E+01  0.17239487844E+03  0.19366762825E+03  0.00000000000E+00 0. -1.
          2    1    1    2  501    0  0.61524016525E+01 -0.91109821718E+02 -0.49544807054E+00  0.91318657066E+02  0.00000000000E+00 0. -1.
<scales pt_clust_5="13000.00000" pt_clust_6="13000.00000" pt_clust_7="13000.00000" pt_clust_8="13000.00000" pt_clust_9="91.31731"></scales>
<clustering>
<clus scale="   81.285">  5  6 -1 -1</clus>
<clus scale="   91.317">  2  9  1 -1</clus>
<clus scale="   93.747">  7  8 -1 -1</clus>
<clus scale="  159.132">  1  5  2 -1</clus>
<clus scale="   91.317">  2  5  1 -1</clus>
</clustering>
</event>
<event>
 9    1  0.8429841E-005  0.1239281E+03  0.7546771E-02  0.1245601E+00
         21   -1    0    0  501  502  0.00000000000E+00  0.00000000000E+00  0.43772705851E+02  0.43772705851E+02  0.00000000000E+00 0. -1.
         -2   -1    0    0    0  501 -0.00000000000E+00 -0.00000000000E+00 -0.40158132897E+03  0.40158132897E+03  0.00000000000E+00 0.  1.
        -24    2    1    2    0    0  0.71682589001E+02 -0.40773280028E+01 -0.21180990955E+03  0.23762231851E+03  0.80286426619E+02 0.  0.
         23    2    1    2    0    0 -0.55046112112E+02 -0.90009239132E+01 -0.14339909835E+03  0.18641104475E+03  0.10523632979E+03 0.  0.
         11    1    3    3    0    0 -0.32171528985E+01  0.26057415111E+02 -0.64506949102E+02  0.69645426537E+02  0.00000000000E+00 0. -1.
        -12    1    3    3    0    0  0.74899741899E+02 -0.30134743113E+02 -0.14730296045E+03  0.16797689197E+03  0.00000000000E+00 0.  1.
        -13    1    4    4    0    0 -0.47357993532E+02  0.24034973191E+02 -0.17337998863E+02  0.55866498837E+02  0.00000000000E+00 0. -1.
         13    1    4    4    0    0 -0.76881185797E+01 -0.33035897104E+02 -0.12606109948E+03  0.13054454591E+03  0.00000000000E+00 0.  1.
         -1    1    1    2    0  502 -0.16636476889E+02  0.13078251916E+02 -0.25996152175E+01  0.21320671559E+02  0.00000000000E+00 0.  1.
<scales pt_clust_5="13000.00000" pt_clust_6="13000.00000" pt_clust_7="13000.00000" pt_clust_8="13000.00000" pt_clust_9="21.16159"></scales>
<clustering>
<clus scale="   21.162">  1  9  2 -1</clus>
<clus scale="   80.286">  5  6 -1 -1</clus>
<clus scale="  103.583">  2  5  1 -1</clus>
<clus scale="  105.236">  7  8 -1 -1</clus>
<clus scale="   21.162">  1  5  2 -1</clus>
</clustering>
</event>
<event>
 9    1  0.8429841E-005  0.9370556E+02  0.7546771E-02  0.1299888E+00
         21   -1    0    0  501  502  0.00000000000E+00  0.00000000000E+00  0.35473497959E+03  0.35473497959E+03  0.00000000000E+00 0. -1.
          1   -1    0    0  502    0 -0.00000000000E+00 -0.00000000000E+00 -0.52511522139E+02  0.52511522139E+02  0.00000000000E+00 0. -1.
        -24    2    1    2    0    0 -0.29625984407E+02  0.16595345479E+02  0.29516583897E+02  0.92742416071E+02  0.81097611371E+02 0.  0.
         23    2    1    2    0    0 -0.10924761497E+02 -0.16024974925E+02  0.97715342111E+02  0.13487467717E+03  0.90921615821E+02 0.  0.
         13    1    3    3    0    0  0.93559401918E+01 -0.21776552356E+02 -0.95206112514E+01  0.25542002427E+02  0.00000000000E+00 0. -1.
        -14    1    3    3    0    0 -0.38981924599E+02  0.38371897835E+02  0.39037195149E+02  0.67200413644E+02  0.00000000000E+00 0.  1.
        -11    1    4    4    0    0 -0.12455754800E+02  0.36397651324E+02  0.27744066521E+02  0.47430665994E+02  0.00000000000E+00 0. -1.
         11    1    4    4    0    0  0.15309933032E+01 -0.52422626249E+02  0.69971275590E+02  0.87444011179E+02  0.00000000000E+00 0.  1.
          2    1    1    2  501    0  0.40550745904E+02 -0.57037055359E+00  0.17499153145E+03  0.17962940849E+03  0.00000000000E+00 0. -1.
<scales pt_clust_5="13000.00000" pt_clust_6="13000.00000" pt_clust_7="13000.00000" pt_clust_8="13000.00000" pt_clust_9="40.55476"></scales>
<clustering>
<clus scale="   40.555">  1  9  2 -1</clus>
<clus scale="   81.098">  5  6 -1 -1</clus>
<clus scale="   84.207">  2  5  1 -1</clus>
<clus scale="   90.922">  7  8 -1 -1</clus>
<clus scale="   40.555">  1  5  2 -1</clus>
</clustering>
</event>
<event>
 9    1  0.8559960E-005  0.1235221E+03  0.7546771E-02  0.1240670E+00
          1   -1    0    0  502    0 -0.00000000000E+00  0.00000000000E+00  0.10681905998E+04  0.10681905998E+04  0.00000000000E+00 0. -1.
         21   -1    0    0  501  502  0.00000000000E+00 -0.00000000000E+00 -0.78415942474E+02  0.78415942474E+02  0.00000000000E+00 0. -1.
        -24    2    1    2    0    0  0.73236723807E+02 -0.42414607746E+02  0.56808102261E+03  0.57994826228E+03  0.80382348835E+02 0.  0.
         23    2    1    2    0    0 -0.83075161431E+02 -0.18688127433E+02 -0.14772807713E+02  0.12582577840E+03  0.91450325904E+02 0.  0.
         11    1    3    3    0    0  0.75064022359E+02 -0.42480426987E+02  0.30767328454E+03  0.31953410483E+03  0.00000000000E+00 0. -1.
        -12    1    3    3    0    0 -0.18272985526E+01  0.65819241681E-01  0.26040773807E+03  0.26041415745E+03  0.00000000000E+00 0.  1.
        -11    1    4    4    0    0 -0.80512233680E+02  0.18423596958E+02 -0.26632398842E+02  0.86780950473E+02  0.00000000000E+00 0. -1.
         11    1    4    4    0    0 -0.25629277514E+01 -0.37111724391E+02  0.11859591129E+02  0.39044827924E+02  0.00000000000E+00 0.  1.
          2    1    1    2  501    0  0.98384376243E+01  0.61102735178E+02  0.43646644245E+03  0.44083250163E+03  0.00000000000E+00 0. -1.
<scales pt_clust_5="13000.00000" pt_clust_6="13000.00000" pt_clust_7="13000.00000" pt_clust_8="13000.00000" pt_clust_9="61.88976"></scales>
<clustering>
<clus scale="   61.890">  2  9  1 -1</clus>
<clus scale="   80.382">  5  6 -1 -1</clus>
<clus scale="   91.450">  7  8 -1 -1</clus>
<clus scale="  115.568">  1  5  2 -1</clus>
<clus scale="   61.890">  2  5  1 -1</clus>
</clustering>
</event>
<event>
 9    1  0.8429841E-005  0.9960411E+02  0.7546771E-02  0.1287763E+00
         21   -1    0    0  501  502  0.00000000000E+00  0.00000000000E+00  0.89338456128E+02  0.89338456128E+02  0.00000000000E+00 0. -1.
          1   -1    0    0  502    0 -0.00000000000E+00 -0.00000000000E+00 -0.57795515368E+03  0.57795515368E+03  0.00000000000E+00 0. -1.
        -24    2    1    2    0    0 -0.84658407731E+01 -0.40322252246E+02 -0.49404394914E+03  0.50207480568E+03  0.79385970629E+02 0.  0.
         23    2    1    2    0    0  0.30794326087E+02  0.28645947926E+00 -0.35772019605E+02  0.10358435024E+03  0.92204705144E+02 0.  0.
         11    1    3    3    0    0  0.24750099609E+02 -0.39510446176E+02 -0.16822191541E+03  0.17456304194E+03  0.00000000000E+00 0. -1.
        -12    1    3    3    0    0 -0.33215940382E+02 -0.81180606999E+00 -0.32582203373E+03  0.32751176374E+03  0.00000000000E+00 0.  1.
        -11    1    4    4    0    0 -0.26388446051E+02  0.20570957233E+02 -0.62377956303E+00  0.33464958800E+02  0.00000000000E+00 0.  1.
         11    1    4    4    0    0  0.57182772138E+02 -0.20284497754E+02 -0.35148240042E+02  0.70119391445E+02  0.00000000000E+00 0. -1.
          2    1    1    2  501    0 -0.22328485313E+02  0.40035792767E+02  0.41199271191E+02  0.61634453884E+02  0.00000000000E+00 0. -1.
<scales pt_clust_5="13000.00000" pt_clust_6="13000.00000" pt_clust_7="13000.00000" pt_clust_8="13000.00000" pt_clust_9="45.84131"></scales>
<clustering>
<clus scale="   45.841">  1  9  2 -1</clus>
<clus scale="   79.386">  5  6 -1 -1</clus>
<clus scale="   87.872">  2  5  1 -1</clus>
<clus scale="   92.205">  7  8 -1 -1</clus>
<clus scale="   45.841">  1  5  2 -1</clus>
</clustering>
</event>
<event>
 9    1  0.8429841E-005  0.1103329E+03  0.7546771E-02  0.1263460E+00
         -2   -1    0    0    0  501 -0.00000000000E+00  0.00000000000E+00  0.16739992859E+03  0.16739992859E+03  0.00000000000E+00 0.  1.
         21   -1    0    0  501  502  0.00000000000E+00 -0.00000000000E+00 -0.21523342665E+03  0.21523342665E+03  0.00000000000E+00 0.  1.
        -24    2    1    2    0    0 -0.69188103367E+02 -0.30430719309E+02  0.89935166237E+02  0.14348146535E+03  0.82374598312E+02 0.  0.
         23    2    1    2    0    0  0.77321739917E+01  0.47016464649E+02 -0.19550079847E+02  0.10488517058E+03  0.91369354399E+02 0.  0.
         11    1    3    3    0    0 -0.22377785227E+02  0.27246565252E+02  0.43026946559E+02  0.55627859206E+02  0.00000000000E+00 0. -1.
        -12    1    3    3    0    0 -0.46810318140E+02 -0.57677284561E+02  0.46908219678E+02  0.87853606141E+02  0.00000000000E+00 0.  1.
        -11    1    4    4    0    0 -0.34041525542E+02  0.38125863475E+02 -0.32117710181E+02  0.60365174017E+02  0.00000000000E+00 0.  1.
         11    1    4    4    0    0  0.41773699533E+02  0.88906011743E+01  0.12567630334E+02  0.44519996565E+02  0.00000000000E+00 0. -1.
         -1    1    1    2    0  502  0.61455929375E+02 -0.16585745340E+02 -0.11821858445E+03  0.13426671931E+03  0.00000000000E+00 0.  1.
<scales pt_clust_5="13000.00000" pt_clust_6="13000.00000" pt_clust_7="13000.00000" pt_clust_8="13000.00000" pt_clust_9="63.65468"></scales>
<clustering>
<clus scale="   63.655">  2  9  1 -1</clus>
<clus scale="   82.375">  5  6 -1 -1</clus>
<clus scale="   91.369">  7  8 -1 -1</clus>
<clus scale="  103.008">  1  5  2 -1</clus>
<clus scale="   63.655">  2  5  1 -1</clus>
</clustering>
</event>
<event>
 9    1  0.8429841E-005  0.2066469E+03  0.7546771E-02  0.1171145E+00
         21   -1    0    0  501  502  0.00000000000E+00  0.00000000000E+00  0.55788025684E+03  0.55788025684E+03  0.00000000000E+00 0. -1.
          1   -1    0    0  502    0 -0.00000000000E+00 -0.00000000000E+00 -0.36111281320E+03  0.36111281320E+03  0.00000000000E+00 0. -1.
         23    2    1    2    0    0 -0.16364533679E+02 -0.57319538189E+02 -0.19732031355E+02  0.11195154209E+03  0.92684773804E+02 0.  0.
        -24    2    1    2    0    0 -0.11601781984E+03  0.18964973302E+03 -0.22523864512E+03  0.32728228128E+03  0.83391178390E+02 0.  0.
         11    1    4    4    0    0 -0.11536250756E+03  0.19790926446E+03 -0.21890515490E+03  0.31685336033E+03  0.00000000000E+00 0. -1.
        -12    1    4    4    0    0 -0.65531227588E+00 -0.82595314454E+01 -0.63334902204E+01  0.10428920953E+02  0.00000000000E+00 0.  1.
        -13    1    3    3    0    0  0.29285713907E+02 -0.35977643568E+02 -0.36300762734E+02  0.58904917034E+02  0.00000000000E+00 0.  1.
         13    1    3    3    0    0 -0.45650247586E+02 -0.21341894621E+02  0.16568731379E+02  0.53046625059E+02  0.00000000000E+00 0. -1.
          2    1    1    2  501    0  0.13238235352E+03 -0.13233019483E+03  0.44173812012E+03  0.47975924666E+03  0.00000000000E+00 0. -1.
<scales pt_clust_5="13000.00000" pt_clust_6="13000.00000" pt_clust_7="13000.00000" pt_clust_8="13000.00000" pt_clust_9="189.07366"></scales>
<clustering>
<clus scale="   83.391">  5  6 -1 -1</clus>
<clus scale="   92.685">  7  8 -1 -1</clus>
<clus scale="  110.199">  2  7  1 -1</clus>
<clus scale="  189.074">  1  9  2 -1</clus>
<clus scale="  189.074">  1  5  2 -1</clus>
</clustering>
</event>
<event>
 9    1  0.8429841E-005  0.1192691E+03  0.7546771E-02  0.1256083E+00
         21   -1    0    0  501  502  0.00000000000E+00  0.00000000000E+00  0.83649657681E+02  0.83649657681E+02  0.00000000000E+00 0. -1.
          1   -1    0    0  502    0 -0.00000000000E+00 -0.00000000000E+00 -0.35873177262E+03  0.35873177262E+03  0.00000000000E+00 0. -1.
        -24    2    1    2    0    0 -0.31645374313E+02  0.36495456491E+02 -0.19824046748E+03  0.21951494894E+03  0.80957901417E+02 0.  0.
         23    2    1    2    0    0 -0.36487379963E+01  0.60664627081E+02 -0.52634825925E+02  0.11669809429E+03  0.84584336868E+02 0.  0.
         11    1    3    3    0    0 -0.32688183242E+02  0.47219839228E+02 -0.20045081410E+03  0.20851560952E+03  0.00000000000E+00 0. -1.
        -12    1    3    3    0    0  0.10428089297E+01 -0.10724382737E+02  0.22103466174E+01  0.10999339422E+02  0.00000000000E+00 0.  1.
        -11    1    4    4    0    0 -0.42301078081E+02  0.37704331532E+02 -0.16500790406E+02  0.59019267253E+02  0.00000000000E+00 0. -1.
         11    1    4    4    0    0  0.38652340084E+02  0.22960295549E+02 -0.36134035519E+02  0.57678827039E+02  0.00000000000E+00 0.  1.
          2    1    1    2  501    0  0.35294112309E+02 -0.97160083572E+02 -0.24206821530E+02  0.10616838707E+03  0.00000000000E+00 0. -1.
<scales pt_clust_5="13000.00000" pt_clust_6="13000.00000" pt_clust_7="13000.00000" pt_clust_8="13000.00000" pt_clust_9="84.08689"></scales>
<clustering>
<clus scale="   80.958">  5  6 -1 -1</clus>
<clus scale="   84.584">  7  8 -1 -1</clus>
<clus scale="   94.274">  2  5  1 -1</clus>
<clus scale="   84.087">  1  9  2 -1</clus>
<clus scale="   84.087">  1  5  2 -1</clus>
</clustering>
</event>
<event>
 9    1  0.8429841E-005  0.9889378E+02  0.7546771E-02  0.1285900E+00
         21   -1    0    0  501  502  0.00000000000E+00  0.00000000000E+00  0.71809219434E+02  0.71809219434E+02  0.00000000000E+00 0. -1.
         -2   -1    0    0    0  501 -0.00000000000E+00 -0.00000000000E+00 -0.45944903726E+03  0.45944903726E+03  0.00000000000E+00 0.  1.
        -24    2    1    2    0    0 -0.19350992822E+02  0.35077690544E+02 -0.37361104531E+03  0.38480743848E+03  0.82985819451E+02 0.  0.
         23    2    1    2    0    0  0.68281882250E+00 -0.63954565592E+02 -0.19088322060E+02  0.11169490254E+03  0.89558553537E+02 0.  0.
         13    1    3    3    0    0  0.22065756148E+02  0.42194718475E+02 -0.15331737169E+03  0.16054129787E+03  0.00000000000E+00 0. -1.
        -14    1    3    3    0    0 -0.41416748970E+02 -0.71170279314E+01 -0.22029367363E+03  0.22426614061E+03  0.00000000000E+00 0.  1.
        -11    1    4    4    0    0  0.29666650660E+02 -0.55305389048E+02  0.16595221753E+02  0.64916851465E+02  0.00000000000E+00 0. -1.
         11    1    4    4    0    0 -0.28983831838E+02 -0.86491765447E+01 -0.35683543813E+02  0.46778051070E+02  0.00000000000E+00 0.  1.
         -1    1    1    2    0  502  0.18668173999E+02  0.28876875049E+02  0.50595495504E+01  0.34755915679E+02  0.00000000000E+00 0.  1.
<scales pt_clust_5="13000.00000" pt_clust_6="13000.00000" pt_clust_7="13000.00000" pt_clust_8="13000.00000" pt_clust_9="34.38567"></scales>
<clustering>
<clus scale="   34.386">  1  9  2 -1</clus>
<clus scale="   82.986">  5  6 -1 -1</clus>
<clus scale="   89.559">  7  8 -1 -1</clus>
<clus scale="   92.983">  2  5  1 -1</clus>
<clus scale="   34.386">  1  5  2 -1</clus>
</clustering>
</event>
<event>
 9    1  0.8429841E-005  0.2279600E+03  0.7546771E-02  0.1129111E+00
         21   -1    0    0  501  502  0.00000000000E+00  0.00000000000E+00  0.39211247736E+03  0.39211247736E+03  0.00000000000E+00 0. -1.
          3   -1    0    0  502    0 -0.00000000000E+00 -0.00000000000E+00 -0.38448553675E+03  0.38448553675E+03  0.00000000000E+00 0. -1.
         23    2    1    2    0    0 -0.75046970013E+02  0.19515810457E+03 -0.29846645839E+03  0.37635424173E+03  0.94029543208E+02 0.  0.
        -24    2    1    2    0    0  0.89786045676E+02 -0.17797166289E+03  0.20523168038E+03  0.29687211083E+03  0.79231059367E+02 0.  0.
         11    1    4    4    0    0  0.96947235863E+02 -0.11353931079E+03  0.15106196076E+03  0.21239034259E+03  0.00000000000E+00 0. -1.
        -12    1    4    4    0    0 -0.71611901868E+01 -0.64432352096E+02  0.54169719623E+02  0.84481768244E+02  0.00000000000E+00 0.  1.
        -11    1    3    3    0    0 -0.44242950405E+02  0.10774222111E+03 -0.24000152765E+03  0.26677060960E+03  0.00000000000E+00 0. -1.
         11    1    3    3    0    0 -0.30804019608E+02  0.87415883457E+02 -0.58464930741E+02  0.10958363213E+03  0.00000000000E+00 0.  1.
          4    1    1    2  501    0 -0.14739075663E+02 -0.17186441683E+02  0.10086171862E+03  0.10337166155E+03  0.00000000000E+00 0. -1.
<scales pt_clust_5="13000.00000" pt_clust_6="13000.00000" pt_clust_7="13000.00000" pt_clust_8="13000.00000" pt_clust_9="22.64098"></scales>
<clustering>
<clus scale="   22.641">  1  9  2 -1</clus>
<clus scale="   79.231">  5  6 -1 -1</clus>
<clus scale="   94.030">  7  8 -1 -1</clus>
<clus scale="  222.265">  1  5  2 -1</clus>
<clus scale="   22.641">  1  5  2 -1</clus>
</clustering>
</event>
<event>
 9    1  0.8429841E-005  0.1176691E+03  0.7546771E-02  0.1251022E+00
         21   -1    0    0  501  502  0.00000000000E+00  0.00000000000E+00  0.26403919440E+03  0.26403919440E+03  0.00000000000E+00 0.  1.
          1   -1    0    0  502    0 -0.00000000000E+00 -0.00000000000E+00 -0.13157778939E+03  0.13157778939E+03  0.00000000000E+00 0. -1.
        -24    2    1    2    0    0  0.42626667323E+02 -0.51520440124E+02 -0.73670331611E+02  0.12911457889E+03  0.82291361659E+02 0.  0.
         23    2    1    2    0    0 -0.50393194385E+02  0.80047645779E+02  0.13635182699E+03  0.19071747109E+03  0.93990602827E+02 0.  0.
         13    1    3    3    0    0  0.39248277209E+02 -0.40194390475E+02 -0.91709465588E+02  0.10754832573E+03  0.00000000000E+00 0. -1.
        -14    1    3    3    0    0  0.33783901146E+01 -0.11326049649E+02  0.18039133977E+02  0.21566253154E+02  0.00000000000E+00 0.  1.
        -11    1    4    4    0    0 -0.66913133614E+02  0.29277321301E+02  0.47714179897E+02  0.87242030902E+02  0.00000000000E+00 0. -1.
         11    1    4    4    0    0  0.16519939229E+02  0.50770324478E+02  0.88637647092E+02  0.10347544019E+03  0.00000000000E+00 0.  1.
          2    1    1    2  501    0  0.77665270616E+01 -0.28527205654E+02  0.69779909627E+02  0.75784933810E+02  0.00000000000E+00 0. -1.
<scales pt_clust_5="13000.00000" pt_clust_6="13000.00000" pt_clust_7="13000.00000" pt_clust_8="13000.00000" pt_clust_9="29.56553"></scales>
<clustering>
<clus scale="   29.566">  1  9  2 -1</clus>
<clus scale="   82.291">  5  6 -1 -1</clus>
<clus scale="   93.991">  7  8 -1 -1</clus>
<clus scale="  108.553">  2  5  1 -1</clus>
<clus scale="   29.566">  1  5  2 -1</clus>
</clustering>
</event>
<event>
 9    1  0.8429841E-005  0.2897353E+03  0.7546771E-02  0.1141418E+00
         21   -1    0    0  501  502  0.00000000000E+00  0.00000000000E+00  0.89481797750E+02  0.89481797750E+02  0.00000000000E+00 0. -1.
          1   -1    0    0  502    0 -0.00000000000E+00 -0.00000000000E+00 -0.11809829261E+04  0.11809829261E+04  0.00000000000E+00 0. -1.
        -24    2    1    2    0    0  0.14411169918E+02  0.15722558174E+01 -0.15619582468E+03  0.17560333996E+03  0.78925557009E+02 0.  0.
         23    2    1    2    0    0  0.38674363560E+02 -0.27412740802E+03 -0.43126467596E+03  0.51939519094E+03  0.84502079344E+02 0.  0.
         13    1    3    3    0    0  0.44858891561E+02  0.37063640465E+01 -0.12052734789E+03  0.12865806961E+03  0.00000000000E+00 0. -1.
        -14    1    3    3    0    0 -0.30447721643E+02 -0.21341082291E+01 -0.35668476791E+02  0.46945270345E+02  0.00000000000E+00 0.  1.
        -13    1    4    4    0    0 -0.83906726787E+01 -0.11376913184E+03 -0.11672067079E+03  0.16321009080E+03  0.00000000000E+00 0. -1.
         13    1    4    4    0    0  0.47065036239E+02 -0.16035827618E+03 -0.31454400517E+03  0.35618510014E+03  0.00000000000E+00 0.  1.
          2    1    1    2  501    0 -0.53085533478E+02  0.27255515220E+03 -0.50404062769E+03  0.57546619294E+03  0.00000000000E+00 0. -1.
<scales pt_clust_5="13000.00000" pt_clust_6="13000.00000" pt_clust_7="13000.00000" pt_clust_8="13000.00000" pt_clust_9="277.13900"></scales>
<clustering>
<clus scale="   78.926">  5  6 -1 -1</clus>
<clus scale="   80.246">  2  5  1 -1</clus>
<clus scale="   84.502">  7  8 -1 -1</clus>
<clus scale="  277.139">  1  9  2 -1</clus>
<clus scale="  277.139">  1  5  2 -1</clus>
</clustering>
</event>
<event>
 9    1  0.8429841E-005  0.1498793E+03  0.7546771E-02  0.1226115E+00
          1   -1    0    0  502    0 -0.00000000000E+00  0.00000000000E+00  0.49313352688E+02  0.49313352688E+02  0.00000000000E+00 0. -1.
         21   -1    0    0  501  502  0.00000000000E+00 -0.00000000000E+00 -0.79565462726E+03  0.79565462726E+03  0.00000000000E+00 0.  1.
         23    2    1    2    0    0  0.14000694573E+02  0.61093750377E+01 -0.29457999246E+03  0.30722218682E+03  0.85876400763E+02 0.  0.
        -24    2    1    2    0    0 -0.68452057537E+02  0.10747860110E+03 -0.15989922375E+03  0.21986115939E+03  0.80832133325E+02 0.  0.
         11    1    4    4    0    0 -0.29354330836E+02  0.76308625562E+02 -0.42258872833E+02  0.92035294355E+02  0.00000000000E+00 0. -1.
        -12    1    4    4    0    0 -0.39097726701E+02  0.31169975537E+02 -0.11764035092E+03  0.12782586504E+03  0.00000000000E+00 0.  1.
        -13    1    3    3    0    0  0.49575790155E+02  0.11615483438E+02 -0.18509020128E+03  0.19196630182E+03  0.00000000000E+00 0.  1.
         13    1    3    3    0    0 -0.35575095582E+02 -0.55061084000E+01 -0.10948979118E+03  0.11525588500E+03  0.00000000000E+00 0. -1.
          2    1    1    2  501    0  0.54451362964E+02 -0.11358797614E+03 -0.29186205836E+03  0.31788463373E+03  0.00000000000E+00 0. -1.
<scales pt_clust_5="13000.00000" pt_clust_6="13000.00000" pt_clust_7="13000.00000" pt_clust_8="13000.00000" pt_clust_9="126.21393"></scales>
<clustering>
<clus scale="   80.832">  5  6 -1 -1</clus>
<clus scale="   85.876">  7  8 -1 -1</clus>
<clus scale="   87.224">  1  7  2 -1</clus>
<clus scale="  126.214">  2  9  1 -1</clus>
<clus scale="  126.214">  2  5  1 -1</clus>
</clustering>
</event>
<event>
 9    1  0.8429841E-005  0.1597621E+03  0.7546771E-02  0.1190260E+00
         21   -1    0    0  501  502  0.00000000000E+00  0.00000000000E+00  0.57691312379E+03  0.57691312379E+03  0.00000000000E+00 0. -1.
         -2   -1    0    0    0  501 -0.00000000000E+00 -0.00000000000E+00 -0.12680657901E+03  0.12680657901E+03  0.00000000000E+00 0.  1.
        -24    2    1    2    0    0 -0.42441014263E+02 -0.12869258409E+03 -0.51905437633E+02  0.16585611520E+03  0.80318463646E+02 0.  0.
         23    2    1    2    0    0  0.68409979290E+02  0.95229978815E+02  0.42845420157E+03  0.45298202176E+03  0.88718854032E+02 0.  0.
         13    1    3    3    0    0 -0.25266377161E+01 -0.48208882840E+02  0.18519149567E+02  0.51705310980E+02  0.00000000000E+00 0. -1.
        -14    1    3    3    0    0 -0.39914376547E+02 -0.80483701247E+02 -0.70424587200E+02  0.11415080422E+03  0.00000000000E+00 0.  1.
        -13    1    4    4    0    0  0.67703501467E+02  0.72633360938E+02  0.41491381972E+03  0.42662963684E+03  0.00000000000E+00 0. -1.
         13    1    4    4    0    0  0.70647782239E+00  0.22596617877E+02  0.13540381850E+02  0.26352384921E+02  0.00000000000E+00 0.  1.
         -1    1    1    2    0  502 -0.25968965027E+02  0.33462605273E+02  0.73557780843E+02  0.84881565836E+02  0.00000000000E+00 0.  1.
<scales pt_clust_5="13000.00000" pt_clust_6="13000.00000" pt_clust_7="13000.00000" pt_clust_8="13000.00000" pt_clust_9="42.35721"></scales>
<clustering>
<clus scale="   42.357">  1  9  2 -1</clus>
<clus scale="   80.318">  5  6 -1 -1</clus>
<clus scale="   88.719">  7  8 -1 -1</clus>
<clus scale="  155.254">  2  5  1 -1</clus>
<clus scale="   42.357">  1  5  2 -1</clus>
</clustering>
</event>
<event>
 9    1  0.8429841E-005  0.1619176E+03  0.7546771E-02  0.1188373E+00
          1   -1    0    0  502    0 -0.00000000000E+00  0.00000000000E+00  0.36030941672E+03  0.36030941672E+03  0.00000000000E+00 0. -1.
         21   -1    0    0  501  502  0.00000000000E+00 -0.00000000000E+00 -0.13874055211E+03  0.13874055211E+03  0.00000000000E+00 0. -1.
         23    2    1    2    0    0  0.74754800276E+02  0.12157594508E+03  0.26638404337E+03  0.31584034564E+03  0.91791474456E+02 0.  0.
        -24    2    1    2    0    0 -0.58566328541E+02 -0.78669593917E+02 -0.52012860573E+02  0.13678949598E+03  0.79919388765E+02 0.  0.
         13    1    4    4    0    0 -0.66536881632E+02 -0.79295531781E+02 -0.22125445363E+02  0.10585118474E+03  0.00000000000E+00 0. -1.
        -14    1    4    4    0    0  0.79705530913E+01  0.62593786463E+00 -0.29887415211E+02  0.30938311246E+02  0.00000000000E+00 0.  1.
        -11    1    3    3    0    0  0.37373477189E+02  0.12357934799E+03  0.17833350712E+03  0.22016237600E+03  0.00000000000E+00 0. -1.
         11    1    3    3    0    0  0.37381323086E+02 -0.20034029081E+01  0.88050536250E+02  0.95677969631E+02  0.00000000000E+00 0.  1.
          2    1    1    2  501    0 -0.16188471735E+02 -0.42906351161E+02  0.71976818166E+01  0.46420127214E+02  0.00000000000E+00 0. -1.
<scales pt_clust_5="13000.00000" pt_clust_6="13000.00000" pt_clust_7="13000.00000" pt_clust_8="13000.00000" pt_clust_9="45.85871"></scales>
<clustering>
<clus scale="   45.859">  2  9  1 -1</clus>
<clus scale="   79.919">  5  6 -1 -1</clus>
<clus scale="   91.791">  7  8 -1 -1</clus>
<clus scale="  155.495">  2  5  1 -1</clus>
<clus scale="   45.859">  2  5  1 -1</clus>
</clustering>
</event>
<event>
 9    1  0.8429841E-005  0.1566748E+03  0.7546771E-02  0.1206964E+00
          3   -1    0    0  502    0 -0.00000000000E+00  0.00000000000E+00  0.21326140176E+03  0.21326140176E+03  0.00000000000E+00 0. -1.
         21   -1    0    0  501  502  0.00000000000E+00 -0.00000000000E+00 -0.21672691218E+03  0.21672691218E+03  0.00000000000E+00 0. -1.
        -24    2    1    2    0    0  0.75743190455E+02  0.33013813692E+02  0.46447416021E+02  0.12349326657E+03  0.79159848647E+02 0.  0.
         23    2    1    2    0    0 -0.12035164730E+03  0.87371640326E+02 -0.12195568459E+02  0.17268484203E+03  0.86907998691E+02 0.  0.
         11    1    3    3    0    0  0.59453950401E+02 -0.45075954349E+00 -0.53666639377E+01  0.59697374182E+02  0.00000000000E+00 0. -1.
        -12    1    3    3    0    0  0.16289240055E+02  0.33464573235E+02  0.51814079958E+02  0.63795892386E+02  0.00000000000E+00 0.  1.
        -11    1    4    4    0    0 -0.39453568131E+02  0.18089757384E+02 -0.43721397378E+02  0.61606687536E+02  0.00000000000E+00 0.  1.
         11    1    4    4    0    0 -0.80898079164E+02  0.69281882942E+02  0.31525828919E+02  0.11107815449E+03  0.00000000000E+00 0. -1.
          4    1    1    2  501    0  0.44608456840E+02 -0.12038545402E+03 -0.37717357986E+02  0.13381020534E+03  0.00000000000E+00 0. -1.
<scales pt_clust_5="13000.00000" pt_clust_6="13000.00000" pt_clust_7="13000.00000" pt_clust_8="13000.00000" pt_clust_9="130.36102"></scales>
<clustering>
<clus scale="   79.160">  5  6 -1 -1</clus>
<clus scale="   86.908">  7  8 -1 -1</clus>
<clus scale="  114.426">  1  5  2 -1</clus>
<clus scale="  130.361">  2  9  1 -1</clus>
<clus scale="  130.361">  2  5  1 -1</clus>
</clustering>
</event>
<event>
 9    1  0.8429841E-005  0.9833527E+02  0.7546771E-02  0.1291555E+00
          1   -1    0    0  502    0 -0.00000000000E+00  0.00000000000E+00  0.19192393650E+03  0.19192393650E+03  0.00000000000E+00 0. -1.
         21   -1    0    0  501  502  0.00000000000E+00 -0.00000000000E+00 -0.68897438785E+02  0.68897438785E+02  0.00000000000E+00 0. -1.
         23    2    1    2    0    0 -0.11269942462E+02  0.24627484307E+02  0.98203565576E+02  0.13831783909E+03  0.93564735512E+02 0.  0.
        -24    2    1    2    0    0 -0.80375742094E+01 -0.38026039956E+02  0.37150039128E+02  0.95965656467E+02  0.79490247830E+02 0.  0.
         13    1    4    4    0    0 -0.29174767592E+02 -0.37016065790E+02  0.51948912628E+02  0.70143037530E+02  0.00000000000E+00 0. -1.
        -14    1    4    4    0    0  0.21137193383E+02 -0.10099741662E+01 -0.14798873500E+02  0.25822618938E+02  0.00000000000E+00 0.  1.
        -13    1    3    3    0    0  0.38893751427E+02  0.91975831551E+01  0.21514298369E+02  0.45389255009E+02  0.00000000000E+00 0. -1.
         13    1    3    3    0    0 -0.50163693888E+02  0.15429901152E+02  0.76689267207E+02  0.92928584079E+02  0.00000000000E+00 0.  1.
          2    1    1    2  501    0  0.19307516671E+02  0.13398555650E+02 -0.12327106994E+02  0.26537879726E+02  0.00000000000E+00 0. -1.
<scales pt_clust_5="13000.00000" pt_clust_6="13000.00000" pt_clust_7="13000.00000" pt_clust_8="13000.00000" pt_clust_9="23.50110"></scales>
<clustering>
<clus scale="   23.501">  2  9  1 -1</clus>
<clus scale="   79.490">  5  6 -1 -1</clus>
<clus scale="   85.054">  2  5  1 -1</clus>
<clus scale="   93.565">  7  8 -1 -1</clus>
<clus scale="   23.501">  2  5  1 -1</clus>
</clustering>
</event>
<event>
 9    1  0.8429841E-005  0.2348980E+03  0.7546771E-02  0.1147105E+00
         -4   -1    0    0    0  501 -0.00000000000E+00  0.00000000000E+00  0.47492058868E+02  0.47492058868E+02  0.00000000000E+00 0.  1.
         21   -1    0    0  501  502  0.00000000000E+00 -0.00000000000E+00 -0.21521801362E+04  0.21521801362E+04  0.00000000000E+00 0.  1.
        -24    2    1    2    0    0  0.60812654686E+02 -0.85894321944E+02 -0.18943899008E+03  0.23056134560E+03  0.78710797286E+02 0.  0.
         23    2    1    2    0    0 -0.16635141495E+03  0.21139248901E+03 -0.12831081806E+04  0.13160485663E+04  0.11514186045E+03 0.  0.
         11    1    3    3    0    0 -0.12745299056E+02 -0.39850745148E+02 -0.40771435780E+02  0.58419470320E+02  0.00000000000E+00 0. -1.
        -12    1    3    3    0    0  0.73557953742E+02 -0.46043576796E+02 -0.14866755430E+03  0.17214187528E+03  0.00000000000E+00 0.  1.
        -11    1    4    4    0    0 -0.11607843747E+03  0.20564636614E+03 -0.11415356695E+04  0.11657050726E+04  0.00000000000E+00 0.  1.
         11    1    4    4    0    0 -0.50272977484E+02  0.57461228735E+01 -0.14157251112E+03  0.15034349370E+03  0.00000000000E+00 0. -1.
         -3    1    1    2    0  502  0.10553876027E+03 -0.12549816707E+03 -0.63214090667E+03  0.65306228320E+03  0.00000000000E+00 0.  1.
<scales pt_clust_5="13000.00000" pt_clust_6="13000.00000" pt_clust_7="13000.00000" pt_clust_8="13000.00000" pt_clust_9="204.74230"></scales>
<clustering>
<clus scale="   78.711">  5  6 -1 -1</clus>
<clus scale="  115.142">  7  8 -1 -1</clus>
<clus scale="  131.421">  1  5  2 -1</clus>
<clus scale="  204.742">  2  9  1 -1</clus>
<clus scale="  204.742">  2  5  1 -1</clus>
</clustering>
</event>
<event>
 9    1  0.8429841E-005  0.1448024E+03  0.7546771E-02  0.1209373E+00
         21   -1    0    0  501  502  0.00000000000E+00  0.00000000000E+00  0.33454395796E+03  0.33454395796E+03  0.00000000000E+00 0. -1.
         -2   -1    0    0    0  501 -0.00000000000E+00 -0.00000000000E+00 -0.24837036386E+03  0.24837036386E+03  0.00000000000E+00 0.  1.
         23    2    1    2    0    0 -0.64886109516E+02 -0.91532058763E+02 -0.14042799476E+03  0.20156633635E+03  0.91217549007E+02 0.  0.
        -24    2    1    2    0    0  0.15565077396E+03  0.14838839275E+02  0.80288803553E+02  0.19286057112E+03  0.79382323808E+02 0.  0.
         11    1    4    4    0    0  0.14247756511E+03  0.25531509677E+02  0.92657877103E+02  0.17186389014E+03  0.00000000000E+00 0. -1.
        -12    1    4    4    0    0  0.13173208849E+02 -0.10692670402E+02 -0.12369073550E+02  0.20996680981E+02  0.00000000000E+00 0.  1.
        -11    1    3    3    0    0 -0.44957132648E+02 -0.18923427175E+02 -0.82826480920E+01  0.49475672117E+02  0.00000000000E+00 0.  1.
         11    1    3    3    0    0 -0.19928976868E+02 -0.72608631588E+02 -0.13214534667E+03  0.15209066423E+03  0.00000000000E+00 0. -1.
         -1    1    1    2    0  502 -0.90764664439E+02  0.76693219488E+02  0.14631278531E+03  0.18848741436E+03  0.00000000000E+00 0.  1.
<scales pt_clust_5="13000.00000" pt_clust_6="13000.00000" pt_clust_7="13000.00000" pt_clust_8="13000.00000" pt_clust_9="118.82792"></scales>
<clustering>
<clus scale="   79.382">  5  6 -1 -1</clus>
<clus scale="   91.218">  7  8 -1 -1</clus>
<clus scale="  118.828">  1  9  2 -1</clus>
<clus scale="  137.654">  1  5  2 -1</clus>
<clus scale="  118.828">  1  5  2 -1</clus>
</clustering>
</event>
<event>
 9    1  0.8429841E-005  0.1529365E+03  0.7546771E-02  0.1197130E+00
         21   -1    0    0  501  502  0.00000000000E+00  0.00000000000E+00  0.19764486507E+03  0.19764486507E+03  0.00000000000E+00 0.  1.
          1   -1    0    0  502    0 -0.00000000000E+00 -0.00000000000E+00 -0.25400389824E+03  0.25400389824E+03  0.00000000000E+00 0. -1.
         23    2    1    2    0    0 -0.30217373901E+02  0.11420417459E+03 -0.78640847209E+02  0.16357730065E+03  0.81347816567E+02 0.  0.
        -24    2    1    2    0    0  0.43345900746E+02 -0.16306516849E+03  0.86944084233E+02  0.20596808802E+03  0.79965387598E+02 0.  0.
         11    1    4    4    0    0 -0.22673021498E+02 -0.48142975254E+02  0.15620132949E+02  0.55459900140E+02  0.00000000000E+00 0. -1.
        -12    1    4    4    0    0  0.66018922244E+02 -0.11492219323E+03  0.71323951284E+02  0.15050818788E+03  0.00000000000E+00 0.  1.
        -13    1    3    3    0    0 -0.13588824010E+02  0.16026904046E+02 -0.58265446533E+02  0.61938518314E+02  0.00000000000E+00 0. -1.
         13    1    3    3    0    0 -0.16628549891E+02  0.98177270542E+02 -0.20375400676E+02  0.10163878234E+03  0.00000000000E+00 0.  1.
          2    1    1    2  501    0 -0.13128526845E+02  0.48860993897E+02 -0.64662270190E+02  0.82103374644E+02  0.00000000000E+00 0. -1.
<scales pt_clust_5="13000.00000" pt_clust_6="13000.00000" pt_clust_7="13000.00000" pt_clust_8="13000.00000" pt_clust_9="50.59405"></scales>
<clustering>
<clus scale="   50.594">  1  9  2 -1</clus>
<clus scale="   79.965">  5  6 -1 -1</clus>
<clus scale="   81.348">  7  8 -1 -1</clus>
<clus scale="  152.206">  1  5  2 -1</clus>
<clus scale="   50.594">  1  5  2 -1</clus>
</clustering>
</event>
<event>
 9    1  0.8429841E-005  0.1005039E+03  0.7546771E-02  0.1283444E+00
         21   -1    0    0  501  502  0.00000000000E+00  0.00000000000E+00  0.52116141967E+02  0.52116141967E+02  0.00000000000E+00 0. -1.
         -2   -1    0    0    0  501 -0.00000000000E+00 -0.00000000000E+00 -0.34810418979E+03  0.34810418979E+03  0.00000000000E+00 0.  1.
        -24    2    1    2    0    0 -0.28102286361E+02  0.25849856546E+02 -0.21165127546E+03  0.22986496177E+03  0.81139907956E+02 0.  0.
         23    2    1    2    0    0  0.54642615775E+02 -0.45489427724E+02 -0.60027559537E+02  0.12935488621E+03  0.89856970735E+02 0.  0.
         11    1    3    3    0    0 -0.55696233414E+00  0.21890505425E+02 -0.65100467455E+01  0.22844805612E+02  0.00000000000E+00 0. -1.
        -12    1    3    3    0    0 -0.27545324027E+02  0.39593511211E+01 -0.20514122871E+03  0.20702015616E+03  0.00000000000E+00 0.  1.
        -11    1    4    4    0    0  0.43307999302E+02  0.50907205628E+00 -0.68680826878E+02  0.81196662115E+02  0.00000000000E+00 0.  1.
         11    1    4    4    0    0  0.11334616473E+02 -0.45998499780E+02  0.86532673411E+01  0.48158224098E+02  0.00000000000E+00 0. -1.
         -1    1    1    2    0  502 -0.26540329415E+02  0.19639571178E+02 -0.24309212824E+02  0.41000483773E+02  0.00000000000E+00 0.  1.
<scales pt_clust_5="13000.00000" pt_clust_6="13000.00000" pt_clust_7="13000.00000" pt_clust_8="13000.00000" pt_clust_9="33.01669"></scales>
<clustering>
<clus scale="   33.017">  1  9  2 -1</clus>
<clus scale="   81.140">  5  6 -1 -1</clus>
<clus scale="   89.857">  7  8 -1 -1</clus>
<clus scale="   92.792">  2  5  1 -1</clus>
<clus scale="   33.017">  1  5  2 -1</clus>
</clustering>
</event>
<event>
 9    1  0.8429841E-005  0.9777540E+02  0.7546771E-02  0.1291723E+00
          3   -1    0    0  502    0 -0.00000000000E+00  0.00000000000E+00  0.30056987005E+02  0.30056987005E+02  0.00000000000E+00 0. -1.
         21   -1    0    0  501  502  0.00000000000E+00 -0.00000000000E+00 -0.78495230780E+03  0.78495230780E+03  0.00000000000E+00 0. -1.
         23    2    1    2    0    0  0.31591137104E+02  0.29639047033E+01 -0.14012121987E+03  0.16965989211E+03  0.90242662064E+02 0.  0.
        -24    2    1    2    0    0 -0.36543712067E+02  0.75959104883E+02 -0.41401085057E+03  0.42957347232E+03  0.77608989305E+02 0.  0.
         11    1    4    4    0    0 -0.72148783678E+01  0.81559030174E+02 -0.25628730674E+03  0.26904853366E+03  0.00000000000E+00 0. -1.
        -12    1    4    4    0    0 -0.29328833700E+02 -0.55999252904E+01 -0.15772354384E+03  0.16052493865E+03  0.00000000000E+00 0.  1.
        -11    1    3    3    0    0  0.32859210518E+02  0.38737114684E+02 -0.11560724792E+03  0.12627480961E+03  0.00000000000E+00 0. -1.
         11    1    3    3    0    0 -0.12680734143E+01 -0.35773209980E+02 -0.24513971952E+02  0.43385082498E+02  0.00000000000E+00 0.  1.
          4    1    1    2  501    0  0.49525749637E+01 -0.78923009586E+02 -0.20076325034E+03  0.21577593038E+03  0.00000000000E+00 0. -1.
<scales pt_clust_5="13000.00000" pt_clust_6="13000.00000" pt_clust_7="13000.00000" pt_clust_8="13000.00000" pt_clust_9="79.07825"></scales>
<clustering>
<clus scale="   77.609">  5  6 -1 -1</clus>
<clus scale="   79.078">  2  9  1 -1</clus>
<clus scale="   86.252">  2  5  1 -1</clus>
<clus scale="   90.243">  7  8 -1 -1</clus>
<clus scale="   79.078">  2  5  1 -1</clus>
</clustering>
</event>
<event>
 9    1  0.8429841E-005  0.2210120E+03  0.7546771E-02  0.1164173E+00
         21   -1    0    0  501  502  0.00000000000E+00  0.00000000000E+00  0.31613070871E+03  0.31613070871E+03  0.00000000000E+00 0. -1.
          1   -1    0    0  502    0 -0.00000000000E+00 -0.00000000000E+00 -0.26024777721E+03  0.26024777721E+03  0.00000000000E+00 0. -1.
         23    2    1    2    0    0  0.20709941607E+02 -0.49591437526E+02 -0.66978202307E+02  0.12515079863E+03  0.91040817527E+02 0.  0.
        -24    2    1    2    0    0  0.10610846762E+02  0.22703459397E+03  0.12364337605E+03  0.27103979242E+03  0.80731578101E+02 0.  0.
         13    1    4    4    0    0 -0.22470809282E+02  0.16585179759E+03  0.63232212724E+02  0.17891357902E+03  0.00000000000E+00 0. -1.
        -14    1    4    4    0    0  0.33081656044E+02  0.61182796389E+02  0.60411163322E+02  0.92126213395E+02  0.00000000000E+00 0.  1.
        -13    1    3    3    0    0  0.22288841580E+02  0.23293725640E+02 -0.26709443285E+02  0.41866268926E+02  0.00000000000E+00 0.  1.
         13    1    3    3    0    0 -0.15788999721E+01 -0.72885163166E+02 -0.40268759022E+02  0.83284529704E+02  0.00000000000E+00 0. -1.
          2    1    1    2  501    0 -0.31320788370E+02 -0.17744315645E+03 -0.78224223379E+00  0.18018789487E+03  0.00000000000E+00 0. -1.
<scales pt_clust_5="13000.00000" pt_clust_6="13000.00000" pt_clust_7="13000.00000" pt_clust_8="13000.00000" pt_clust_9="205.73956"></scales>
<clustering>
<clus scale="   80.732">  5  6 -1 -1</clus>
<clus scale="   91.041">  7  8 -1 -1</clus>
<clus scale="  105.720">  2  7  1 -1</clus>
<clus scale="  205.740">  1  9  2 -1</clus>
<clus scale="  205.740">  1  5  2 -1</clus>
</clustering>
</event>
<event>
 9    1  0.8429841E-005  0.1464658E+03  0.7546771E-02  0.1206861E+00
         21   -1    0    0  501  502  0.00000000000E+00  0.00000000000E+00  0.63015207911E+02  0.63015207911E+02  0.00000000000E+00 0. -1.
          1   -1    0    0  502    0 -0.00000000000E+00 -0.00000000000E+00 -0.62895286073E+03  0.62895286073E+03  0.00000000000E+00 0. -1.
         23    2    1    2    0    0 -0.34813942902E+02 -0.97629523411E+02 -0.35736384322E+03  0.38242796010E+03  0.88310213252E+02 0.  0.
        -24    2    1    2    0    0  0.64111272888E+02  0.14255275207E+03 -0.16795820161E+03  0.24226412746E+03  0.77784365604E+02 0.  0.
         11    1    4    4    0    0  0.54487696058E+02  0.13125231797E+03 -0.17532982477E+03  0.22569144301E+03  0.00000000000E+00 0. -1.
        -12    1    4    4    0    0  0.96235768300E+01  0.11300434097E+02  0.73716231615E+01  0.16572684448E+02  0.00000000000E+00 0.  1.
        -11    1    3    3    0    0 -0.43594754487E+02 -0.81699223382E+01 -0.14998199702E+03  0.15640284422E+03  0.00000000000E+00 0.  1.
         11    1    3    3    0    0  0.87808115848E+01 -0.89459601073E+02 -0.20738184619E+03  0.22602511588E+03  0.00000000000E+00 0. -1.
          2    1    1    2  501    0 -0.29297329986E+02 -0.44923228659E+02 -0.40615607992E+02  0.67275981079E+02  0.00000000000E+00 0. -1.
<scales pt_clust_5="13000.00000" pt_clust_6="13000.00000" pt_clust_7="13000.00000" pt_clust_8="13000.00000" pt_clust_9="53.63236"></scales>
<clustering>
<clus scale="   53.632">  1  9  2 -1</clus>
<clus scale="   77.784">  5  6 -1 -1</clus>
<clus scale="   88.310">  7  8 -1 -1</clus>
<clus scale="  140.371">  1  5  2 -1</clus>
<clus scale="   53.632">  1  5  2 -1</clus>
</clustering>
</event>
<event>
 9    1  0.8429841E-005  0.1078173E+03  0.7546771E-02  0.1269423E+00
         21   -1    0    0  501  502  0.00000000000E+00  0.00000000000E+00  0.13044219238E+03  0.13044219238E+03  0.00000000000E+00 0.  1.
         -2   -1    0    0    0  501 -0.00000000000E+00 -0.00000000000E+00 -0.53478080056E+03  0.53478080056E+03  0.00000000000E+00 0.  1.
        -24    2    1    2    0    0 -0.36653912283E+01 -0.57902949403E+02 -0.39482457955E+03  0.40713254413E+03  0.80649074575E+02 0.  0.
         23    2    1    2    0    0  0.45626262392E+02  0.42935039772E+02 -0.10481013530E+03  0.15289491196E+03  0.92013673890E+02 0.  0.
         11    1    3    3    0    0  0.24538252269E+02  0.77669953954E+01 -0.14582288927E+03  0.14807689582E+03  0.00000000000E+00 0. -1.
        -12    1    3    3    0    0 -0.28203643497E+02 -0.65669944798E+02 -0.24900169028E+03  0.25905564831E+03  0.00000000000E+00 0.  1.
        -11    1    4    4    0    0 -0.18417626917E+02  0.29543090129E+02 -0.74660995385E+01  0.35605418098E+02  0.00000000000E+00 0. -1.
         11    1    4    4    0    0  0.64043889308E+02  0.13391949643E+02 -0.97344035762E+02  0.11728949387E+03  0.00000000000E+00 0.  1.
         -1    1    1    2    0  502 -0.41960871163E+02  0.14967909631E+02  0.95296106664E+02  0.10519553685E+03  0.00000000000E+00 0.  1.
<scales pt_clust_5="13000.00000" pt_clust_6="13000.00000" pt_clust_7="13000.00000" pt_clust_8="13000.00000" pt_clust_9="44.55057"></scales>
<clustering>
<clus scale="   44.551">  1  9  2 -1</clus>
<clus scale="   80.649">  5  6 -1 -1</clus>
<clus scale="   92.014">  7  8 -1 -1</clus>
<clus scale="   98.297">  2  5  1 -1</clus>
<clus scale="   44.551">  1  5  2 -1</clus>
</clustering>
</event>
<event>
 9    1  0.8429841E-005  0.1457249E+03  0.7546771E-02  0.1206499E+00
         -4   -1    0    0    0  501 -0.00000000000E+00  0.00000000000E+00  0.12364644344E+03  0.12364644344E+03  0.00000000000E+00 0.  1.
         21   -1    0    0  501  502  0.00000000000E+00 -0.00000000000E+00 -0.26988788335E+03  0.26988788335E+03  0.00000000000E+00 0.  1.
        -24    2    1    2    0    0  0.34284564587E+02 -0.10969777688E+03 -0.46891972713E+01  0.13961452850E+03  0.79127709289E+02 0.  0.
         23    2    1    2    0    0 -0.11284693041E+02  0.12860744923E+03 -0.55956498738E+02  0.16329308492E+03  0.82863028772E+02 0.  0.
         13    1    3    3    0    0  0.21006999472E+02  0.22550273143E+01  0.13990641866E+02  0.25340032258E+02  0.00000000000E+00 0. -1.
        -14    1    3    3    0    0  0.13277565115E+02 -0.11195280419E+03 -0.18679839137E+02  0.11427449625E+03  0.00000000000E+00 0.  1.
        -11    1    4    4    0    0 -0.88507172521E+01  0.98366988977E+02 -0.77951429148E+02  0.12582060651E+03  0.00000000000E+00 0. -1.
         11    1    4    4    0    0 -0.24339757885E+01  0.30240460255E+02  0.21994930410E+02  0.37472478412E+02  0.00000000000E+00 0.  1.
         -3    1    1    2    0  502 -0.22999871547E+02 -0.18909672353E+02 -0.85595743908E+02  0.90626713362E+02  0.00000000000E+00 0.  1.
<scales pt_clust_5="13000.00000" pt_clust_6="13000.00000" pt_clust_7="13000.00000" pt_clust_8="13000.00000" pt_clust_9="29.77532"></scales>
<clustering>
<clus scale="   29.775">  2  9  1 -1</clus>
<clus scale="   79.128">  5  6 -1 -1</clus>
<clus scale="   82.863">  7  8 -1 -1</clus>
<clus scale="  143.634">  1  5  2 -1</clus>
<clus scale="   29.775">  2  5  1 -1</clus>
</clustering>
</event>
<event>
 9    1  0.8429841E-005  0.9361971E+02  0.7546771E-02  0.1303496E+00
         21   -1    0    0  501  502  0.00000000000E+00  0.00000000000E+00  0.54449966056E+02  0.54449966056E+02  0.00000000000E+00 0.  1.
         -2   -1    0    0    0  501 -0.00000000000E+00 -0.00000000000E+00 -0.40689308262E+03  0.40689308262E+03  0.00000000000E+00 0.  1.
        -24    2    1    2    0    0  0.16541949502E+02 -0.56045327800E+02 -0.19909839224E+03  0.22029798915E+03  0.74002157882E+02 0.  0.
         23    2    1    2    0    0  0.21847922801E+02 -0.23473373887E+02 -0.99758384234E+02  0.13775661846E+03  0.89424938869E+02 0.  0.
         13    1    3    3    0    0 -0.25742676240E+02 -0.40405359929E+02 -0.12070177716E+03  0.12986222507E+03  0.00000000000E+00 0. -1.
        -14    1    3    3    0    0  0.42284625742E+02 -0.15639967871E+02 -0.78396615083E+02  0.90435764085E+02  0.00000000000E+00 0.  1.
        -13    1    4    4    0    0  0.19752854970E+02 -0.46224253315E+02 -0.18852707565E+02  0.53686883468E+02  0.00000000000E+00 0.  1.
         13    1    4    4    0    0  0.20950678319E+01  0.22750879428E+02 -0.80905676669E+02  0.84069734990E+02  0.00000000000E+00 0. -1.
         -1    1    1    2    0  502 -0.38389872304E+02  0.79518701687E+02 -0.53586340094E+02  0.10328844107E+03  0.00000000000E+00 0.  1.
<scales pt_clust_5="13000.00000" pt_clust_6="13000.00000" pt_clust_7="13000.00000" pt_clust_8="13000.00000" pt_clust_9="88.30066"></scales>
<clustering>
<clus scale="   74.002">  5  6 -1 -1</clus>
<clus scale="   88.301">  1  9  2 -1</clus>
<clus scale="   79.020">  2  5  1 -1</clus>
<clus scale="   89.425">  7  8 -1 -1</clus>
<clus scale="   88.301">  1  5  2 -1</clus>
</clustering>
</event>
<event>
 9    1  0.8429841E-005  0.1136862E+03  0.7546771E-02  0.1259194E+00
         21   -1    0    0  501  502  0.00000000000E+00  0.00000000000E+00  0.31960787056E+03  0.31960787056E+03  0.00000000000E+00 0.  1.
         -2   -1    0    0    0  501 -0.00000000000E+00 -0.00000000000E+00 -0.68194913099E+02  0.68194913099E+02  0.00000000000E+00 0.  1.
         23    2    1    2    0    0  0.60860895426E+02  0.14716036244E+02  0.25878506736E+02  0.11610149274E+03  0.94282814928E+02 0.  0.
        -24    2    1    2    0    0 -0.50328716730E+02 -0.54046820342E+02  0.14490956495E+03  0.18137848332E+03  0.80282835537E+02 0.  0.
         13    1    4    4    0    0 -0.55067678018E+02 -0.55217167937E+02  0.65562553708E+02  0.10188146665E+03  0.00000000000E+00 0. -1.
        -14    1    4    4    0    0  0.47389612878E+01  0.11703475956E+01  0.79347011237E+02  0.79497016673E+02  0.00000000000E+00 0.  1.
        -11    1    3    3    0    0 -0.20047896925E+02  0.23742714542E+02  0.14659595454E+01  0.31109222143E+02  0.00000000000E+00 0.  1.
         11    1    3    3    0    0  0.80908792351E+02 -0.90266782984E+01  0.24412547191E+02  0.84992270597E+02  0.00000000000E+00 0. -1.
         -1    1    1    2    0  502 -0.10532178695E+02  0.39330784098E+02  0.80624885782E+02  0.90322807603E+02  0.00000000000E+00 0.  1.
<scales pt_clust_5="13000.00000" pt_clust_6="13000.00000" pt_clust_7="13000.00000" pt_clust_8="13000.00000" pt_clust_9="40.71655"></scales>
<clustering>
<clus scale="   40.717">  1  9  2 -1</clus>
<clus scale="   80.283">  5  6 -1 -1</clus>
<clus scale="   94.283">  7  8 -1 -1</clus>
<clus scale="  102.375">  1  5  2 -1</clus>
<clus scale="   40.717">  1  5  2 -1</clus>
</clustering>
</event>
<event>
 9    1  0.8429841E-005  0.9297235E+02  0.7546771E-02  0.1301803E+00
          1   -1    0    0  502    0 -0.00000000000E+00  0.00000000000E+00  0.22905588020E+03  0.22905588020E+03  0.00000000000E+00 0. -1.
         21   -1    0    0  501  502  0.00000000000E+00 -0.00000000000E+00 -0.10128854850E+03  0.10128854850E+03  0.00000000000E+00 0. -1.
        -24    2    1    2    0    0  0.12702771932E+02  0.16708816746E+02  0.73391636491E+02  0.10979734234E+03  0.78921347596E+02 0.  0.
         23    2    1    2    0    0  0.82638572913E+01 -0.59975810869E+02 -0.39751530697E+02  0.11485145268E+03  0.89136315632E+02 0.  0.
         13    1    3    3    0    0  0.10985238494E+02 -0.31532293916E+02  0.30386937202E+02  0.45147834686E+02  0.00000000000E+00 0. -1.
        -14    1    3    3    0    0  0.17175334386E+01  0.48241110662E+02  0.43004699290E+02  0.64649507655E+02  0.00000000000E+00 0.  1.
        -11    1    4    4    0    0  0.39846568087E+02  0.59976154614E-01 -0.16713589487E+02  0.43209913897E+02  0.00000000000E+00 0.  1.
         11    1    4    4    0    0 -0.31582710796E+02 -0.60035787023E+02 -0.23037941209E+02  0.71641538788E+02  0.00000000000E+00 0. -1.
          2    1    1    2  501    0 -0.20966629224E+02  0.43266994122E+02  0.94127225905E+02  0.10569563367E+03  0.00000000000E+00 0. -1.
<scales pt_clust_5="13000.00000" pt_clust_6="13000.00000" pt_clust_7="13000.00000" pt_clust_8="13000.00000" pt_clust_9="48.07946"></scales>
<clustering>
<clus scale="   48.079">  2  9  1 -1</clus>
<clus scale="   78.921">  5  6 -1 -1</clus>
<clus scale="   83.230">  1  5  2 -1</clus>
<clus scale="   89.136">  7  8 -1 -1</clus>
<clus scale="   48.079">  2  5  1 -1</clus>
</clustering>
</event>
<event>
 9    1  0.8429841E-005  0.9744779E+02  0.7546771E-02  0.1293070E+00
         21   -1    0    0  501  502  0.00000000000E+00  0.00000000000E+00  0.32049406900E+02  0.32049406900E+02  0.00000000000E+00 0.  1.
         -2   -1    0    0    0  501 -0.00000000000E+00 -0.00000000000E+00 -0.51547315812E+03  0.51547315812E+03  0.00000000000E+00 0.  1.
        -24    2    1    2    0    0 -0.57296994239E+01 -0.30192216105E+02 -0.33589471164E+03  0.34686618946E+03  0.80910424002E+02 0.  0.
         23    2    1    2    0    0 -0.19841336293E+02  0.83039793052E+01 -0.80166038346E+02  0.12535201504E+03  0.93935612381E+02 0.  0.
         11    1    3    3    0    0  0.18951507592E+02 -0.40319496979E+02 -0.10009359389E+03  0.10956070927E+03  0.00000000000E+00 0. -1.
        -12    1    3    3    0    0 -0.24681207016E+02  0.10127280875E+02 -0.23580111775E+03  0.23730548019E+03  0.00000000000E+00 0.  1.
        -11    1    4    4    0    0 -0.52540956678E+02  0.37635302991E+01 -0.19282585716E+02  0.56093978294E+02  0.00000000000E+00 0.  1.
         11    1    4    4    0    0  0.32699620384E+02  0.45404490060E+01 -0.60883452629E+02  0.69258036750E+02  0.00000000000E+00 0. -1.
         -1    1    1    2    0  502  0.25571035717E+02  0.21888236799E+02 -0.67363001230E+02  0.75304360515E+02  0.00000000000E+00 0.  1.
<scales pt_clust_5="13000.00000" pt_clust_6="13000.00000" pt_clust_7="13000.00000" pt_clust_8="13000.00000" pt_clust_9="33.65968"></scales>
<clustering>
<clus scale="   33.660">  1  9  2 -1</clus>
<clus scale="   80.910">  5  6 -1 -1</clus>
<clus scale="   84.963">  2  5  1 -1</clus>
<clus scale="   93.936">  7  8 -1 -1</clus>
<clus scale="   33.660">  1  5  2 -1</clus>
</clustering>
</event>
<event>
 9    1  0.8429841E-005  0.1067970E+03  0.7546771E-02  0.1268378E+00
         21   -1    0    0  501  502  0.00000000000E+00  0.00000000000E+00  0.43023662870E+03  0.43023662870E+03  0.00000000000E+00 0.  1.
          1   -1    0    0  502    0 -0.00000000000E+00 -0.00000000000E+00 -0.46725624707E+02  0.46725624707E+02  0.00000000000E+00 0. -1.
         23    2    1    2    0    0 -0.20611465013E+02  0.65030772242E+02  0.61260962411E+02  0.12796504803E+03  0.89265414206E+02 0.  0.
        -24    2    1    2    0    0  0.70410010118E+01 -0.39624387343E+02  0.17196401263E+03  0.19597585920E+03  0.84942615822E+02 0.  0.
         11    1    4    4    0    0  0.27919214361E+02 -0.50375447023E+02  0.15909053455E+03  0.16919505423E+03  0.00000000000E+00 0. -1.
        -12    1    4    4    0    0 -0.20878213349E+02  0.10751059680E+02  0.12873478078E+02  0.26780804968E+02  0.00000000000E+00 0.  1.
        -13    1    3    3    0    0  0.34562013834E+02  0.17727866776E+02  0.28876421732E+02  0.48401010245E+02  0.00000000000E+00 0. -1.
         13    1    3    3    0    0 -0.55173478847E+02  0.47302905466E+02  0.32384540680E+02  0.79564037785E+02  0.00000000000E+00 0.  1.
          2    1    1    2  501    0  0.13570464001E+02 -0.25406384899E+02  0.15028602896E+03  0.15302134618E+03  0.00000000000E+00 0. -1.
<scales pt_clust_5="13000.00000" pt_clust_6="13000.00000" pt_clust_7="13000.00000" pt_clust_8="13000.00000" pt_clust_9="28.80350"></scales>
<clustering>
<clus scale="   28.804">  1  9  2 -1</clus>
<clus scale="   84.943">  5  6 -1 -1</clus>
<clus scale="   89.265">  7  8 -1 -1</clus>
<clus scale="  103.211">  1  5  2 -1</clus>
<clus scale="   28.804">  1  5  2 -1</clus>
</clustering>
</event>
<event>
 9    1  0.8429841E-005  0.8750690E+02  0.7546771E-02  0.1316271E+00
          1   -1    0    0  502    0 -0.00000000000E+00  0.00000000000E+00  0.67150501513E+03  0.67150501513E+03  0.00000000000E+00 0. -1.
         21   -1    0    0  501  502  0.00000000000E+00 -0.00000000000E+00 -0.24907261032E+02  0.24907261032E+02  0.00000000000E+00 0. -1.
         23    2    1    2    0    0  0.23584994932E+02  0.24254709224E+02  0.26914125847E+03  0.28007047668E+03  0.69698723027E+02 0.  0.
        -24    2    1    2    0    0 -0.49621559449E+02  0.42241104851E+02  0.22511281467E+03  0.24809141134E+03  0.81406135838E+02 0.  0.
         11    1    4    4    0    0 -0.36610897249E+02  0.58672075087E+02  0.21286311497E+03  0.22381571863E+03  0.00000000000E+00 0. -1.
        -12    1    4    4    0    0 -0.13010662200E+02 -0.16430970236E+02  0.12249699698E+02  0.24275692709E+02  0.00000000000E+00 0.  1.
        -11    1    3    3    0    0 -0.11941733879E+02 -0.18282706199E+02  0.66971558176E+02  0.70441833867E+02  0.00000000000E+00 0.  1.
         11    1    3    3    0    0  0.35526728811E+02  0.42537415423E+02  0.20216970030E+03  0.20962864282E+03  0.00000000000E+00 0. -1.
          2    1    1    2  501    0  0.26036564517E+02 -0.66495814076E+02  0.15234368096E+03  0.16825038815E+03  0.00000000000E+00 0. -1.
<scales pt_clust_5="13000.00000" pt_clust_6="13000.00000" pt_clust_7="13000.00000" pt_clust_8="13000.00000" pt_clust_9="71.41146"></scales>
<clustering>
<clus scale="   69.699">  7  8 -1 -1</clus>
<clus scale="   71.411">  2  9  1 -1</clus>
<clus scale="   76.736">  1  7  2 -1</clus>
<clus scale="   81.406">  5  6 -1 -1</clus>
<clus scale="   71.411">  2  5  1 -1</clus>
</clustering>
</event>
<event>
 9    1  0.8429841E-005  0.1031873E+03  0.7546771E-02  0.1277456E+00
         21   -1    0    0  501  502  0.00000000000E+00  0.00000000000E+00  0.97237567342E+02  0.97237567342E+02  0.00000000000E+00 0.  1.
         -2   -1    0    0    0  501 -0.00000000000E+00 -0.00000000000E+00 -0.50369430903E+03  0.50369430903E+03  0.00000000000E+00 0.  1.
         23    2    1    2    0    0  0.49676418696E+02  0.18712561181E+02 -0.41619794916E+03  0.42871711648E+03  0.88089310095E+02 0.  0.
        -24    2    1    2    0    0 -0.72850705075E+02  0.33741337404E+02 -0.43165388891E+01  0.11317173102E+03  0.79646124289E+02 0.  0.
         13    1    4    4    0    0 -0.17189789349E+02 -0.25877389490E+02 -0.57596927305E+01  0.31595920703E+02  0.00000000000E+00 0. -1.
        -14    1    4    4    0    0 -0.55660915725E+02  0.59618726894E+02  0.14431538414E+01  0.81575810317E+02  0.00000000000E+00 0.  1.
        -11    1    3    3    0    0  0.33616017900E+02  0.53830285560E+02 -0.28336166850E+03  0.29038176850E+03  0.00000000000E+00 0.  1.
         11    1    3    3    0    0  0.16060400795E+02 -0.35117724380E+02 -0.13283628067E+03  0.13833534798E+03  0.00000000000E+00 0. -1.
         -1    1    1    2    0  502  0.23174286379E+02 -0.52453898585E+02  0.14057746363E+02  0.59043028875E+02  0.00000000000E+00 0.  1.
<scales pt_clust_5="13000.00000" pt_clust_6="13000.00000" pt_clust_7="13000.00000" pt_clust_8="13000.00000" pt_clust_9="57.34509"></scales>
<clustering>
<clus scale="   57.345">  1  9  2 -1</clus>
<clus scale="   79.646">  5  6 -1 -1</clus>
<clus scale="   88.089">  7  8 -1 -1</clus>
<clus scale="   96.080">  1  5  2 -1</clus>
<clus scale="   57.345">  1  5  2 -1</clus>
</clustering>
</event>
<event>
 9    1  0.8429841E-005  0.1479209E+03  0.7546771E-02  0.1220560E+00
          1   -1    0    0  502    0 -0.00000000000E+00  0.00000000000E+00  0.38023313904E+03  0.38023313904E+03  0.00000000000E+00 0. -1.
         21   -1    0    0  501  502  0.00000000000E+00 -0.00000000000E+00 -0.18473940693E+03  0.18473940693E+03  0.00000000000E+00 0. -1.
         23    2    1    2    0    0 -0.10831067439E+02  0.39854859476E+02  0.24000531578E+03  0.26073870519E+03  0.93147189631E+02 0.  0.
        -24    2    1    2    0    0 -0.11334981717E+03 -0.55960607160E+02 -0.85779148955E+02  0.17238810078E+03  0.79873802264E+02 0.  0.
         13    1    4    4    0    0 -0.11037493707E+03 -0.18456966706E+02 -0.63779992169E+02  0.12880673024E+03  0.00000000000E+00 0. -1.
        -14    1    4    4    0    0 -0.29748801001E+01 -0.37503640455E+02 -0.21999156786E+02  0.43581370541E+02  0.00000000000E+00 0.  1.
        -13    1    3    3    0    0  0.40914784168E+02  0.11838631639E+02  0.11311513260E+03  0.12086854837E+03  0.00000000000E+00 0.  1.
         13    1    3    3    0    0 -0.51745851607E+02  0.28016227837E+02  0.12689018318E+03  0.13987015682E+03  0.00000000000E+00 0. -1.
          2    1    1    2  501    0  0.12418088461E+03  0.16105747684E+02  0.41267565289E+02  0.13184574000E+03  0.00000000000E+00 0. -1.
<scales pt_clust_5="13000.00000" pt_clust_6="13000.00000" pt_clust_7="13000.00000" pt_clust_8="13000.00000" pt_clust_9="124.50218"></scales>
<clustering>
<clus scale="   79.874">  5  6 -1 -1</clus>
<clus scale="   93.147">  7  8 -1 -1</clus>
<clus scale="  101.893">  1  7  2 -1</clus>
<clus scale="  124.502">  2  9  1 -1</clus>
<clus scale="  124.502">  2  5  1 -1</clus>
</clustering>
</event>
<event>
 9    1  0.8429841E-005  0.2005400E+03  0.7546771E-02  0.1151260E+00
         21   -1    0    0  501  502  0.00000000000E+00  0.00000000000E+00  0.32343313772E+03  0.32343313772E+03  0.00000000000E+00 0.  1.
          3   -1    0    0  502    0 -0.00000000000E+00 -0.00000000000E+00 -0.20744566025E+03  0.20744566025E+03  0.00000000000E+00 0. -1.
        -24    2    1    2    0    0  0.57132637607E+02 -0.16551447382E+03 -0.85374625075E+02  0.21050901648E+03  0.79787468242E+02 0.  0.
         23    2    1    2    0    0 -0.16772223835E+02  0.17331187701E+03  0.13353729079E+03  0.24106046561E+03  0.99797925050E+02 0.  0.
         13    1    3    3    0    0  0.35289514787E+02 -0.14599831984E+03 -0.97211583004E+02  0.17891604489E+03  0.00000000000E+00 0. -1.
        -14    1    3    3    0    0  0.21843122820E+02 -0.19516153987E+02  0.11836957929E+02  0.31592971592E+02  0.00000000000E+00 0.  1.
        -13    1    4    4    0    0 -0.47009012665E+02  0.11455886320E+03  0.12228494755E+03  0.17403214877E+03  0.00000000000E+00 0.  1.
         13    1    4    4    0    0  0.30236788829E+02  0.58753013805E+02  0.11252343249E+02  0.67028316840E+02  0.00000000000E+00 0. -1.
          4    1    1    2  501    0 -0.40360413772E+02 -0.77974031840E+01  0.67824811751E+02  0.79309315880E+02  0.00000000000E+00 0. -1.
<scales pt_clust_5="13000.00000" pt_clust_6="13000.00000" pt_clust_7="13000.00000" pt_clust_8="13000.00000" pt_clust_9="41.10672"></scales>
<clustering>
<clus scale="   41.107">  1  9  2 -1</clus>
<clus scale="   79.787">  5  6 -1 -1</clus>
<clus scale="   99.798">  7  8 -1 -1</clus>
<clus scale="  191.371">  2  5  1 -1</clus>
<clus scale="   41.107">  1  5  2 -1</clus>
</clustering>
</event>
<event>
 9    1  0.8429841E-005  0.9521657E+02  0.7546771E-02  0.1298853E+00
         21   -1    0    0  501  502  0.00000000000E+00  0.00000000000E+00  0.20823160855E+03  0.20823160855E+03  0.00000000000E+00 0.  1.
         -4   -1    0    0    0  501 -0.00000000000E+00 -0.00000000000E+00 -0.17357848567E+03  0.17357848567E+03  0.00000000000E+00 0.  1.
        -24    2    1    2    0    0 -0.15356127880E+02 -0.35660606540E+00 -0.13811603470E+03  0.16075375576E+03  0.80807135310E+02 0.  0.
         23    2    1    2    0    0 -0.17287960547E+02  0.19036977748E+02  0.10458536734E+03  0.14318707593E+03  0.94356555411E+02 0.  0.
         13    1    3    3    0    0 -0.15483470868E+02 -0.24222989899E+02 -0.10007182441E+02  0.30440676901E+02  0.00000000000E+00 0. -1.
        -14    1    3    3    0    0  0.12734298757E+00  0.23866383834E+02 -0.12810885226E+03  0.13031307886E+03  0.00000000000E+00 0.  1.
        -13    1    4    4    0    0 -0.44546330727E+02  0.41810829139E+02  0.76520348841E+02  0.97917745079E+02  0.00000000000E+00 0.  1.
         13    1    4    4    0    0  0.27258370180E+02 -0.22773851391E+02  0.28065018499E+02  0.45269330847E+02  0.00000000000E+00 0. -1.
         -3    1    1    2    0  502  0.32644088427E+02 -0.18680371683E+02  0.68183790243E+02  0.77869262533E+02  0.00000000000E+00 0.  1.
<scales pt_clust_5="13000.00000" pt_clust_6="13000.00000" pt_clust_7="13000.00000" pt_clust_8="13000.00000" pt_clust_9="37.61107"></scales>
<clustering>
<clus scale="   37.611">  1  9  2 -1</clus>
<clus scale="   80.807">  5  6 -1 -1</clus>
<clus scale="   81.810">  2  5  1 -1</clus>
<clus scale="   94.357">  7  8 -1 -1</clus>
<clus scale="   37.611">  1  5  2 -1</clus>
</clustering>
</event>
<event>
 9    1  0.8429841E-005  0.1286435E+03  0.7546771E-02  0.1235860E+00
         21   -1    0    0  501  502  0.00000000000E+00  0.00000000000E+00  0.80740279367E+02  0.80740279367E+02  0.00000000000E+00 0. -1.
          1   -1    0    0  502    0 -0.00000000000E+00 -0.00000000000E+00 -0.38807126377E+03  0.38807126377E+03  0.00000000000E+00 0. -1.
         23    2    1    2    0    0  0.39998515100E+02 -0.63952613569E+02 -0.97893184857E+02  0.15417654288E+03  0.92181954526E+02 0.  0.
        -24    2    1    2    0    0 -0.11730088262E+02  0.11927863663E+03 -0.55706876122E+02  0.14882405490E+03  0.68413121134E+02 0.  0.
         13    1    4    4    0    0 -0.28009320649E+02  0.10102336482E+03 -0.64201818100E+02  0.12293134559E+03  0.00000000000E+00 0. -1.
        -14    1    4    4    0    0  0.16279232388E+02  0.18255271812E+02  0.84949419778E+01  0.25892709307E+02  0.00000000000E+00 0.  1.
        -13    1    3    3    0    0  0.30781242363E+02 -0.86393389460E+02 -0.61448642218E+02  0.11039582535E+03  0.00000000000E+00 0. -1.
         13    1    3    3    0    0  0.92172727369E+01  0.22440775892E+02 -0.36444542639E+02  0.43780717531E+02  0.00000000000E+00 0.  1.
          2    1    1    2  501    0 -0.28268426839E+02 -0.55326023061E+02 -0.15373092342E+03  0.16581094536E+03  0.00000000000E+00 0. -1.
<scales pt_clust_5="13000.00000" pt_clust_6="13000.00000" pt_clust_7="13000.00000" pt_clust_8="13000.00000" pt_clust_9="62.12952"></scales>
<clustering>
<clus scale="   62.130">  1  9  2 -1</clus>
<clus scale="   68.413">  5  6 -1 -1</clus>
<clus scale="   92.182">  7  8 -1 -1</clus>
<clus scale="  112.836">  1  5  2 -1</clus>
<clus scale="   62.130">  1  5  2 -1</clus>
</clustering>
</event>
<event>
 9    1  0.8429841E-005  0.1573210E+03  0.7546771E-02  0.1193606E+00
          1   -1    0    0  502    0 -0.00000000000E+00  0.00000000000E+00  0.55753284387E+03  0.55753284387E+03  0.00000000000E+00 0. -1.
         21   -1    0    0  501  502  0.00000000000E+00 -0.00000000000E+00 -0.10593314607E+03  0.10593314607E+03  0.00000000000E+00 0. -1.
        -24    2    1    2    0    0  0.19273217881E+02  0.14150287818E+03  0.33355493352E+03  0.37138368651E+03  0.79198658255E+02 0.  0.
         23    2    1    2    0    0  0.62456011497E+02 -0.10412591037E+03  0.13224618910E+03  0.20109667202E+03  0.90597231649E+02 0.  0.
         13    1    3    3    0    0  0.33457226367E+02  0.14342926081E+03  0.31669769012E+03  0.34926890182E+03  0.00000000000E+00 0. -1.
        -14    1    3    3    0    0 -0.14184008486E+02 -0.19263826287E+01  0.16857243403E+02  0.22114784691E+02  0.00000000000E+00 0.  1.
        -13    1    4    4    0    0  0.31176997469E+02 -0.51859938317E+01 -0.17096084082E+01  0.31651579172E+02  0.00000000000E+00 0. -1.
         13    1    4    4    0    0  0.31279014028E+02 -0.98939916540E+02  0.13395579751E+03  0.16944509284E+03  0.00000000000E+00 0.  1.
          2    1    1    2  501    0 -0.81729229378E+02 -0.37376967811E+02 -0.14201424820E+02  0.90985631417E+02  0.00000000000E+00 0. -1.
<scales pt_clust_5="13000.00000" pt_clust_6="13000.00000" pt_clust_7="13000.00000" pt_clust_8="13000.00000" pt_clust_9="89.87049"></scales>
<clustering>
<clus scale="   79.199">  5  6 -1 -1</clus>
<clus scale="   89.870">  2  9  1 -1</clus>
<clus scale="   90.597">  7  8 -1 -1</clus>
<clus scale="  151.045">  1  5  2 -1</clus>
<clus scale="   89.870">  2  5  1 -1</clus>
</clustering>
</event>
<event>
 9    1  0.8429841E-005  0.1457478E+03  0.7546771E-02  0.1207709E+00
         21   -1    0    0  501  502  0.00000000000E+00  0.00000000000E+00  0.14475930837E+03  0.14475930837E+03  0.00000000000E+00 0. -1.
          3   -1    0    0  502    0 -0.00000000000E+00 -0.00000000000E+00 -0.30062256906E+03  0.30062256906E+03  0.00000000000E+00 0. -1.
         23    2    1    2    0    0 -0.85431051298E+02  0.17492551733E+01 -0.21710699401E+02  0.12640083269E+03  0.90577544764E+02 0.  0.
        -24    2    1    2    0    0  0.12055567083E+03  0.10323265254E+03 -0.92594441620E+02  0.20073546489E+03  0.80810555776E+02 0.  0.
         13    1    4    4    0    0  0.11631811318E+03  0.71025317908E+02 -0.45814778161E+02  0.14378279847E+03  0.00000000000E+00 0. -1.
        -14    1    4    4    0    0  0.42375576520E+01  0.32207334634E+02 -0.46779663459E+02  0.56952666421E+02  0.00000000000E+00 0.  1.
        -11    1    3    3    0    0 -0.56087657996E+02 -0.64725741682E+00 -0.57318830805E+02  0.80197834675E+02  0.00000000000E+00 0.  1.
         11    1    3    3    0    0 -0.29343393302E+02  0.23965125901E+01  0.35608131404E+02  0.46202998011E+02  0.00000000000E+00 0. -1.
          4    1    1    2  501    0 -0.35124619531E+02 -0.10498190772E+03 -0.41558119665E+02  0.11824557985E+03  0.00000000000E+00 0. -1.
<scales pt_clust_5="13000.00000" pt_clust_6="13000.00000" pt_clust_7="13000.00000" pt_clust_8="13000.00000" pt_clust_9="110.70209"></scales>
<clustering>
<clus scale="   80.811">  5  6 -1 -1</clus>
<clus scale="   90.578">  7  8 -1 -1</clus>
<clus scale="  110.702">  1  9  2 -1</clus>
<clus scale="  139.887">  1  5  2 -1</clus>
<clus scale="  110.702">  1  5  2 -1</clus>
</clustering>
</event>
<event>
 9    1  0.8429841E-005  0.1662850E+03  0.7546771E-02  0.1183301E+00
         21   -1    0    0  501  502  0.00000000000E+00  0.00000000000E+00  0.53850480560E+03  0.53850480560E+03  0.00000000000E+00 0.  1.
          3   -1    0    0  502    0 -0.00000000000E+00 -0.00000000000E+00 -0.76620747731E+02  0.76620747731E+02  0.00000000000E+00 0. -1.
        -24    2    1    2    0    0 -0.13415660170E+03 -0.53056321063E+02  0.10807484610E+03  0.19785471831E+03  0.81568071057E+02 0.  0.
         23    2    1    2    0    0  0.10206934115E+03  0.78120526708E+02  0.33880462823E+03  0.37387792982E+03  0.92060649575E+02 0.  0.
         13    1    3    3    0    0 -0.67603553068E+02 -0.62567132435E+02  0.34947635936E+02  0.98520169032E+02  0.00000000000E+00 0. -1.
        -14    1    3    3    0    0 -0.66553048629E+02  0.95108113720E+01  0.73127210164E+02  0.99334549282E+02  0.00000000000E+00 0.  1.
        -11    1    4    4    0    0  0.71437874048E+01  0.48482284169E+02  0.17960966751E+03  0.18617518159E+03  0.00000000000E+00 0.  1.
         11    1    4    4    0    0  0.94925553746E+02  0.29638242539E+02  0.15919496073E+03  0.18770274824E+03  0.00000000000E+00 0. -1.
          4    1    1    2  501    0  0.32087260546E+02 -0.25064205646E+02  0.15004583536E+02  0.43392905193E+02  0.00000000000E+00 0. -1.
<scales pt_clust_5="13000.00000" pt_clust_6="13000.00000" pt_clust_7="13000.00000" pt_clust_8="13000.00000" pt_clust_9="40.71619"></scales>
<clustering>
<clus scale="   40.716">  1  9  2 -1</clus>
<clus scale="   81.568">  5  6 -1 -1</clus>
<clus scale="   92.061">  7  8 -1 -1</clus>
<clus scale="  160.714">  2  5  1 -1</clus>
<clus scale="   40.716">  1  5  2 -1</clus>
</clustering>
</event>
<event>
 9    1  0.8429841E-005  0.9634899E+02  0.7546771E-02  0.1293415E+00
          1   -1    0    0  502    0 -0.00000000000E+00  0.00000000000E+00  0.53427686519E+02  0.53427686519E+02  0.00000000000E+00 0. -1.
         21   -1    0    0  501  502  0.00000000000E+00 -0.00000000000E+00 -0.36133103017E+03  0.36133103017E+03  0.00000000000E+00 0.  1.
         23    2    1    2    0    0  0.34136928399E+02  0.12177110155E+02 -0.15236481275E+02  0.99051150872E+02  0.90914070612E+02 0.  0.
        -24    2    1    2    0    0 -0.12621072283E+02  0.23617711038E+01 -0.26617489735E+03  0.27861126757E+03  0.81303708462E+02 0.  0.
         11    1    4    4    0    0  0.23565160807E+02 -0.25023330121E+02 -0.81691684382E+02  0.88628523351E+02  0.00000000000E+00 0. -1.
        -12    1    4    4    0    0 -0.36186233090E+02  0.27385101224E+02 -0.18448321297E+03  0.18998274422E+03  0.00000000000E+00 0.  1.
        -11    1    3    3    0    0 -0.24335427349E+02 -0.17612152272E+02  0.48357698657E+01  0.30426725130E+02  0.00000000000E+00 0.  1.
         11    1    3    3    0    0  0.58472355748E+02  0.29789262427E+02 -0.20072251141E+02  0.68624425742E+02  0.00000000000E+00 0. -1.
          2    1    1    2  501    0 -0.21515856115E+02 -0.14538881258E+02 -0.26491965022E+02  0.37096298243E+02  0.00000000000E+00 0. -1.
<scales pt_clust_5="13000.00000" pt_clust_6="13000.00000" pt_clust_7="13000.00000" pt_clust_8="13000.00000" pt_clust_9="25.96751"></scales>
<clustering>
<clus scale="   25.968">  2  9  1 -1</clus>
<clus scale="   81.304">  5  6 -1 -1</clus>
<clus scale="   87.339">  2  5  1 -1</clus>
<clus scale="   90.914">  7  8 -1 -1</clus>
<clus scale="   25.968">  2  5  1 -1</clus>
</clustering>
</event>
<event>
 9    1  0.8429841E-005  0.1451119E+03  0.7546771E-02  0.1208581E+00
         21   -1    0    0  501  502  0.00000000000E+00  0.00000000000E+00  0.46948064605E+02  0.46948064605E+02  0.00000000000E+00 0. -1.
          1   -1    0    0  502    0 -0.00000000000E+00 -0.00000000000E+00 -0.90412218780E+03  0.90412218780E+03  0.00000000000E+00 0. -1.
         23    2    1    2    0    0 -0.10160287201E+03 -0.10645926082E+03 -0.60934845521E+03  0.63317452465E+03  0.89149991448E+02 0.  0.
        -24    2    1    2    0    0  0.70903528938E+02  0.23367807210E+02 -0.15763138562E+03  0.19147718521E+03  0.79009454469E+02 0.  0.
         13    1    4    4    0    0  0.23696268442E+02  0.87703746852E+01 -0.13461706885E+03  0.13696783504E+03  0.00000000000E+00 0. -1.
        -14    1    4    4    0    0  0.47207260496E+02  0.14597432524E+02 -0.23014316768E+02  0.54509350172E+02  0.00000000000E+00 0.  1.
        -11    1    3    3    0    0 -0.69362265536E+02 -0.35516519680E+02 -0.43881508999E+03  0.44568063707E+03  0.00000000000E+00 0. -1.
         11    1    3    3    0    0 -0.32240606473E+02 -0.70942741142E+02 -0.17053336522E+03  0.18749388758E+03  0.00000000000E+00 0.  1.
          2    1    1    2  501    0  0.30699343071E+02  0.83091453612E+02 -0.90194282367E+02  0.12641854255E+03  0.00000000000E+00 0. -1.
<scales pt_clust_5="13000.00000" pt_clust_6="13000.00000" pt_clust_7="13000.00000" pt_clust_8="13000.00000" pt_clust_9="88.58126"></scales>
<clustering>
<clus scale="   79.009">  5  6 -1 -1</clus>
<clus scale="   88.581">  1  9  2 -1</clus>
<clus scale="   89.150">  7  8 -1 -1</clus>
<clus scale="  139.112">  1  5  2 -1</clus>
<clus scale="   88.581">  1  5  2 -1</clus>
</clustering>
</event>
<event>
 9    1  0.8429841E-005  0.1571483E+03  0.7546771E-02  0.1218127E+00
         21   -1    0    0  501  502  0.00000000000E+00  0.00000000000E+00  0.16939206021E+03  0.16939206021E+03  0.00000000000E+00 0. -1.
          1   -1    0    0  502    0 -0.00000000000E+00 -0.00000000000E+00 -0.36074909882E+03  0.36074909882E+03  0.00000000000E+00 0. -1.
         23    2    1    2    0    0  0.24179877179E+02  0.16469169352E+02 -0.59476699603E+01  0.89634008537E+02  0.84516156496E+02 0.  0.
        -24    2    1    2    0    0 -0.19205354658E+02 -0.14881882300E+03 -0.24235792459E+03  0.29633948867E+03  0.81017536408E+02 0.  0.
         11    1    4    4    0    0  0.51599408072E+01 -0.12307778700E+03 -0.13255368257E+03  0.18095647379E+03  0.00000000000E+00 0. -1.
        -12    1    4    4    0    0 -0.24365295465E+02 -0.25741035996E+02 -0.10980424202E+03  0.11538301488E+03  0.00000000000E+00 0.  1.
        -13    1    3    3    0    0  0.36501804847E+02 -0.96230086581E+01 -0.32956099818E+02  0.50110762995E+02  0.00000000000E+00 0.  1.
         13    1    3    3    0    0 -0.12321927668E+02  0.26092178010E+02  0.27008429857E+02  0.39523245542E+02  0.00000000000E+00 0. -1.
          2    1    1    2  501    0 -0.49745225207E+01  0.13234965364E+03  0.56948555942E+02  0.14416766183E+03  0.00000000000E+00 0. -1.
<scales pt_clust_5="13000.00000" pt_clust_6="13000.00000" pt_clust_7="13000.00000" pt_clust_8="13000.00000" pt_clust_9="134.65414"></scales>
<clustering>
<clus scale="   81.018">  5  6 -1 -1</clus>
<clus scale="   84.516">  7  8 -1 -1</clus>
<clus scale="   89.437">  2  7  1 -1</clus>
<clus scale="  134.654">  1  9  2 -1</clus>
<clus scale="  134.654">  1  5  2 -1</clus>
</clustering>
</event>
<event>
 9    1  0.8429841E-005  0.1938475E+03  0.7546771E-02  0.1156829E+00
          1   -1    0    0  502    0 -0.00000000000E+00  0.00000000000E+00  0.10850472661E+04  0.10850472661E+04  0.00000000000E+00 0. -1.
         21   -1    0    0  501  502  0.00000000000E+00 -0.00000000000E+00 -0.10144138852E+03  0.10144138852E+03  0.00000000000E+00 0. -1.
         23    2    1    2    0    0 -0.16387570992E+03 -0.63725144664E+02  0.71159805274E+03  0.73874921669E+03  0.91991706878E+02 0.  0.
        -24    2    1    2    0    0  0.12286295908E+03  0.65285054847E+02  0.33168004634E+03  0.37531531858E+03  0.10720303222E+03 0.  0.
         13    1    4    4    0    0  0.86533607317E+02  0.89692936804E+02  0.28638894996E+03  0.31233238507E+03  0.00000000000E+00 0. -1.
        -14    1    4    4    0    0  0.36329351760E+02 -0.24407881957E+02  0.45291096387E+02  0.62982933505E+02  0.00000000000E+00 0.  1.
        -11    1    3    3    0    0 -0.35631890957E+02  0.22188660665E+02  0.11223019696E+03  0.11982314227E+03  0.00000000000E+00 0.  1.
         11    1    3    3    0    0 -0.12824381896E+03 -0.85913805328E+02  0.59936785578E+03  0.61892607442E+03  0.00000000000E+00 0. -1.
          2    1    1    2  501    0  0.41012750840E+02 -0.15599101835E+01 -0.59672221477E+02  0.72424119375E+02  0.00000000000E+00 0. -1.
<scales pt_clust_5="13000.00000" pt_clust_6="13000.00000" pt_clust_7="13000.00000" pt_clust_8="13000.00000" pt_clust_9="41.04241"></scales>
<clustering>
<clus scale="   41.042">  2  9  1 -1</clus>
<clus scale="   91.992">  7  8 -1 -1</clus>
<clus scale="  107.203">  5  6 -1 -1</clus>
<clus scale="  185.868">  1  7  2 -1</clus>
<clus scale="   41.042">  2  5  1 -1</clus>
</clustering>
</event>
<event>
 9    1  0.8429841E-005  0.1964563E+03  0.7546771E-02  0.1165021E+00
         21   -1    0    0  501  502  0.00000000000E+00  0.00000000000E+00  0.11687161554E+03  0.11687161554E+03  0.00000000000E+00 0. -1.
          1   -1    0    0  502    0 -0.00000000000E+00 -0.00000000000E+00 -0.73170821701E+03  0.73170821701E+03  0.00000000000E+00 0. -1.
        -24    2    1    2    0    0 -0.55103123469E+02  0.10694445271E+03 -0.34029486421E+03  0.37092861450E+03  0.85521764832E+02 0.  0.
         23    2    1    2    0    0  0.15005512914E+03  0.71175144073E+02 -0.13909316326E+03  0.23456935873E+03  0.89963509664E+02 0.  0.
         13    1    3    3    0    0 -0.73330944812E+02  0.53354082573E+02 -0.22110419214E+03  0.23897939111E+03  0.00000000000E+00 0. -1.
        -14    1    3    3    0    0  0.18227821343E+02  0.53590370136E+02 -0.11919067207E+03  0.13194922338E+03  0.00000000000E+00 0.  1.
        -11    1    4    4    0    0  0.14201481704E+02  0.14233783200E+02  0.12112241886E+02  0.23473156377E+02  0.00000000000E+00 0.  1.
         11    1    4    4    0    0  0.13585364744E+03  0.56941360872E+02 -0.15120540515E+03  0.21109620235E+03  0.00000000000E+00 0. -1.
          2    1    1    2  501    0 -0.94952005675E+02 -0.17811959678E+03 -0.13544857399E+03  0.24308185933E+03  0.00000000000E+00 0. -1.
<scales pt_clust_5="13000.00000" pt_clust_6="13000.00000" pt_clust_7="13000.00000" pt_clust_8="13000.00000" pt_clust_9="174.64733"></scales>
<clustering>
<clus scale="   85.522">  5  6 -1 -1</clus>
<clus scale="   89.964">  7  8 -1 -1</clus>
<clus scale="  147.606">  2  5  1 -1</clus>
<clus scale="  174.647">  1  9  2 -1</clus>
<clus scale="  174.647">  1  5  2 -1</clus>
</clustering>
</event>
<event>
 9    1  0.8429841E-005  0.3992328E+03  0.7546771E-02  0.1044125E+00
          1   -1    0    0  502    0 -0.00000000000E+00  0.00000000000E+00  0.25093542849E+03  0.25093542849E+03  0.00000000000E+00 0. -1.
         21   -1    0    0  501  502  0.00000000000E+00 -0.00000000000E+00 -0.81561319516E+03  0.81561319516E+03  0.00000000000E+00 0. -1.
        -24    2    1    2    0    0  0.24994252488E+03 -0.33815373972E+03 -0.13776758920E+03  0.44990415758E+03  0.81330344571E+02 0.  0.
         23    2    1    2    0    0 -0.23850996201E+03  0.25508938859E+03 -0.32520990941E+03  0.48483652077E+03  0.85716792648E+02 0.  0.
         13    1    3    3    0    0  0.14827693763E+03 -0.13272589161E+03 -0.68372260073E+02  0.21042095543E+03  0.00000000000E+00 0. -1.
        -14    1    3    3    0    0  0.10166558725E+03 -0.20542784811E+03 -0.69395329127E+02  0.23948320215E+03  0.00000000000E+00 0.  1.
        -13    1    4    4    0    0 -0.16170184456E+03  0.14539530202E+03 -0.24965265399E+03  0.33107964001E+03  0.00000000000E+00 0. -1.
         13    1    4    4    0    0 -0.76808117454E+02  0.10969408657E+03 -0.75557255423E+02  0.15375688076E+03  0.00000000000E+00 0.  1.
          2    1    1    2  501    0 -0.11432562868E+02  0.83064351129E+02 -0.10170026806E+03  0.13180794531E+03  0.00000000000E+00 0. -1.
<scales pt_clust_5="13000.00000" pt_clust_6="13000.00000" pt_clust_7="13000.00000" pt_clust_8="13000.00000" pt_clust_9="83.84742"></scales>
<clustering>
<clus scale="   81.330">  5  6 -1 -1</clus>
<clus scale="   83.847">  2  9  1 -1</clus>
<clus scale="   85.717">  7  8 -1 -1</clus>
<clus scale="  398.314">  1  5  2 -1</clus>
<clus scale="   83.847">  2  5  1 -1</clus>
</clustering>
</event>
<event>
 9    1  0.8429841E-005  0.1274196E+03  0.7546771E-02  0.1234600E+00
         21   -1    0    0  501  502  0.00000000000E+00  0.00000000000E+00  0.45846023786E+02  0.45846023786E+02  0.00000000000E+00 0. -1.
          1   -1    0    0  502    0 -0.00000000000E+00 -0.00000000000E+00 -0.97648545140E+03  0.97648545140E+03  0.00000000000E+00 0. -1.
        -24    2    1    2    0    0 -0.97348884633E+02  0.30772940459E+02 -0.60895685347E+03  0.62257519782E+03  0.79672130312E+02 0.  0.
         23    2    1    2    0    0  0.91274084289E+01 -0.50654549958E+02 -0.55868929388E+02  0.11898020823E+03  0.91573793544E+02 0.  0.
         13    1    3    3    0    0 -0.46529110778E+02 -0.25972469519E+02 -0.24288695671E+03  0.24866363036E+03  0.00000000000E+00 0. -1.
        -14    1    3    3    0    0 -0.50819773855E+02  0.56745409978E+02 -0.36606989676E+03  0.37391156746E+03  0.00000000000E+00 0.  1.
        -11    1    4    4    0    0  0.45386132905E+02 -0.13835573375E+02 -0.71943545845E+01  0.47990445805E+02  0.00000000000E+00 0.  1.
         11    1    4    4    0    0 -0.36258724476E+02 -0.36818976583E+02 -0.48674574803E+02  0.70989762427E+02  0.00000000000E+00 0. -1.
          2    1    1    2  501    0  0.88221476204E+02  0.19881609499E+02 -0.26581364476E+03  0.28077606914E+03  0.00000000000E+00 0. -1.
<scales pt_clust_5="13000.00000" pt_clust_6="13000.00000" pt_clust_7="13000.00000" pt_clust_8="13000.00000" pt_clust_9="90.43404"></scales>
<clustering>
<clus scale="   79.672">  5  6 -1 -1</clus>
<clus scale="   90.434">  1  9  2 -1</clus>
<clus scale="   91.574">  7  8 -1 -1</clus>
<clus scale="  119.154">  2  5  1 -1</clus>
<clus scale="   90.434">  1  5  2 -1</clus>
</clustering>
</event>
<event>
 9    1  0.8429841E-005  0.9041561E+02  0.7546771E-02  0.1306393E+00
         21   -1    0    0  501  502  0.00000000000E+00  0.00000000000E+00  0.10828612078E+03  0.10828612078E+03  0.00000000000E+00 0. -1.
         -2   -1    0    0    0  501 -0.00000000000E+00 -0.00000000000E+00 -0.19616692889E+03  0.19616692889E+03  0.00000000000E+00 0.  1.
         23    2    1    2    0    0 -0.18592139885E+02 -0.36287466960E+02 -0.15477686840E+03  0.17607733339E+03  0.73381880736E+02 0.  0.
        -24    2    1    2    0    0 -0.28442135626E+01  0.31656938698E+02  0.56358614359E+02  0.10404473176E+03  0.81478595206E+02 0.  0.
         11    1    4    4    0    0 -0.28751493212E+02  0.48203468006E+02  0.42082866347E+02  0.70151196210E+02  0.00000000000E+00 0. -1.
        -12    1    4    4    0    0  0.25907279649E+02 -0.16546529309E+02  0.14275748012E+02  0.33893535553E+02  0.00000000000E+00 0.  1.
        -13    1    3    3    0    0  0.12307422092E+02 -0.48327767343E+02 -0.10533106138E+03  0.11654045746E+03  0.00000000000E+00 0.  1.
         13    1    3    3    0    0 -0.30899561977E+02  0.12040300383E+02 -0.49445807017E+02  0.59536875928E+02  0.00000000000E+00 0. -1.
         -1    1    1    2    0  502  0.21436353448E+02  0.46305282619E+01  0.10537445928E+02  0.24330984522E+02  0.00000000000E+00 0.  1.
<scales pt_clust_5="13000.00000" pt_clust_6="13000.00000" pt_clust_7="13000.00000" pt_clust_8="13000.00000" pt_clust_9="21.93078"></scales>
<clustering>
<clus scale="   21.931">  1  9  2 -1</clus>
<clus scale="   73.382">  7  8 -1 -1</clus>
<clus scale="   81.479">  5  6 -1 -1</clus>
<clus scale="   83.193">  2  7  1 -1</clus>
<clus scale="   21.931">  1  5  2 -1</clus>
</clustering>
</event>
<event>
 9    1  0.8429841E-005  0.2148761E+03  0.7546771E-02  0.1138580E+00
         21   -1    0    0  501  502  0.00000000000E+00  0.00000000000E+00  0.68404467109E+02  0.68404467109E+02  0.00000000000E+00 0. -1.
          1   -1    0    0  502    0 -0.00000000000E+00 -0.00000000000E+00 -0.10524799074E+04  0.10524799074E+04  0.00000000000E+00 0. -1.
         23    2    1    2    0    0 -0.13959072899E+03  0.11832114067E+03 -0.55031132615E+03  0.58703070701E+03  0.90978191493E+02 0.  0.
        -24    2    1    2    0    0  0.20591718407E+03 -0.89312287286E+02 -0.34323899241E+03  0.41794202063E+03  0.80523011268E+02 0.  0.
         13    1    4    4    0    0  0.19136354138E+03 -0.10271420018E+03 -0.29973223424E+03  0.37014811107E+03  0.00000000000E+00 0. -1.
        -14    1    4    4    0    0  0.14553642694E+02  0.13401912891E+02 -0.43506758170E+02  0.47793909562E+02  0.00000000000E+00 0.  1.
        -13    1    3    3    0    0 -0.14152172258E+03  0.92213552041E+02 -0.52116018840E+03  0.54785005167E+03  0.00000000000E+00 0. -1.
         13    1    3    3    0    0  0.19309935840E+01  0.26107588633E+02 -0.29151137750E+02  0.39180655336E+02  0.00000000000E+00 0.  1.
          2    1    1    2  501    0 -0.66326455078E+02 -0.29008853388E+02 -0.90525121771E+02  0.11591164691E+03  0.00000000000E+00 0. -1.
<scales pt_clust_5="13000.00000" pt_clust_6="13000.00000" pt_clust_7="13000.00000" pt_clust_8="13000.00000" pt_clust_9="72.39276"></scales>
<clustering>
<clus scale="   72.393">  1  9  2 -1</clus>
<clus scale="   80.523">  5  6 -1 -1</clus>
<clus scale="   90.978">  7  8 -1 -1</clus>
<clus scale="  210.662">  1  5  2 -1</clus>
<clus scale="   72.393">  1  5  2 -1</clus>
</clustering>
</event>
<event>
 9    1  0.8429841E-005  0.1501624E+03  0.7546771E-02  0.1213975E+00
         21   -1    0    0  501  502  0.00000000000E+00  0.00000000000E+00  0.16492825101E+03  0.16492825101E+03  0.00000000000E+00 0. -1.
          1   -1    0    0  502    0 -0.00000000000E+00 -0.00000000000E+00 -0.32636040617E+03  0.32636040617E+03  0.00000000000E+00 0. -1.
         23    2    1    2    0    0  0.47479817736E+02 -0.45689032551E+02  0.13919093308E+02  0.11277452818E+03  0.90457350502E+02 0.  0.
        -24    2    1    2    0    0  0.25484238583E+02  0.14602315569E+03 -0.18931767664E+03  0.25367122413E+03  0.80843669197E+02 0.  0.
         11    1    4    4    0    0  0.35519828515E+02  0.57753297049E+02 -0.13069039612E+03  0.14723138652E+03  0.00000000000E+00 0. -1.
        -12    1    4    4    0    0 -0.10035589932E+02  0.88269858642E+02 -0.58627280523E+02  0.10643983761E+03  0.00000000000E+00 0.  1.
        -13    1    3    3    0    0  0.42154149404E+02  0.16607492906E+02  0.20836578804E+02  0.49869270587E+02  0.00000000000E+00 0. -1.
         13    1    3    3    0    0  0.53256683311E+01 -0.62296525457E+02 -0.69174854960E+01  0.62905257592E+02  0.00000000000E+00 0.  1.
          2    1    1    2  501    0 -0.72964056319E+02 -0.10033412314E+03  0.13966428171E+02  0.12484290487E+03  0.00000000000E+00 0. -1.
<scales pt_clust_5="13000.00000" pt_clust_6="13000.00000" pt_clust_7="13000.00000" pt_clust_8="13000.00000" pt_clust_9="126.54266"></scales>
<clustering>
<clus scale="   80.844">  5  6 -1 -1</clus>
<clus scale="   90.457">  7  8 -1 -1</clus>
<clus scale="  111.912">  2  7  1 -1</clus>
<clus scale="  126.543">  1  9  2 -1</clus>
<clus scale="  126.543">  1  5  2 -1</clus>
</clustering>
</event>
<event>
 9    1  0.8429841E-005  0.9977864E+02  0.7546771E-02  0.1286332E+00
         21   -1    0    0  501  502  0.00000000000E+00  0.00000000000E+00  0.22863121843E+02  0.22863121843E+02  0.00000000000E+00 0. -1.
         -4   -1    0    0    0  501 -0.00000000000E+00 -0.00000000000E+00 -0.10708737247E+04  0.10708737247E+04  0.00000000000E+00 0.  1.
         23    2    1    2    0    0 -0.38473155751E+01  0.17508414343E+02 -0.32363545211E+03  0.33675305001E+03  0.91331070389E+02 0.  0.
        -24    2    1    2    0    0  0.73872514372E+02 -0.52810923045E+02 -0.27101623847E+03  0.29689239374E+03  0.80306599802E+02 0.  0.
         11    1    4    4    0    0  0.33412180942E+02 -0.50726059323E+02 -0.73917658063E+02  0.95673021815E+02  0.00000000000E+00 0. -1.
        -12    1    4    4    0    0  0.40460333430E+02 -0.20848637223E+01 -0.19709858041E+03  0.20121937192E+03  0.00000000000E+00 0.  1.
        -11    1    3    3    0    0  0.41629384655E+02  0.20042627146E+02 -0.13464834031E+03  0.14235479661E+03  0.00000000000E+00 0.  1.
         11    1    3    3    0    0 -0.45476700230E+02 -0.25342128029E+01 -0.18898711180E+03  0.19439825340E+03  0.00000000000E+00 0. -1.
         -3    1    1    2    0  502 -0.70025198797E+02  0.35302508702E+02 -0.45335891229E+03  0.46009140281E+03  0.00000000000E+00 0.  1.
<scales pt_clust_5="13000.00000" pt_clust_6="13000.00000" pt_clust_7="13000.00000" pt_clust_8="13000.00000" pt_clust_9="78.42067"></scales>
<clustering>
<clus scale="   78.421">  1  9  2 -1</clus>
<clus scale="   80.307">  5  6 -1 -1</clus>
<clus scale="   89.797">  1  5  2 -1</clus>
<clus scale="   91.331">  7  8 -1 -1</clus>
<clus scale="   78.421">  1  5  2 -1</clus>
</clustering>
</event>
<event>
 9    1  0.8429841E-005  0.1248757E+03  0.7546771E-02  0.1239584E+00
         21   -1    0    0  501  502  0.00000000000E+00  0.00000000000E+00  0.73876055785E+02  0.73876055785E+02  0.00000000000E+00 0.  1.
          1   -1    0    0  502    0 -0.00000000000E+00 -0.00000000000E+00 -0.74553973280E+03  0.74553973280E+03  0.00000000000E+00 0. -1.
        -24    2    1    2    0    0 -0.29735980110E+02 -0.72453354964E+02 -0.49190001548E+03  0.50424613145E+03  0.78516359371E+02 0.  0.
         23    2    1    2    0    0 -0.16764374496E+02  0.13868320560E+03 -0.78008944008E+02  0.18515927820E+03  0.93190596029E+02 0.  0.
         11    1    3    3    0    0 -0.75661475150E+01 -0.85059576543E+02 -0.37896242172E+03  0.38846479277E+03  0.00000000000E+00 0. -1.
        -12    1    3    3    0    0 -0.22169832595E+02  0.12606221579E+02 -0.11293759376E+03  0.11578133867E+03  0.00000000000E+00 0.  1.
        -11    1    4    4    0    0 -0.44795207361E+02  0.10701658834E+03 -0.27397880842E+02  0.11920488521E+03  0.00000000000E+00 0.  1.
         11    1    4    4    0    0  0.28030832864E+02  0.31666617264E+02 -0.50611063165E+02  0.65954392991E+02  0.00000000000E+00 0. -1.
          2    1    1    2  501    0  0.46500354607E+02 -0.66229850639E+02 -0.10175471753E+03  0.13001037894E+03  0.00000000000E+00 0. -1.
<scales pt_clust_5="13000.00000" pt_clust_6="13000.00000" pt_clust_7="13000.00000" pt_clust_8="13000.00000" pt_clust_9="80.92389"></scales>
<clustering>
<clus scale="   78.516">  5  6 -1 -1</clus>
<clus scale="   80.924">  1  9  2 -1</clus>
<clus scale="   93.191">  7  8 -1 -1</clus>
<clus scale="  114.343">  2  5  1 -1</clus>
<clus scale="   80.924">  1  5  2 -1</clus>
</clustering>
</event>
<event>
 9    1  0.8429841E-005  0.1705467E+03  0.7546771E-02  0.1178935E+00
          1   -1    0    0  502    0 -0.00000000000E+00  0.00000000000E+00  0.35027433996E+03  0.35027433996E+03  0.00000000000E+00 0. -1.
         21   -1    0    0  501  502  0.00000000000E+00 -0.00000000000E+00 -0.21760091764E+03  0.21760091764E+03  0.00000000000E+00 0. -1.
        -24    2    1    2    0    0 -0.31110704084E+02 -0.13910410492E+03  0.27299673061E+03  0.31867663834E+03  0.81913106307E+02 0.  0.
         23    2    1    2    0    0  0.91422355497E+01  0.14265396811E+03 -0.14749847520E+03  0.22581704192E+03  0.93828573202E+02 0.  0.
         11    1    3    3    0    0 -0.32708346069E+02 -0.14551219497E+03  0.27403459648E+03  0.31199133779E+03  0.00000000000E+00 0. -1.
        -12    1    3    3    0    0  0.15976419847E+01  0.64080900477E+01 -0.10378658637E+01  0.66853005558E+01  0.00000000000E+00 0.  1.
        -13    1    4    4    0    0  0.42148872855E+02  0.53576380641E+02 -0.29360176775E+02  0.74222476554E+02  0.00000000000E+00 0. -1.
         13    1    4    4    0    0 -0.33006637306E+02  0.89077587470E+02 -0.11813829842E+03  0.15159456537E+03  0.00000000000E+00 0.  1.
          2    1    1    2  501    0  0.21968468534E+02 -0.35498631900E+01  0.71751669045E+01  0.23381577332E+02  0.00000000000E+00 0. -1.
<scales pt_clust_5="13000.00000" pt_clust_6="13000.00000" pt_clust_7="13000.00000" pt_clust_8="13000.00000" pt_clust_9="22.25344"></scales>
<clustering>
<clus scale="   22.253">  2  9  1 -1</clus>
<clus scale="   81.913">  5  6 -1 -1</clus>
<clus scale="   93.829">  7  8 -1 -1</clus>
<clus scale="  164.293">  1  5  2 -1</clus>
<clus scale="   22.253">  2  5  1 -1</clus>
</clustering>
</event>
<event>
 9    1  0.1175279E-004  0.1042108E+03  0.7546771E-02  0.1276494E+00
          1   -1    0    0  502    0 -0.00000000000E+00  0.00000000000E+00  0.22725419600E+03  0.22725419600E+03  0.00000000000E+00 0. -1.
         21   -1    0    0  501  502  0.00000000000E+00 -0.00000000000E+00 -0.45115030360E+03  0.45115030360E+03  0.00000000000E+00 0. -1.
        -24    2    1    2    0    0  0.43032157589E+02  0.25553985279E+02  0.20227227829E+03  0.22395688440E+03  0.82084339266E+02 0.  0.
         23    2    1    2    0    0 -0.75906076039E+01 -0.12616710864E+02 -0.15860185596E+03  0.18423413575E+03  0.92578989762E+02 0.  0.
         13    1    3    3    0    0  0.16998687515E+02  0.36266496956E+02  0.18833034005E+03  0.19254228409E+03  0.00000000000E+00 0. -1.
        -14    1    3    3    0    0  0.26033470074E+02 -0.10712511677E+02  0.13941938242E+02  0.31414600307E+02  0.00000000000E+00 0.  1.
        -13    1    4    4    0    0 -0.21711575131E+02 -0.49546731984E+02 -0.96005551897E+02  0.11019681093E+03  0.00000000000E+00 0.  1.
         13    1    4    4    0    0  0.14120967527E+02  0.36930021120E+02 -0.62596304058E+02  0.74037324813E+02  0.00000000000E+00 0. -1.
          2    1    1    2  501    0 -0.35441549985E+02 -0.12937274415E+02 -0.26756652994E+03  0.27021347946E+03  0.00000000000E+00 0. -1.
<scales pt_clust_5="13000.00000" pt_clust_6="13000.00000" pt_clust_7="13000.00000" pt_clust_8="13000.00000" pt_clust_9="37.72899"></scales>
<clustering>
<clus scale="   37.729">  2  9  1 -1</clus>
<clus scale="   82.084">  5  6 -1 -1</clus>
<clus scale="   92.579">  7  8 -1 -1</clus>
<clus scale="   95.010">  1  5  2 -1</clus>
<clus scale="   37.729">  2  5  1 -1</clus>
</clustering>
</event>
<event>
 9    1  0.8429841E-005  0.1395687E+03  0.7546771E-02  0.1217143E+00
         21   -1    0    0  501  502  0.00000000000E+00  0.00000000000E+00  0.37035037274E+02  0.37035037274E+02  0.00000000000E+00 0.  1.
          1   -1    0    0  502    0 -0.00000000000E+00 -0.00000000000E+00 -0.10928954172E+04  0.10928954172E+04  0.00000000000E+00 0. -1.
         23    2    1    2    0    0 -0.43715654601E+02 -0.67725838826E+02 -0.30152332549E+03  0.32551098694E+03  0.92429644092E+02 0.  0.
        -24    2    1    2    0    0  0.14006602318E+03  0.28433809542E+02 -0.56965220576E+03  0.59243892497E+03  0.77802775761E+02 0.  0.
         13    1    4    4    0    0  0.16834003255E+02  0.35115872585E+02 -0.15442498607E+03  0.15925948793E+03  0.00000000000E+00 0. -1.
        -14    1    4    4    0    0  0.12323201993E+03 -0.66820630432E+01 -0.41522721969E+03  0.43317943704E+03  0.00000000000E+00 0.  1.
        -13    1    3    3    0    0 -0.26312808619E+02  0.17019011285E+02 -0.12581792677E+03  0.12966171887E+03  0.00000000000E+00 0.  1.
         13    1    3    3    0    0 -0.17402845981E+02 -0.84744850111E+02 -0.17570539872E+03  0.19584926808E+03  0.00000000000E+00 0. -1.
          2    1    1    2  501    0 -0.96350368583E+02  0.39292029284E+02 -0.18468484866E+03  0.21198054254E+03  0.00000000000E+00 0. -1.
<scales pt_clust_5="13000.00000" pt_clust_6="13000.00000" pt_clust_7="13000.00000" pt_clust_8="13000.00000" pt_clust_9="104.05411"></scales>
<clustering>
<clus scale="   77.803">  5  6 -1 -1</clus>
<clus scale="   92.430">  7  8 -1 -1</clus>
<clus scale="  104.054">  1  9  2 -1</clus>
<clus scale="  130.344">  1  5  2 -1</clus>
<clus scale="  104.054">  1  5  2 -1</clus>
</clustering>
</event>
<event>
 9    1  0.8429841E-005  0.2453510E+03  0.7546771E-02  0.1116894E+00
         21   -1    0    0  501  502  0.00000000000E+00  0.00000000000E+00  0.24173048461E+04  0.24173048461E+04  0.00000000000E+00 0. -1.
          3   -1    0    0  502    0 -0.00000000000E+00 -0.00000000000E+00 -0.40404291136E+02  0.40404291136E+02  0.00000000000E+00 0. -1.
         23    2    1    2    0    0  0.19772491583E+03 -0.92174144360E+02  0.64583138401E+03  0.68774225892E+03  0.91104461558E+02 0.  0.
        -24    2    1    2    0    0 -0.22681130263E+03  0.11145296151E+03  0.17072321516E+04  0.17277070371E+04  0.80404333844E+02 0.  0.
         11    1    4    4    0    0 -0.17720914508E+03  0.89227885834E+02  0.10760131882E+04  0.10941522188E+04  0.00000000000E+00 0. -1.
        -12    1    4    4    0    0 -0.49602157553E+02  0.22225075677E+02  0.63121896343E+03  0.63355481832E+03  0.00000000000E+00 0.  1.
        -11    1    3    3    0    0  0.25932596366E+02  0.16496288633E+02  0.12304920248E+03  0.12682954436E+03  0.00000000000E+00 0.  1.
         11    1    3    3    0    0  0.17179231946E+03 -0.10867043299E+03  0.52278218153E+03  0.56091271456E+03  0.00000000000E+00 0. -1.
          4    1    1    2  501    0  0.29086386804E+02 -0.19278817151E+02  0.23837019338E+02  0.42259841208E+02  0.00000000000E+00 0. -1.
<scales pt_clust_5="13000.00000" pt_clust_6="13000.00000" pt_clust_7="13000.00000" pt_clust_8="13000.00000" pt_clust_9="34.89544"></scales>
<clustering>
<clus scale="   34.895">  1  9  2 -1</clus>
<clus scale="   80.404">  5  6 -1 -1</clus>
<clus scale="   91.104">  7  8 -1 -1</clus>
<clus scale="  241.582">  1  5  2 -1</clus>
<clus scale="   34.895">  1  5  2 -1</clus>
</clustering>
</event>
<event>
 9    1  0.8429841E-005  0.1872383E+03  0.7546771E-02  0.1162036E+00
         21   -1    0    0  501  502  0.00000000000E+00  0.00000000000E+00  0.19753439565E+03  0.19753439565E+03  0.00000000000E+00 0. -1.
          1   -1    0    0  502    0 -0.00000000000E+00 -0.00000000000E+00 -0.36564101048E+03  0.36564101048E+03  0.00000000000E+00 0. -1.
        -24    2    1    2    0    0  0.82842345827E+02 -0.15229221134E+03 -0.14346439956E+03  0.23931786329E+03  0.81456944752E+02 0.  0.
         23    2    1    2    0    0 -0.42729854108E+02  0.12841233591E+03  0.99558587066E+02  0.19117333223E+03  0.91212730757E+02 0.  0.
         13    1    3    3    0    0 -0.15823842793E+02 -0.13910780284E+02 -0.21703936897E+02  0.30248383191E+02  0.00000000000E+00 0. -1.
        -14    1    3    3    0    0  0.98666188620E+02 -0.13838143106E+03 -0.12176046267E+03  0.20906948010E+03  0.00000000000E+00 0.  1.
        -11    1    4    4    0    0 -0.28605645347E+02 -0.13221506428E+01  0.29166966372E+01  0.28784338577E+02  0.00000000000E+00 0.  1.
         11    1    4    4    0    0 -0.14124208760E+02  0.12973448656E+03  0.96641890429E+02  0.16238899366E+03  0.00000000000E+00 0. -1.
          2    1    1    2  501    0 -0.40112491719E+02  0.23879875427E+02 -0.12420080234E+03  0.13268421061E+03  0.00000000000E+00 0. -1.
<scales pt_clust_5="13000.00000" pt_clust_6="13000.00000" pt_clust_7="13000.00000" pt_clust_8="13000.00000" pt_clust_9="46.68257"></scales>
<clustering>
<clus scale="   46.683">  1  9  2 -1</clus>
<clus scale="   81.457">  5  6 -1 -1</clus>
<clus scale="   91.213">  7  8 -1 -1</clus>
<clus scale="  182.685">  2  5  1 -1</clus>
<clus scale="   46.683">  1  5  2 -1</clus>
</clustering>
</event>
<event>
 9    1  0.8429841E-005  0.1239341E+03  0.7546771E-02  0.1239945E+00
         -2   -1    0    0    0  501 -0.00000000000E+00  0.00000000000E+00  0.32939575646E+03  0.32939575646E+03  0.00000000000E+00 0.  1.
         21   -1    0    0  501  502  0.00000000000E+00 -0.00000000000E+00 -0.86308307868E+02  0.86308307868E+02  0.00000000000E+00 0. -1.
        -24    2    1    2    0    0 -0.75391863991E+02  0.57011080531E+02  0.11392088865E+03  0.16826984988E+03  0.80016104933E+02 0.  0.
         23    2    1    2    0    0  0.87899739988E+02  0.22862259164E+02  0.64108369428E+02  0.14366155182E+03  0.90992918714E+02 0.  0.
         11    1    3    3    0    0 -0.41204045676E+02  0.66047232256E+02  0.42783522403E+02  0.88828149018E+02  0.00000000000E+00 0. -1.
        -12    1    3    3    0    0 -0.34187818315E+02 -0.90361517255E+01  0.71137366252E+02  0.79441700865E+02  0.00000000000E+00 0.  1.
        -13    1    4    4    0    0  0.15450025708E+02  0.48338875703E+02  0.34443796587E+02  0.61332905702E+02  0.00000000000E+00 0.  1.
         13    1    4    4    0    0  0.72449714280E+02 -0.25476616538E+02  0.29664572841E+02  0.82328646116E+02  0.00000000000E+00 0. -1.
         -1    1    1    2    0  502 -0.12507875997E+02 -0.79873339695E+02  0.65058190506E+02  0.10377266262E+03  0.00000000000E+00 0.  1.
<scales pt_clust_5="13000.00000" pt_clust_6="13000.00000" pt_clust_7="13000.00000" pt_clust_8="13000.00000" pt_clust_9="80.84679"></scales>
<clustering>
<clus scale="   80.016">  5  6 -1 -1</clus>
<clus scale="   80.847">  2  9  1 -1</clus>
<clus scale="   90.993">  7  8 -1 -1</clus>
<clus scale="  116.114">  1  5  2 -1</clus>
<clus scale="   80.847">  2  5  1 -1</clus>
</clustering>
</event>
<event>
 9    1  0.8429841E-005  0.1006778E+03  0.7546771E-02  0.1289159E+00
         21   -1    0    0  501  502  0.00000000000E+00  0.00000000000E+00  0.30655954671E+02  0.30655954671E+02  0.00000000000E+00 0. -1.
          1   -1    0    0  502    0 -0.00000000000E+00 -0.00000000000E+00 -0.51007676991E+03  0.51007676991E+03  0.00000000000E+00 0. -1.
         23    2    1    2    0    0  0.27857883306E+02  0.14345325353E+02 -0.36145297678E+03  0.37581700889E+03  0.98022036913E+02 0.  0.
        -24    2    1    2    0    0 -0.10787353974E+02  0.13035426013E+02 -0.96020200701E+02  0.12589255180E+03  0.79641486172E+02 0.  0.
         13    1    4    4    0    0 -0.42142055873E+02  0.39745432035E+01 -0.28888149736E+02  0.51247195650E+02  0.00000000000E+00 0. -1.
        -14    1    4    4    0    0  0.31354701899E+02  0.90608828097E+01 -0.67132050965E+02  0.74645356153E+02  0.00000000000E+00 0.  1.
        -11    1    3    3    0    0  0.64619555630E+02  0.86491668681E+01 -0.21162545648E+03  0.22144035063E+03  0.00000000000E+00 0. -1.
         11    1    3    3    0    0 -0.36761672324E+02  0.56961584848E+01 -0.14982752031E+03  0.15437665826E+03  0.00000000000E+00 0.  1.
          2    1    1    2  501    0 -0.17070529331E+02 -0.27380751366E+02 -0.21947637751E+02  0.39023163889E+02  0.00000000000E+00 0. -1.
<scales pt_clust_5="13000.00000" pt_clust_6="13000.00000" pt_clust_7="13000.00000" pt_clust_8="13000.00000" pt_clust_9="32.26621"></scales>
<clustering>
<clus scale="   32.266">  1  9  2 -1</clus>
<clus scale="   79.641">  5  6 -1 -1</clus>
<clus scale="   82.888">  1  5  2 -1</clus>
<clus scale="   98.022">  7  8 -1 -1</clus>
<clus scale="   32.266">  1  5  2 -1</clus>
</clustering>
</event>
<event>
 9    1  0.8429841E-005  0.1411876E+03  0.7546771E-02  0.1237410E+00
          1   -1    0    0  502    0 -0.00000000000E+00  0.00000000000E+00  0.39277144632E+03  0.39277144632E+03  0.00000000000E+00 0. -1.
         21   -1    0    0  501  502  0.00000000000E+00 -0.00000000000E+00 -0.80846888578E+02  0.80846888578E+02  0.00000000000E+00 0. -1.
        -24    2    1    2    0    0  0.10689819068E+02 -0.20314822673E+02  0.16352171923E+03  0.18324207426E+03  0.79443947953E+02 0.  0.
         23    2    1    2    0    0  0.10095690574E+03  0.24301195817E+01  0.84310721400E+02  0.16040452048E+03  0.91777503508E+02 0.  0.
         11    1    3    3    0    0  0.42821129932E+02 -0.16325356830E+01  0.11025528532E+03  0.11829007686E+03  0.00000000000E+00 0. -1.
        -12    1    3    3    0    0 -0.32131310864E+02 -0.18682286990E+02  0.53266433905E+02  0.64951997398E+02  0.00000000000E+00 0.  1.
        -11    1    4    4    0    0  0.16703787762E+02 -0.38100941931E+02  0.15826464556E+02  0.44510395213E+02  0.00000000000E+00 0. -1.
         11    1    4    4    0    0  0.84253117977E+02  0.40531061513E+02  0.68484256844E+02  0.11589412527E+03  0.00000000000E+00 0.  1.
          2    1    1    2  501    0 -0.11164672481E+03  0.17884703092E+02  0.64092117118E+02  0.12997174016E+03  0.00000000000E+00 0. -1.
<scales pt_clust_5="13000.00000" pt_clust_6="13000.00000" pt_clust_7="13000.00000" pt_clust_8="13000.00000" pt_clust_9="107.28864"></scales>
<clustering>
<clus scale="   79.444">  5  6 -1 -1</clus>
<clus scale="   82.694">  1  5  2 -1</clus>
<clus scale="   91.778">  7  8 -1 -1</clus>
<clus scale="  107.289">  2  9  1 -1</clus>
<clus scale="  107.289">  2  5  1 -1</clus>
</clustering>
</event>
<event>
 9    1  0.8429841E-005  0.9398552E+02  0.7546771E-02  0.1303908E+00
         21   -1    0    0  501  502  0.00000000000E+00  0.00000000000E+00  0.19904856985E+03  0.19904856985E+03  0.00000000000E+00 0.  1.
          1   -1    0    0  502    0 -0.00000000000E+00 -0.00000000000E+00 -0.15860879604E+03  0.15860879604E+03  0.00000000000E+00 0. -1.
         23    2    1    2    0    0 -0.15369272111E+02  0.11714569102E+02 -0.12929269985E+03  0.16002277630E+03  0.92288899901E+02 0.  0.
        -24    2    1    2    0    0 -0.55007330890E+01 -0.92676997756E+01  0.15240723040E+03  0.17040026674E+03  0.75446263683E+02 0.  0.
         13    1    4    4    0    0  0.29664265286E+02  0.15122304069E+02  0.71467511764E+02  0.78843249255E+02  0.00000000000E+00 0. -1.
        -14    1    4    4    0    0 -0.35164998375E+02 -0.24390003844E+02  0.80939718637E+02  0.91557017488E+02  0.00000000000E+00 0.  1.
        -13    1    3    3    0    0  0.29519432536E+02 -0.22965072908E+02 -0.56058431267E+02  0.67389459020E+02  0.00000000000E+00 0. -1.
         13    1    3    3    0    0 -0.44888704647E+02  0.34679642010E+02 -0.73234268585E+02  0.92633317278E+02  0.00000000000E+00 0.  1.
          2    1    1    2  501    0  0.20870005200E+02 -0.24468693266E+01  0.17325243263E+02  0.27234322843E+02  0.00000000000E+00 0. -1.
<scales pt_clust_5="13000.00000" pt_clust_6="13000.00000" pt_clust_7="13000.00000" pt_clust_8="13000.00000" pt_clust_9="21.01296"></scales>
<clustering>
<clus scale="   21.013">  1  9  2 -1</clus>
<clus scale="   75.446">  5  6 -1 -1</clus>
<clus scale="   77.512">  1  5  2 -1</clus>
<clus scale="   92.289">  7  8 -1 -1</clus>
<clus scale="   21.013">  1  5  2 -1</clus>
</clustering>
</event>
<event>
 9    1  0.8429841E-005  0.1530038E+03  0.7546771E-02  0.1198511E+00
         -2   -1    0    0    0  501 -0.00000000000E+00  0.00000000000E+00  0.11482119158E+04  0.11482119158E+04  0.00000000000E+00 0.  1.
         21   -1    0    0  501  502  0.00000000000E+00 -0.00000000000E+00 -0.30643886628E+02  0.30643886628E+02  0.00000000000E+00 0. -1.
        -24    2    1    2    0    0  0.12407393418E+03 -0.10285973894E+02  0.77925509669E+03  0.79339400197E+03  0.82069447658E+02 0.  0.
         23    2    1    2    0    0 -0.11832558398E+03 -0.22563589667E+02  0.27360815042E+03  0.31266862648E+03  0.91597983653E+02 0.  0.
         11    1    3    3    0    0  0.56822405938E+02 -0.82482510423E+01  0.15103005769E+03  0.16157629092E+03  0.00000000000E+00 0. -1.
        -12    1    3    3    0    0  0.67251528240E+02 -0.20377228517E+01  0.62822503901E+03  0.63181771105E+03  0.00000000000E+00 0.  1.
        -13    1    4    4    0    0 -0.48218093716E+01  0.23573670598E+02  0.80076652171E+02  0.83613623376E+02  0.00000000000E+00 0.  1.
         13    1    4    4    0    0 -0.11350377461E+03 -0.46137260265E+02  0.19353149825E+03  0.22905500311E+03  0.00000000000E+00 0. -1.
         -1    1    1    2    0  502 -0.57483501950E+01  0.32849563561E+02  0.64704782096E+02  0.72793174008E+02  0.00000000000E+00 0.  1.
<scales pt_clust_5="13000.00000" pt_clust_6="13000.00000" pt_clust_7="13000.00000" pt_clust_8="13000.00000" pt_clust_9="33.34872"></scales>
<clustering>
<clus scale="   33.349">  2  9  1 -1</clus>
<clus scale="   82.069">  5  6 -1 -1</clus>
<clus scale="   91.598">  7  8 -1 -1</clus>
<clus scale="  147.497">  1  5  2 -1</clus>
<clus scale="   33.349">  2  5  1 -1</clus>
</clustering>
</event>
<event>
 9    1  0.8429841E-005  0.1032324E+03  0.7546771E-02  0.1277845E+00
         21   -1    0    0  501  502  0.00000000000E+00  0.00000000000E+00  0.63087142933E+02  0.63087142933E+02  0.00000000000E+00 0. -1.
         -2   -1    0    0    0  501 -0.00000000000E+00 -0.00000000000E+00 -0.44611701104E+03  0.44611701104E+03  0.00000000000E+00 0.  1.
        -24    2    1    2    0    0  0.49539124652E+02 -0.18253699877E+02 -0.37853568696E+03  0.39068246009E+03  0.80970339557E+02 0.  0.
         23    2    1    2    0    0 -0.29756174017E+02  0.10824327040E+02 -0.11368442606E+02  0.96299718556E+02  0.90231914303E+02 0.  0.
         11    1    3    3    0    0 -0.51375740541E+01 -0.28599688788E+02 -0.53165431230E+02  0.60587952134E+02  0.00000000000E+00 0. -1.
        -12    1    3    3    0    0  0.54676698706E+02  0.10345988911E+02 -0.32537025573E+03  0.33009450796E+03  0.00000000000E+00 0.  1.
        -13    1    4    4    0    0  0.10520487677E+02  0.23035717841E+02  0.28640155165E+02  0.38230661063E+02  0.00000000000E+00 0. -1.
         13    1    4    4    0    0 -0.40276661694E+02 -0.12211390801E+02 -0.40008597772E+02  0.58069057493E+02  0.00000000000E+00 0.  1.
         -1    1    1    2    0  502 -0.19782950636E+02  0.74293728372E+01  0.68742614640E+01  0.22221975324E+02  0.00000000000E+00 0.  1.
<scales pt_clust_5="13000.00000" pt_clust_6="13000.00000" pt_clust_7="13000.00000" pt_clust_8="13000.00000" pt_clust_9="21.13198"></scales>
<clustering>
<clus scale="   21.132">  1  9  2 -1</clus>
<clus scale="   80.970">  5  6 -1 -1</clus>
<clus scale="   90.232">  7  8 -1 -1</clus>
<clus scale="   95.243">  2  5  1 -1</clus>
<clus scale="   21.132">  1  5  2 -1</clus>
</clustering>
</event>
<event>
 9    1  0.8429841E-005  0.1947923E+03  0.7546771E-02  0.1155181E+00
          1   -1    0    0  502    0 -0.00000000000E+00  0.00000000000E+00  0.13120759603E+03  0.13120759603E+03  0.00000000000E+00 0. -1.
         21   -1    0    0  501  502  0.00000000000E+00 -0.00000000000E+00 -0.53061191513E+03  0.53061191513E+03  0.00000000000E+00 0. -1.
        -24    2    1    2    0    0 -0.79914298911E+02 -0.15297058196E+03 -0.65035408299E+02  0.20154952843E+03  0.81279234516E+02 0.  0.
         23    2    1    2    0    0 -0.11327958056E+02  0.18953735898E+03 -0.27142108127E+03  0.34354505874E+03  0.91110213157E+02 0.  0.
         11    1    3    3    0    0 -0.70177825419E+02 -0.12266169716E+03 -0.14819418297E+02  0.14209304800E+03  0.00000000000E+00 0. -1.
        -12    1    3    3    0    0 -0.97364734919E+01 -0.30308884801E+02 -0.50215990002E+02  0.59456480436E+02  0.00000000000E+00 0.  1.
        -13    1    4    4    0    0 -0.41851984546E+02  0.93609992957E+02 -0.91752278946E+02  0.13759687527E+03  0.00000000000E+00 0.  1.
         13    1    4    4    0    0  0.30524026490E+02  0.95927366026E+02 -0.17966880232E+03  0.20594818347E+03  0.00000000000E+00 0. -1.
          2    1    1    2  501    0  0.91242256967E+02 -0.36566777023E+02 -0.62947829533E+02  0.11672492399E+03  0.00000000000E+00 0. -1.
<scales pt_clust_5="13000.00000" pt_clust_6="13000.00000" pt_clust_7="13000.00000" pt_clust_8="13000.00000" pt_clust_9="98.29694"></scales>
<clustering>
<clus scale="   81.279">  5  6 -1 -1</clus>
<clus scale="   91.110">  7  8 -1 -1</clus>
<clus scale="   98.297">  2  9  1 -1</clus>
<clus scale="  190.392">  1  5  2 -1</clus>
<clus scale="   98.297">  2  5  1 -1</clus>
</clustering>
</event>
<event>
 9    1  0.8429841E-005  0.1430101E+03  0.7546771E-02  0.1213694E+00
          1   -1    0    0  502    0 -0.00000000000E+00  0.00000000000E+00  0.15793449982E+03  0.15793449982E+03  0.00000000000E+00 0. -1.
         21   -1    0    0  501  502  0.00000000000E+00 -0.00000000000E+00 -0.42510173223E+03  0.42510173223E+03  0.00000000000E+00 0.  1.
        -24    2    1    2    0    0 -0.10080991879E+03 -0.95311239189E+01  0.10561037573E+03  0.16860895786E+03  0.83797059373E+02 0.  0.
         23    2    1    2    0    0  0.80045671886E+02  0.36165233958E+02 -0.34584756134E+03  0.37123286265E+03  0.10241127328E+03 0.  0.
         13    1    3    3    0    0 -0.11099638243E+03 -0.74653448246E+01  0.11078281531E+03  0.15699923711E+03  0.00000000000E+00 0. -1.
        -14    1    3    3    0    0  0.10186463640E+02 -0.20657790943E+01 -0.51724395759E+01  0.11609720751E+02  0.00000000000E+00 0.  1.
        -11    1    4    4    0    0 -0.10830468303E+02  0.40789515586E+02 -0.83619668057E+02  0.93666069157E+02  0.00000000000E+00 0. -1.
         11    1    4    4    0    0  0.90876140188E+02 -0.46242816275E+01 -0.26222789328E+03  0.27756679350E+03  0.00000000000E+00 0.  1.
          2    1    1    2  501    0  0.20764246903E+02 -0.26634110039E+02 -0.26930046799E+02  0.43194411532E+02  0.00000000000E+00 0. -1.
<scales pt_clust_5="13000.00000" pt_clust_6="13000.00000" pt_clust_7="13000.00000" pt_clust_8="13000.00000" pt_clust_9="33.77173"></scales>
<clustering>
<clus scale="   33.772">  2  9  1 -1</clus>
<clus scale="   83.797">  5  6 -1 -1</clus>
<clus scale="  102.411">  7  8 -1 -1</clus>
<clus scale="  130.329">  1  5  2 -1</clus>
<clus scale="   33.772">  2  5  1 -1</clus>
</clustering>
</event>
<event>
 9    1  0.8429841E-005  0.3241252E+03  0.7546771E-02  0.1099124E+00
          1   -1    0    0  502    0 -0.00000000000E+00  0.00000000000E+00  0.61038697525E+03  0.61038697525E+03  0.00000000000E+00 0. -1.
         21   -1    0    0  501  502  0.00000000000E+00 -0.00000000000E+00 -0.57836626204E+03  0.57836626204E+03  0.00000000000E+00 0.  1.
        -24    2    1    2    0    0  0.29225501693E+02 -0.14025620491E+03  0.37774132263E+03  0.41222357429E+03  0.81937997356E+02 0.  0.
         23    2    1    2    0    0  0.10926458527E+03 -0.24072255685E+03 -0.20595255884E+03  0.34774133635E+03  0.92851933421E+02 0.  0.
         11    1    3    3    0    0  0.57415309902E+02 -0.10618428462E+03  0.28301453641E+03  0.30768303159E+03  0.00000000000E+00 0. -1.
        -12    1    3    3    0    0 -0.28189808208E+02 -0.34071920296E+02  0.94726786224E+02  0.10454054270E+03  0.00000000000E+00 0.  1.
        -11    1    4    4    0    0  0.84136533855E+02 -0.23992148363E+03 -0.19451618962E+03  0.32012157481E+03  0.00000000000E+00 0.  1.
         11    1    4    4    0    0  0.25128051415E+02 -0.80107322190E+00 -0.11436369218E+02  0.27619761533E+02  0.00000000000E+00 0. -1.
          2    1    1    2  501    0 -0.13849008696E+03  0.38097876177E+03 -0.13976805058E+03  0.42878832665E+03  0.00000000000E+00 0. -1.
<scales pt_clust_5="13000.00000" pt_clust_6="13000.00000" pt_clust_7="13000.00000" pt_clust_8="13000.00000" pt_clust_9="310.54108"></scales>
<clustering>
<clus scale="   81.938">  5  6 -1 -1</clus>
<clus scale="   92.852">  7  8 -1 -1</clus>
<clus scale="  165.045">  1  5  2 -1</clus>
<clus scale="  310.541">  2  9  1 -1</clus>
<clus scale="  310.541">  2  5  1 -1</clus>
</clustering>
</event>
<event>
 9    1  0.8429841E-005  0.1190847E+03  0.7546771E-02  0.1250341E+00
          1   -1    0    0  502    0 -0.00000000000E+00  0.00000000000E+00  0.16427116307E+04  0.16427116307E+04  0.00000000000E+00 0. -1.
         21   -1    0    0  501  502  0.00000000000E+00 -0.00000000000E+00 -0.19388159425E+02  0.19388159425E+02  0.00000000000E+00 0. -1.
        -24    2    1    2    0    0 -0.53915775641E+02  0.21900723336E+02  0.59516429061E+03  0.60339764561E+03  0.80508591848E+02 0.  0.
         23    2    1    2    0    0  0.11345161369E+03  0.31170058116E+02  0.45112025957E+03  0.47617751816E+03  0.96915937989E+02 0.  0.
         11    1    3    3    0    0 -0.13139790433E+02 -0.20401180412E+02  0.55872522706E+02  0.60914703056E+02  0.00000000000E+00 0. -1.
        -12    1    3    3    0    0 -0.40775985208E+02  0.42301903748E+02  0.53929176790E+03  0.54248294255E+03  0.00000000000E+00 0.  1.
        -11    1    4    4    0    0  0.97830977614E+02  0.60256475038E+02  0.39166439881E+03  0.40816999432E+03  0.00000000000E+00 0. -1.
         11    1    4    4    0    0  0.15620636071E+02 -0.29086416923E+02  0.59455860757E+02  0.68007523841E+02  0.00000000000E+00 0.  1.
          2    1    1    2  501    0 -0.59535838044E+02 -0.53070781452E+02  0.57703892114E+03  0.58252462640E+03  0.00000000000E+00 0. -1.
<scales pt_clust_5="13000.00000" pt_clust_6="13000.00000" pt_clust_7="13000.00000" pt_clust_8="13000.00000" pt_clust_9="79.75607"></scales>
<clustering>
<clus scale="   79.756">  2  9  1 -1</clus>
<clus scale="   80.509">  5  6 -1 -1</clus>
<clus scale="   96.916">  7  8 -1 -1</clus>
<clus scale="  106.161">  1  5  2 -1</clus>
<clus scale="   79.756">  2  5  1 -1</clus>
</clustering>
</event>
<event>
 9    1  0.8429841E-005  0.2158232E+03  0.7546771E-02  0.1137907E+00
         21   -1    0    0  501  502  0.00000000000E+00  0.00000000000E+00  0.15793924182E+03  0.15793924182E+03  0.00000000000E+00 0.  1.
          1   -1    0    0  502    0 -0.00000000000E+00 -0.00000000000E+00 -0.52552581809E+03  0.52552581809E+03  0.00000000000E+00 0. -1.
         23    2    1    2    0    0  0.80458996847E+02  0.16840141568E+03 -0.23439577505E+03  0.31328624758E+03  0.91510691114E+02 0.  0.
        -24    2    1    2    0    0 -0.41342288117E+02 -0.22148863762E+03 -0.21096501834E+02  0.24012689196E+03  0.80308532988E+02 0.  0.
         11    1    4    4    0    0 -0.63492326669E+02 -0.18108032440E+03 -0.73112931067E+01  0.19202816053E+03  0.00000000000E+00 0. -1.
        -12    1    4    4    0    0  0.22150038552E+02 -0.40408313221E+02 -0.13785208727E+02  0.48098731427E+02  0.00000000000E+00 0.  1.
        -11    1    3    3    0    0  0.92863512683E+01  0.11383525819E+03 -0.10052284017E+03  0.15214974113E+03  0.00000000000E+00 0.  1.
         11    1    3    3    0    0  0.71172645579E+02  0.54566157483E+02 -0.13387293488E+03  0.16113650646E+03  0.00000000000E+00 0. -1.
          2    1    1    2  501    0 -0.39116708730E+02  0.53087221944E+02 -0.11209429939E+03  0.13005192037E+03  0.00000000000E+00 0. -1.
<scales pt_clust_5="13000.00000" pt_clust_6="13000.00000" pt_clust_7="13000.00000" pt_clust_8="13000.00000" pt_clust_9="65.94220"></scales>
<clustering>
<clus scale="   65.942">  1  9  2 -1</clus>
<clus scale="   80.309">  5  6 -1 -1</clus>
<clus scale="   91.511">  7  8 -1 -1</clus>
<clus scale="  211.317">  1  5  2 -1</clus>
<clus scale="   65.942">  1  5  2 -1</clus>
</clustering>
</event>
<event>
 9    1  0.8429841E-005  0.2653964E+03  0.7546771E-02  0.1149425E+00
         -2   -1    0    0    0  501 -0.00000000000E+00  0.00000000000E+00  0.30238505607E+03  0.30238505607E+03  0.00000000000E+00 0.  1.
         21   -1    0    0  501  502  0.00000000000E+00 -0.00000000000E+00 -0.41038542169E+03  0.41038542169E+03  0.00000000000E+00 0.  1.
        -24    2    1    2    0    0 -0.12610024385E+02  0.22150351260E+02  0.11499391084E+03  0.14373496283E+03  0.82380150723E+02 0.  0.
         23    2    1    2    0    0  0.27372135029E+02 -0.25634642616E+03 -0.18556533563E+03  0.33140839732E+03  0.94521468724E+02 0.  0.
         13    1    3    3    0    0 -0.19776644003E+01 -0.25010750155E+02  0.80572103809E+02  0.84387870526E+02  0.00000000000E+00 0. -1.
        -14    1    3    3    0    0 -0.10632359985E+02  0.47161101416E+02  0.34421807036E+02  0.59347092306E+02  0.00000000000E+00 0.  1.
        -13    1    4    4    0    0  0.20963359987E+02 -0.21951002889E+03 -0.10851081195E+03  0.24576149323E+03  0.00000000000E+00 0.  1.
         13    1    4    4    0    0  0.64087750423E+01 -0.36836397264E+02 -0.77054523675E+02  0.85646904088E+02  0.00000000000E+00 0. -1.
         -1    1    1    2    0  502 -0.14762110644E+02  0.23419607490E+03 -0.37428940838E+02  0.23762711760E+03  0.00000000000E+00 0.  1.
<scales pt_clust_5="13000.00000" pt_clust_6="13000.00000" pt_clust_7="13000.00000" pt_clust_8="13000.00000" pt_clust_9="247.99392"></scales>
<clustering>
<clus scale="   82.380">  5  6 -1 -1</clus>
<clus scale="   86.233">  1  5  2 -1</clus>
<clus scale="   94.521">  7  8 -1 -1</clus>
<clus scale="  247.994">  2  9  1 -1</clus>
<clus scale="  247.994">  2  5  1 -1</clus>
</clustering>
</event>
<event>
 9    1  0.8429841E-005  0.1044347E+03  0.7546771E-02  0.1276712E+00
         21   -1    0    0  501  502  0.00000000000E+00  0.00000000000E+00  0.62875521945E+02  0.62875521945E+02  0.00000000000E+00 0. -1.
          1   -1    0    0  502    0 -0.00000000000E+00 -0.00000000000E+00 -0.41128031202E+03  0.41128031202E+03  0.00000000000E+00 0. -1.
         23    2    1    2    0    0 -0.32320440544E+02 -0.35621855144E+02 -0.32471658910E+03  0.34071592891E+03  0.91285012645E+02 0.  0.
        -24    2    1    2    0    0  0.26526739307E+02  0.61021197600E+02 -0.27791356804E+02  0.10706701256E+03  0.79143737655E+02 0.  0.
         11    1    4    4    0    0  0.22330707116E+02  0.26738285495E+02 -0.53617106439E+02  0.63940523101E+02  0.00000000000E+00 0. -1.
        -12    1    4    4    0    0  0.41960321912E+01  0.34282912105E+02  0.25825749636E+02  0.43126489456E+02  0.00000000000E+00 0.  1.
        -13    1    3    3    0    0 -0.18278925239E+02 -0.60843707684E+02 -0.28262037745E+03  0.28967283894E+03  0.00000000000E+00 0. -1.
         13    1    3    3    0    0 -0.14041515305E+02  0.25221852540E+02 -0.42096211649E+02  0.51043089961E+02  0.00000000000E+00 0.  1.
          2    1    1    2  501    0  0.57937012368E+01 -0.25399342455E+02  0.41031558271E+01  0.26372892502E+02  0.00000000000E+00 0. -1.
<scales pt_clust_5="13000.00000" pt_clust_6="13000.00000" pt_clust_7="13000.00000" pt_clust_8="13000.00000" pt_clust_9="26.05175"></scales>
<clustering>
<clus scale="   26.052">  1  9  2 -1</clus>
<clus scale="   79.144">  5  6 -1 -1</clus>
<clus scale="   91.285">  7  8 -1 -1</clus>
<clus scale="   94.007">  1  5  2 -1</clus>
<clus scale="   26.052">  1  5  2 -1</clus>
</clustering>
</event>
<event>
 9    1  0.8429841E-005  0.1190311E+03  0.7546771E-02  0.1248235E+00
          1   -1    0    0  502    0 -0.00000000000E+00  0.00000000000E+00  0.23257209767E+03  0.23257209767E+03  0.00000000000E+00 0. -1.
         21   -1    0    0  501  502  0.00000000000E+00 -0.00000000000E+00 -0.11948085634E+03  0.11948085634E+03  0.00000000000E+00 0. -1.
        -24    2    1    2    0    0  0.53660561998E+02  0.55304528513E+02  0.89133334265E+02  0.14295063486E+03  0.80944956244E+02 0.  0.
         23    2    1    2    0    0 -0.94096665781E+02  0.29852964333E+01 -0.70534454954E+01  0.13167825203E+03  0.91794969685E+02 0.  0.
         11    1    3    3    0    0  0.68024653536E+02  0.63749605528E+02  0.65105595248E+02  0.11371061615E+03  0.00000000000E+00 0. -1.
        -12    1    3    3    0    0 -0.14364091539E+02 -0.84450770153E+01  0.24027739017E+02  0.29240018704E+02  0.00000000000E+00 0.  1.
        -13    1    4    4    0    0 -0.14753691518E+02  0.39829173401E+02 -0.11758985598E+02  0.44071625900E+02  0.00000000000E+00 0.  1.
         13    1    4    4    0    0 -0.79342974262E+02 -0.36843876967E+02  0.47055401030E+01  0.87606626133E+02  0.00000000000E+00 0. -1.
          2    1    1    2  501    0  0.40436103783E+02 -0.58289824946E+02  0.31011352555E+02  0.77424067115E+02  0.00000000000E+00 0. -1.
<scales pt_clust_5="13000.00000" pt_clust_6="13000.00000" pt_clust_7="13000.00000" pt_clust_8="13000.00000" pt_clust_9="70.94214"></scales>
<clustering>
<clus scale="   70.942">  2  9  1 -1</clus>
<clus scale="   80.945">  5  6 -1 -1</clus>
<clus scale="   91.795">  7  8 -1 -1</clus>
<clus scale="  110.879">  1  5  2 -1</clus>
<clus scale="   70.942">  2  5  1 -1</clus>
</clustering>
</event>
<event>
 9    1  0.8429841E-005  0.1255906E+03  0.7546771E-02  0.1244168E+00
          1   -1    0    0  502    0 -0.00000000000E+00  0.00000000000E+00  0.14387062186E+03  0.14387062186E+03  0.00000000000E+00 0. -1.
         21   -1    0    0  501  502  0.00000000000E+00 -0.00000000000E+00 -0.36797276417E+03  0.36797276417E+03  0.00000000000E+00 0. -1.
         23    2    1    2    0    0 -0.36209995269E+02 -0.67973939253E+02  0.60983766542E+02  0.13887325807E+03  0.98158758393E+02 0.  0.
        -24    2    1    2    0    0  0.28257742136E+01  0.86146377273E+02 -0.26687413368E+02  0.11179102047E+03  0.65998718992E+02 0.  0.
         13    1    4    4    0    0  0.18531229531E+02  0.90008870101E+02 -0.26405463384E+02  0.95615122556E+02  0.00000000000E+00 0. -1.
        -14    1    4    4    0    0 -0.15705455318E+02 -0.38624928282E+01 -0.28194998415E+00  0.16175897916E+02  0.00000000000E+00 0.  1.
        -11    1    3    3    0    0  0.21808542322E+02  0.11580411163E+02  0.21665379322E+02  0.32849765632E+02  0.00000000000E+00 0. -1.
         11    1    3    3    0    0 -0.58018537591E+02 -0.79554350416E+02  0.39318387220E+02  0.10602349243E+03  0.00000000000E+00 0.  1.
          2    1    1    2  501    0  0.33384221056E+02 -0.18172438020E+02 -0.25839849549E+03  0.26117910749E+03  0.00000000000E+00 0. -1.
<scales pt_clust_5="13000.00000" pt_clust_6="13000.00000" pt_clust_7="13000.00000" pt_clust_8="13000.00000" pt_clust_9="38.00978"></scales>
<clustering>
<clus scale="   38.010">  2  9  1 -1</clus>
<clus scale="   65.999">  5  6 -1 -1</clus>
<clus scale="   98.159">  7  8 -1 -1</clus>
<clus scale="  102.439">  2  5  1 -1</clus>
<clus scale="   38.010">  2  5  1 -1</clus>
</clustering>
</event>
<event>
 9    1  0.8429841E-005  0.2277901E+03  0.7546771E-02  0.1141577E+00
          1   -1    0    0  502    0 -0.00000000000E+00  0.00000000000E+00  0.64192757528E+03  0.64192757528E+03  0.00000000000E+00 0. -1.
         21   -1    0    0  501  502  0.00000000000E+00 -0.00000000000E+00 -0.34094544690E+03  0.34094544690E+03  0.00000000000E+00 0. -1.
         23    2    1    2    0    0 -0.12284847092E+03 -0.62621464609E+02 -0.62374694783E+02  0.17592502664E+03  0.89698482759E+02 0.  0.
        -24    2    1    2    0    0  0.34890819876E+02 -0.14327908172E+03  0.51159188712E+03  0.53842384851E+03  0.80173044746E+02 0.  0.
         13    1    4    4    0    0  0.21823135876E+02 -0.14898429779E+03  0.48945207893E+03  0.51208974586E+03  0.00000000000E+00 0. -1.
        -14    1    4    4    0    0  0.13067684000E+02  0.57052160676E+01  0.22139808192E+02  0.26334102648E+02  0.00000000000E+00 0.  1.
        -13    1    3    3    0    0 -0.35132740105E+02 -0.29029568538E+02  0.21139592380E+02  0.50238507570E+02  0.00000000000E+00 0.  1.
         13    1    3    3    0    0 -0.87715730819E+02 -0.33591896071E+02 -0.83514287162E+02  0.12568651907E+03  0.00000000000E+00 0. -1.
          2    1    1    2  501    0  0.87957651048E+02  0.20590054633E+03 -0.14823506396E+03  0.26852414704E+03  0.00000000000E+00 0. -1.
<scales pt_clust_5="13000.00000" pt_clust_6="13000.00000" pt_clust_7="13000.00000" pt_clust_8="13000.00000" pt_clust_9="213.21497"></scales>
<clustering>
<clus scale="   80.173">  5  6 -1 -1</clus>
<clus scale="   89.698">  7  8 -1 -1</clus>
<clus scale="  164.496">  1  7  2 -1</clus>
<clus scale="  213.215">  2  9  1 -1</clus>
<clus scale="  213.215">  2  5  1 -1</clus>
</clustering>
</event>
<event>
 9    1  0.8429841E-005  0.1064765E+03  0.7546771E-02  0.1270041E+00
          1   -1    0    0  502    0 -0.00000000000E+00  0.00000000000E+00  0.15138583864E+03  0.15138583864E+03  0.00000000000E+00 0. -1.
         21   -1    0    0  501  502  0.00000000000E+00 -0.00000000000E+00 -0.21667964551E+03  0.21667964551E+03  0.00000000000E+00 0.  1.
         23    2    1    2    0    0 -0.53243130634E+02  0.37576749298E+02  0.10449842809E+03  0.15090219306E+03  0.87204973191E+02 0.  0.
        -24    2    1    2    0    0  0.38659412304E+02 -0.22688749490E+02 -0.70836941325E+02  0.11603719399E+03  0.80233587855E+02 0.  0.
         11    1    4    4    0    0  0.21574156111E+02 -0.47395493141E+02 -0.17705956875E+02  0.55002526223E+02  0.00000000000E+00 0. -1.
        -12    1    4    4    0    0  0.17085256193E+02  0.24706743652E+02 -0.53130984450E+02  0.61034667769E+02  0.00000000000E+00 0.  1.
        -11    1    3    3    0    0 -0.32201208240E+02  0.28506371909E+02  0.11710314414E+03  0.12475046060E+03  0.00000000000E+00 0. -1.
         11    1    3    3    0    0 -0.21041922395E+02  0.90703773893E+01 -0.12604716051E+02  0.26151732462E+02  0.00000000000E+00 0.  1.
          2    1    1    2  501    0  0.14583718330E+02 -0.14887999809E+02 -0.98955293626E+02  0.10112609710E+03  0.00000000000E+00 0. -1.
<scales pt_clust_5="13000.00000" pt_clust_6="13000.00000" pt_clust_7="13000.00000" pt_clust_8="13000.00000" pt_clust_9="20.84076"></scales>
<clustering>
<clus scale="   20.841">  2  9  1 -1</clus>
<clus scale="   80.234">  5  6 -1 -1</clus>
<clus scale="   87.205">  7  8 -1 -1</clus>
<clus scale="  100.846">  2  5  1 -1</clus>
<clus scale="   20.841">  2  5  1 -1</clus>
</clustering>
</event>
<event>
 9    1  0.8429841E-005  0.1697778E+03  0.7546771E-02  0.1179564E+00
          1   -1    0    0  502    0 -0.00000000000E+00  0.00000000000E+00  0.11681732507E+04  0.11681732507E+04  0.00000000000E+00 0. -1.
         21   -1    0    0  501  502  0.00000000000E+00 -0.00000000000E+00 -0.12991545158E+03  0.12991545158E+03  0.00000000000E+00 0. -1.
        -24    2    1    2    0    0 -0.80438085637E+02 -0.12741037554E+03  0.10477767790E+04  0.10615768113E+04  0.80034107180E+02 0.  0.
         23    2    1    2    0    0  0.47909515477E+02  0.85753246079E+02  0.62050432995E+02  0.14754220414E+03  0.90936818082E+02 0.  0.
         11    1    3    3    0    0 -0.81097001579E+02 -0.13095184941E+03  0.85481964153E+03  0.86858605220E+03  0.00000000000E+00 0. -1.
        -12    1    3    3    0    0  0.65891594149E+00  0.35414738657E+01  0.19295713742E+03  0.19299075908E+03  0.00000000000E+00 0.  1.
        -11    1    4    4    0    0  0.44983071478E+02  0.37558677586E+02  0.77214102186E+02  0.96933732818E+02  0.00000000000E+00 0. -1.
         11    1    4    4    0    0  0.29264439984E+01  0.48194568493E+02 -0.15163669192E+02  0.50608471327E+02  0.00000000000E+00 0.  1.
          2    1    1    2  501    0  0.32528570161E+02  0.41657129463E+02 -0.71569412872E+02  0.88969686808E+02  0.00000000000E+00 0. -1.
<scales pt_clust_5="13000.00000" pt_clust_6="13000.00000" pt_clust_7="13000.00000" pt_clust_8="13000.00000" pt_clust_9="52.85286"></scales>
<clustering>
<clus scale="   52.853">  2  9  1 -1</clus>
<clus scale="   80.034">  5  6 -1 -1</clus>
<clus scale="   90.937">  7  8 -1 -1</clus>
<clus scale="  164.196">  1  5  2 -1</clus>
<clus scale="   52.853">  2  5  1 -1</clus>
</clustering>
</event>
<event>
 9    1  0.8429841E-005  0.1888970E+03  0.7546771E-02  0.1194432E+00
         -2   -1    0    0    0  501 -0.00000000000E+00  0.00000000000E+00  0.11364804686E+04  0.11364804686E+04  0.00000000000E+00 0.  1.
         21   -1    0    0  501  502  0.00000000000E+00 -0.00000000000E+00 -0.71713870910E+02  0.71713870910E+02  0.00000000000E+00 0.  1.
        -24    2    1    2    0    0 -0.17114685888E+02 -0.23266051782E+02  0.22295500900E+03  0.23885448077E+03  0.80674068362E+02 0.  0.
         23    2    1    2    0    0 -0.79819143177E+02  0.14970177202E+03  0.10978774971E+03  0.22017962261E+03  0.87429972346E+02 0.  0.
         11    1    3    3    0    0  0.23292923642E+02  0.16715964365E+02  0.67725175421E+02  0.73543749851E+02  0.00000000000E+00 0. -1.
        -12    1    3    3    0    0 -0.40407609530E+02 -0.39982016147E+02  0.15522983358E+03  0.16531073092E+03  0.00000000000E+00 0.  1.
        -13    1    4    4    0    0 -0.96249265827E+02  0.11708170933E+03  0.72602406703E+02  0.16805700607E+03  0.00000000000E+00 0.  1.
         13    1    4    4    0    0  0.16430122650E+02  0.32620062688E+02  0.37185343011E+02  0.52122616539E+02  0.00000000000E+00 0. -1.
         -1    1    1    2    0  502  0.96933829065E+02 -0.12643572023E+03  0.73202383893E+03  0.74916023609E+03  0.00000000000E+00 0.  1.
<scales pt_clust_5="13000.00000" pt_clust_6="13000.00000" pt_clust_7="13000.00000" pt_clust_8="13000.00000" pt_clust_9="167.44580"></scales>
<clustering>
<clus scale="   80.674">  5  6 -1 -1</clus>
<clus scale="   85.689">  1  5  2 -1</clus>
<clus scale="   87.430">  7  8 -1 -1</clus>
<clus scale="  167.446">  2  9  1 -1</clus>
<clus scale="  167.446">  2  5  1 -1</clus>
</clustering>
</event>
<event>
 9    1  0.8429841E-005  0.9309073E+02  0.7546771E-02  0.1301617E+00
         21   -1    0    0  501  502  0.00000000000E+00  0.00000000000E+00  0.26168319776E+03  0.26168319776E+03  0.00000000000E+00 0. -1.
          3   -1    0    0  502    0 -0.00000000000E+00 -0.00000000000E+00 -0.10894953377E+03  0.10894953377E+03  0.00000000000E+00 0. -1.
         23    2    1    2    0    0 -0.23564276730E+02 -0.25361907750E+02 -0.44689415266E+02  0.10691804333E+03  0.90751433329E+02 0.  0.
        -24    2    1    2    0    0 -0.47621066332E+02  0.25318429996E+01  0.73666443214E+02  0.11913159829E+03  0.80569328324E+02 0.  0.
         13    1    4    4    0    0 -0.54770226671E+02  0.10036696912E+02  0.12467270291E+02  0.57060895918E+02  0.00000000000E+00 0. -1.
        -14    1    4    4    0    0  0.71491603393E+01 -0.75048539122E+01  0.61199172923E+02  0.62070702367E+02  0.00000000000E+00 0.  1.
        -13    1    3    3    0    0 -0.45253796600E+02 -0.46862577076E+02 -0.21606089960E+02  0.68635489072E+02  0.00000000000E+00 0. -1.
         13    1    3    3    0    0  0.21689519870E+02  0.21500669326E+02 -0.23083325306E+02  0.38282554262E+02  0.00000000000E+00 0.  1.
          4    1    1    2  501    0  0.71185343062E+02  0.22830064750E+02  0.12375663605E+03  0.14458308991E+03  0.00000000000E+00 0. -1.
<scales pt_clust_5="13000.00000" pt_clust_6="13000.00000" pt_clust_7="13000.00000" pt_clust_8="13000.00000" pt_clust_9="74.75670"></scales>
<clustering>
<clus scale="   74.757">  1  9  2 -1</clus>
<clus scale="   80.569">  5  6 -1 -1</clus>
<clus scale="   83.195">  1  5  2 -1</clus>
<clus scale="   90.751">  7  8 -1 -1</clus>
<clus scale="   74.757">  1  5  2 -1</clus>
</clustering>
</event>
<event>
 9    1  0.8429841E-005  0.1214599E+03  0.7546771E-02  0.1243099E+00
         21   -1    0    0  501  502  0.00000000000E+00  0.00000000000E+00  0.38442976011E+03  0.38442976011E+03  0.00000000000E+00 0.  1.
          1   -1    0    0  502    0 -0.00000000000E+00 -0.00000000000E+00 -0.18634346199E+03  0.18634346199E+03  0.00000000000E+00 0. -1.
         23    2    1    2    0    0 -0.75647911933E+02 -0.35479026301E+02 -0.95950029046E+01  0.12296863897E+03  0.89709833370E+02 0.  0.
        -24    2    1    2    0    0  0.54121537800E+02  0.53413217483E+02  0.31640386988E+03  0.33552984432E+03  0.81772580387E+02 0.  0.
         13    1    4    4    0    0 -0.20852196379E+02  0.25409848783E+01  0.63720575011E+02  0.67093832635E+02  0.00000000000E+00 0. -1.
        -14    1    4    4    0    0  0.74973734179E+02  0.50872232605E+02  0.25268329486E+03  0.26843601169E+03  0.00000000000E+00 0.  1.
        -13    1    3    3    0    0  0.78301427156E+01 -0.36265249215E+02 -0.13278760724E+02  0.39405645813E+02  0.00000000000E+00 0.  1.
         13    1    3    3    0    0 -0.83478054648E+02  0.78622291431E+00  0.36837578193E+01  0.83562993161E+02  0.00000000000E+00 0. -1.
          2    1    1    2  501    0  0.21526374133E+02 -0.17934191182E+02 -0.10872256885E+03  0.11227473881E+03  0.00000000000E+00 0. -1.
<scales pt_clust_5="13000.00000" pt_clust_6="13000.00000" pt_clust_7="13000.00000" pt_clust_8="13000.00000" pt_clust_9="28.01822"></scales>
<clustering>
<clus scale="   28.018">  1  9  2 -1</clus>
<clus scale="   81.773">  5  6 -1 -1</clus>
<clus scale="   89.710">  7  8 -1 -1</clus>
<clus scale="  115.721">  1  5  2 -1</clus>
<clus scale="   28.018">  1  5  2 -1</clus>
</clustering>
</event>
<event>
 9    1  0.8429841E-005  0.2421668E+03  0.7546771E-02  0.1119155E+00
         21   -1    0    0  501  502  0.00000000000E+00  0.00000000000E+00  0.36987542043E+03  0.36987542043E+03  0.00000000000E+00 0. -1.
          1   -1    0    0  502    0 -0.00000000000E+00 -0.00000000000E+00 -0.33311165544E+03  0.33311165544E+03  0.00000000000E+00 0. -1.
        -24    2    1    2    0    0  0.49300370272E+02  0.17763162397E+03 -0.24079634797E+02  0.20282177965E+03  0.81076045429E+02 0.  0.
         23    2    1    2    0    0 -0.13814752244E+03 -0.29211846520E+03  0.97999547412E+02  0.35056037462E+03  0.94184549114E+02 0.  0.
         13    1    3    3    0    0  0.37381044233E+02  0.16498962294E+03  0.46631207033E+01  0.16923552476E+03  0.00000000000E+00 0. -1.
        -14    1    3    3    0    0  0.11919326039E+02  0.12642001028E+02 -0.28742755500E+02  0.33586254881E+02  0.00000000000E+00 0.  1.
        -11    1    4    4    0    0 -0.14020985638E+03 -0.20199623982E+03  0.80509054013E+02  0.25873343910E+03  0.00000000000E+00 0. -1.
         11    1    4    4    0    0  0.20623339369E+01 -0.90122225375E+02  0.17490493399E+02  0.91826935521E+02  0.00000000000E+00 0.  1.
          2    1    1    2  501    0  0.88847152168E+02  0.11448684123E+03 -0.37156147623E+02  0.14960492161E+03  0.00000000000E+00 0. -1.
<scales pt_clust_5="13000.00000" pt_clust_6="13000.00000" pt_clust_7="13000.00000" pt_clust_8="13000.00000" pt_clust_9="144.91747"></scales>
<clustering>
<clus scale="   81.076">  5  6 -1 -1</clus>
<clus scale="   94.185">  7  8 -1 -1</clus>
<clus scale="  144.917">  1  9  2 -1</clus>
<clus scale="  237.376">  2  5  1 -1</clus>
<clus scale="  144.917">  1  5  2 -1</clus>
</clustering>
</event>
<event>
 9    1  0.8429841E-005  0.1276983E+03  0.7546771E-02  0.1234187E+00
          1   -1    0    0  502    0 -0.00000000000E+00  0.00000000000E+00  0.23862779644E+03  0.23862779644E+03  0.00000000000E+00 0. -1.
         21   -1    0    0  501  502  0.00000000000E+00 -0.00000000000E+00 -0.98812793947E+02  0.98812793947E+02  0.00000000000E+00 0.  1.
        -24    2    1    2    0    0 -0.22321993764E+01 -0.96912311419E+02  0.14292585275E+03  0.18996398773E+03  0.79129883309E+02 0.  0.
         23    2    1    2    0    0  0.21187630291E+01  0.68044886751E+02 -0.17634990662E+02  0.11516109973E+03  0.91194792757E+02 0.  0.
         13    1    3    3    0    0  0.34178713016E+02 -0.63328413552E+02  0.10626419510E+03  0.12833842584E+03  0.00000000000E+00 0. -1.
        -14    1    3    3    0    0 -0.36410912392E+02 -0.33583897867E+02  0.36661657650E+02  0.61625561894E+02  0.00000000000E+00 0.  1.
        -11    1    4    4    0    0  0.37365476153E+02  0.44480156889E+02  0.16875111846E+02  0.60493243960E+02  0.00000000000E+00 0.  1.
         11    1    4    4    0    0 -0.35246713124E+02  0.23564729861E+02 -0.34510102508E+02  0.54667855771E+02  0.00000000000E+00 0. -1.
          2    1    1    2  501    0  0.11343634728E+00  0.28867424668E+02  0.14524140411E+02  0.32315502928E+02  0.00000000000E+00 0. -1.
<scales pt_clust_5="13000.00000" pt_clust_6="13000.00000" pt_clust_7="13000.00000" pt_clust_8="13000.00000" pt_clust_9="28.86766"></scales>
<clustering>
<clus scale="   28.868">  2  9  1 -1</clus>
<clus scale="   79.130">  5  6 -1 -1</clus>
<clus scale="   91.195">  7  8 -1 -1</clus>
<clus scale="  119.381">  1  5  2 -1</clus>
<clus scale="   28.868">  2  5  1 -1</clus>
</clustering>
</event>
<event>
 9    1  0.8429841E-005  0.1811095E+03  0.7546771E-02  0.1168506E+00
         21   -1    0    0  501  502  0.00000000000E+00  0.00000000000E+00  0.12999973394E+03  0.12999973394E+03  0.00000000000E+00 0.  1.
          1   -1    0    0  502    0 -0.00000000000E+00 -0.00000000000E+00 -0.49413153863E+03  0.49413153863E+03  0.00000000000E+00 0. -1.
        -24    2    1    2    0    0 -0.15284481831E+03  0.43923526595E+02 -0.33152685658E+03  0.37683871721E+03  0.82501802883E+02 0.  0.
         23    2    1    2    0    0  0.10760627385E+03 -0.85047654077E+02  0.16758576977E+02  0.16871471259E+03  0.96806976531E+02 0.  0.
         13    1    3    3    0    0 -0.15473389243E+03  0.31927829584E+02 -0.25963229236E+03  0.30392579852E+03  0.00000000000E+00 0. -1.
        -14    1    3    3    0    0  0.18890741124E+01  0.11995697010E+02 -0.71894564221E+02  0.72912918692E+02  0.00000000000E+00 0.  1.
        -11    1    4    4    0    0  0.19416649566E+02 -0.69151494916E+02 -0.15491390921E+02  0.73477334751E+02  0.00000000000E+00 0.  1.
         11    1    4    4    0    0  0.88189624285E+02 -0.15896159161E+02  0.32249967898E+02  0.95237377836E+02  0.00000000000E+00 0. -1.
          2    1    1    2  501    0  0.45238544464E+02  0.41124127482E+02 -0.49363525088E+02  0.78577842777E+02  0.00000000000E+00 0. -1.
<scales pt_clust_5="13000.00000" pt_clust_6="13000.00000" pt_clust_7="13000.00000" pt_clust_8="13000.00000" pt_clust_9="61.13692"></scales>
<clustering>
<clus scale="   61.137">  1  9  2 -1</clus>
<clus scale="   82.502">  5  6 -1 -1</clus>
<clus scale="   96.807">  7  8 -1 -1</clus>
<clus scale="  173.884">  2  5  1 -1</clus>
<clus scale="   61.137">  1  5  2 -1</clus>
</clustering>
</event>
<event>
 9    1  0.8429841E-005  0.1202282E+03  0.7546771E-02  0.1246446E+00
          1   -1    0    0  502    0 -0.00000000000E+00  0.00000000000E+00  0.56763332699E+03  0.56763332699E+03  0.00000000000E+00 0. -1.
         21   -1    0    0  501  502  0.00000000000E+00 -0.00000000000E+00 -0.78431218940E+02  0.78431218940E+02  0.00000000000E+00 0. -1.
        -24    2    1    2    0    0 -0.36162547631E+02 -0.73404759560E+02  0.21621470995E+03  0.24480694018E+03  0.80533524585E+02 0.  0.
         23    2    1    2    0    0  0.72712758882E+02  0.23947046728E+02 -0.16161105558E+01  0.11985207939E+03  0.92202509567E+02 0.  0.
         13    1    3    3    0    0 -0.15239982455E+02 -0.87982457532E+02  0.16634085330E+03  0.18879207975E+03  0.00000000000E+00 0. -1.
        -14    1    3    3    0    0 -0.20922565176E+02  0.14577697972E+02  0.49873856646E+02  0.56014860425E+02  0.00000000000E+00 0.  1.
        -13    1    4    4    0    0 -0.20737847163E+02  0.15142872926E+02 -0.38264568565E+01  0.25961638575E+02  0.00000000000E+00 0.  1.
         13    1    4    4    0    0  0.93450606044E+02  0.88041738018E+01  0.22103463006E+01  0.93890440819E+02  0.00000000000E+00 0. -1.
          2    1    1    2  501    0 -0.36550211251E+02  0.49457712832E+02  0.27460350866E+03  0.28140552636E+03  0.00000000000E+00 0. -1.
<scales pt_clust_5="13000.00000" pt_clust_6="13000.00000" pt_clust_7="13000.00000" pt_clust_8="13000.00000" pt_clust_9="61.49786"></scales>
<clustering>
<clus scale="   61.498">  2  9  1 -1</clus>
<clus scale="   80.534">  5  6 -1 -1</clus>
<clus scale="   92.203">  7  8 -1 -1</clus>
<clus scale="  111.531">  1  5  2 -1</clus>
<clus scale="   61.498">  2  5  1 -1</clus>
</clustering>
</event>
<event>
 9    1  0.8429841E-005  0.1985317E+03  0.7546771E-02  0.1151098E+00
          1   -1    0    0  502    0 -0.00000000000E+00  0.00000000000E+00  0.36175306012E+03  0.36175306012E+03  0.00000000000E+00 0. -1.
         21   -1    0    0  501  502  0.00000000000E+00 -0.00000000000E+00 -0.14274308791E+03  0.14274308791E+03  0.00000000000E+00 0. -1.
         23    2    1    2    0    0 -0.51931255966E+02  0.16165070520E+03  0.15239655599E+03  0.24334090186E+03  0.84630245198E+02 0.  0.
        -24    2    1    2    0    0  0.37710167065E+02 -0.19324105229E+03  0.72999142859E+02  0.22592788601E+03  0.83368902053E+02 0.  0.
         11    1    4    4    0    0  0.17125622421E+02 -0.19241995533E+03  0.64875605562E+02  0.20378314540E+03  0.00000000000E+00 0. -1.
        -12    1    4    4    0    0  0.20584544644E+02 -0.82109695749E+00  0.81235372973E+01  0.22144740609E+02  0.00000000000E+00 0.  1.
        -11    1    3    3    0    0 -0.69725042807E+02  0.13195168407E+03  0.96929322429E+02  0.17795539349E+03  0.00000000000E+00 0. -1.
         11    1    3    3    0    0  0.17793786842E+02  0.29699021121E+02  0.55467233564E+02  0.65385508371E+02  0.00000000000E+00 0.  1.
          2    1    1    2  501    0  0.14221088901E+02  0.31590347094E+02 -0.63857266436E+01  0.35227360159E+02  0.00000000000E+00 0. -1.
<scales pt_clust_5="13000.00000" pt_clust_6="13000.00000" pt_clust_7="13000.00000" pt_clust_8="13000.00000" pt_clust_9="34.64375"></scales>
<clustering>
<clus scale="   34.644">  2  9  1 -1</clus>
<clus scale="   83.369">  5  6 -1 -1</clus>
<clus scale="   84.630">  7  8 -1 -1</clus>
<clus scale="  197.997">  2  5  1 -1</clus>
<clus scale="   34.644">  2  5  1 -1</clus>
</clustering>
</event>
<event>
 9    1  0.8429841E-005  0.1022137E+03  0.7546771E-02  0.1282114E+00
         21   -1    0    0  501  502  0.00000000000E+00  0.00000000000E+00  0.39722116187E+03  0.39722116187E+03  0.00000000000E+00 0. -1.
          1   -1    0    0  502    0 -0.00000000000E+00 -0.00000000000E+00 -0.16991955910E+03  0.16991955910E+03  0.00000000000E+00 0. -1.
         23    2    1    2    0    0 -0.45346925525E+02  0.10971130455E+02 -0.13933576512E+03  0.17401238148E+03  0.93215578680E+02 0.  0.
        -24    2    1    2    0    0  0.10095637338E+01 -0.58715969284E+01  0.13407998435E+03  0.15632727629E+03  0.80157845765E+02 0.  0.
         13    1    4    4    0    0  0.21329781540E+02  0.29128634443E+02  0.39841572247E+02  0.53766046946E+02  0.00000000000E+00 0. -1.
        -14    1    4    4    0    0 -0.20320217806E+02 -0.35000231371E+02  0.94238412105E+02  0.10256122934E+03  0.00000000000E+00 0.  1.
        -13    1    3    3    0    0 -0.73735119823E+02  0.26217301298E+01 -0.10910003792E+03  0.13170633864E+03  0.00000000000E+00 0. -1.
         13    1    3    3    0    0  0.28388194298E+02  0.83494003250E+01 -0.30235727202E+02  0.42306042840E+02  0.00000000000E+00 0.  1.
          2    1    1    2  501    0  0.44337361791E+02 -0.50995335264E+01  0.23255738354E+03  0.23680106320E+03  0.00000000000E+00 0. -1.
<scales pt_clust_5="13000.00000" pt_clust_6="13000.00000" pt_clust_7="13000.00000" pt_clust_8="13000.00000" pt_clust_9="44.62966"></scales>
<clustering>
<clus scale="   44.630">  1  9  2 -1</clus>
<clus scale="   80.158">  5  6 -1 -1</clus>
<clus scale="   90.464">  1  5  2 -1</clus>
<clus scale="   93.216">  7  8 -1 -1</clus>
<clus scale="   44.630">  1  5  2 -1</clus>
</clustering>
</event>
<event>
 9    1  0.8429841E-005  0.1155490E+03  0.7546771E-02  0.1255445E+00
          1   -1    0    0  502    0 -0.00000000000E+00  0.00000000000E+00  0.27193074534E+03  0.27193074534E+03  0.00000000000E+00 0. -1.
         21   -1    0    0  501  502  0.00000000000E+00 -0.00000000000E+00 -0.19756301400E+03  0.19756301400E+03  0.00000000000E+00 0. -1.
        -24    2    1    2    0    0  0.39500834406E+02 -0.26611673229E+02 -0.68489361373E+02  0.11590592949E+03  0.80466730999E+02 0.  0.
         23    2    1    2    0    0 -0.78571216023E+02  0.43380140477E+02 -0.62342115864E+02  0.14403022105E+03  0.93823731481E+02 0.  0.
         11    1    3    3    0    0 -0.19074180072E+01 -0.46807407249E+02 -0.41021888110E+02  0.62268506654E+02  0.00000000000E+00 0. -1.
        -12    1    3    3    0    0  0.41408252413E+02  0.20195734020E+02 -0.27467473263E+02  0.53637422831E+02  0.00000000000E+00 0.  1.
        -13    1    4    4    0    0 -0.63346246545E+02 -0.17693962594E+02 -0.41300554899E+02  0.77663112857E+02  0.00000000000E+00 0. -1.
         13    1    4    4    0    0 -0.15224969477E+02  0.61074103071E+02 -0.21041560965E+02  0.66367108188E+02  0.00000000000E+00 0.  1.
          2    1    1    2  501    0  0.39070381617E+02 -0.16768467247E+02  0.20519920857E+03  0.20955760882E+03  0.00000000000E+00 0. -1.
<scales pt_clust_5="13000.00000" pt_clust_6="13000.00000" pt_clust_7="13000.00000" pt_clust_8="13000.00000" pt_clust_9="42.51680"></scales>
<clustering>
<clus scale="   42.517">  2  9  1 -1</clus>
<clus scale="   80.467">  5  6 -1 -1</clus>
<clus scale="   93.824">  7  8 -1 -1</clus>
<clus scale="  104.993">  1  5  2 -1</clus>
<clus scale="   42.517">  2  5  1 -1</clus>
</clustering>
</event>
<event>
 9    1  0.8429841E-005  0.1712263E+03  0.7546771E-02  0.1204665E+00
         21   -1    0    0  501  502  0.00000000000E+00  0.00000000000E+00  0.99883312587E+03  0.99883312587E+03  0.00000000000E+00 0.  1.
         -2   -1    0    0    0  501 -0.00000000000E+00 -0.00000000000E+00 -0.46938232467E+02  0.46938232467E+02  0.00000000000E+00 0.  1.
         23    2    1    2    0    0  0.16075953479E+02  0.18717862505E+02  0.23660684704E+03  0.25390168010E+03  0.88738201672E+02 0.  0.
        -24    2    1    2    0    0  0.67786658045E+02  0.11578534063E+03  0.20845868641E+03  0.26083290985E+03  0.81101829872E+02 0.  0.
         11    1    4    4    0    0  0.31048268508E+02  0.15982087666E+02  0.11177749521E+03  0.11710521141E+03  0.00000000000E+00 0. -1.
        -12    1    4    4    0    0  0.36738389536E+02  0.99803252962E+02  0.96681191193E+02  0.14372769844E+03  0.00000000000E+00 0.  1.
        -13    1    3    3    0    0  0.30031273752E+02 -0.25190317732E+02  0.62270549403E+02  0.73580233987E+02  0.00000000000E+00 0. -1.
         13    1    3    3    0    0 -0.13955320274E+02  0.43908180237E+02  0.17433629763E+03  0.18032144611E+03  0.00000000000E+00 0.  1.
         -1    1    1    2    0  502 -0.83862611523E+02 -0.13450320313E+03  0.50682935996E+03  0.53103676839E+03  0.00000000000E+00 0.  1.
<scales pt_clust_5="13000.00000" pt_clust_6="13000.00000" pt_clust_7="13000.00000" pt_clust_8="13000.00000" pt_clust_9="150.80098"></scales>
<clustering>
<clus scale="   81.102">  5  6 -1 -1</clus>
<clus scale="   88.738">  7  8 -1 -1</clus>
<clus scale="   92.105">  2  7  1 -1</clus>
<clus scale="  150.801">  1  9  2 -1</clus>
<clus scale="  150.801">  1  5  2 -1</clus>
</clustering>
</event>
<event>
 9    1  0.8429841E-005  0.1393784E+03  0.7546771E-02  0.1216686E+00
         21   -1    0    0  501  502  0.00000000000E+00  0.00000000000E+00  0.91871560818E+02  0.91871560818E+02  0.00000000000E+00 0. -1.
          1   -1    0    0  502    0 -0.00000000000E+00 -0.00000000000E+00 -0.94779520086E+03  0.94779520086E+03  0.00000000000E+00 0. -1.
        -24    2    1    2    0    0 -0.64595908028E+02  0.11293445601E+03 -0.75706207840E+03  0.77230419475E+03  0.79899662002E+02 0.  0.
         23    2    1    2    0    0  0.54713786132E+02 -0.11930324558E+02 -0.12290909524E+03  0.16306599566E+03  0.91367074006E+02 0.  0.
         13    1    3    3    0    0 -0.68935697046E+02  0.12324506311E+03 -0.68811673067E+03  0.70245719509E+03  0.00000000000E+00 0. -1.
        -14    1    3    3    0    0  0.43397890187E+01 -0.10310607101E+02 -0.68945347735E+02  0.69846999662E+02  0.00000000000E+00 0.  1.
        -13    1    4    4    0    0  0.19458503138E+02 -0.62597958323E+01  0.11869770722E+02  0.23637043918E+02  0.00000000000E+00 0. -1.
         13    1    4    4    0    0  0.35255282995E+02 -0.56705287260E+01 -0.13477886596E+03  0.13942895175E+03  0.00000000000E+00 0.  1.
          2    1    1    2  501    0  0.98821218956E+01 -0.10100413145E+03  0.24047533602E+02  0.10429657126E+03  0.00000000000E+00 0. -1.
<scales pt_clust_5="13000.00000" pt_clust_6="13000.00000" pt_clust_7="13000.00000" pt_clust_8="13000.00000" pt_clust_9="101.48641"></scales>
<clustering>
<clus scale="   79.900">  5  6 -1 -1</clus>
<clus scale="   91.367">  7  8 -1 -1</clus>
<clus scale="  101.486">  1  9  2 -1</clus>
<clus scale="  132.145">  2  5  1 -1</clus>
<clus scale="  101.486">  1  5  2 -1</clus>
</clustering>
</event>
<event>
 9    1  0.8429841E-005  0.9041632E+02  0.7546771E-02  0.1307883E+00
          1   -1    0    0  502    0 -0.00000000000E+00  0.00000000000E+00  0.19527336427E+03  0.19527336427E+03  0.00000000000E+00 0. -1.
         21   -1    0    0  501  502  0.00000000000E+00 -0.00000000000E+00 -0.14822944363E+03  0.14822944363E+03  0.00000000000E+00 0.  1.
         23    2    1    2    0    0 -0.34969797622E+01  0.78737989583E+01  0.16322116123E+03  0.18663501868E+03  0.90095822032E+02 0.  0.
        -24    2    1    2    0    0  0.15498515629E+02  0.10794143312E+02 -0.85589687340E+02  0.11907721703E+03  0.80604413783E+02 0.  0.
         13    1    4    4    0    0 -0.20007676673E+02  0.76113269617E+01  0.47771296200E+01  0.21933088961E+02  0.00000000000E+00 0. -1.
        -14    1    4    4    0    0  0.35506192302E+02  0.31828163503E+01 -0.90366816960E+02  0.97144128073E+02  0.00000000000E+00 0.  1.
        -11    1    3    3    0    0  0.11400025981E+01  0.39138669452E+02  0.14491060200E+03  0.15010735366E+03  0.00000000000E+00 0. -1.
         11    1    3    3    0    0 -0.46369823603E+01 -0.31264870494E+02  0.18310559234E+02  0.36527665020E+02  0.00000000000E+00 0.  1.
          2    1    1    2  501    0 -0.12001535867E+02 -0.18667942270E+02 -0.30587553253E+02  0.37790572181E+02  0.00000000000E+00 0. -1.
<scales pt_clust_5="13000.00000" pt_clust_6="13000.00000" pt_clust_7="13000.00000" pt_clust_8="13000.00000" pt_clust_9="22.19299"></scales>
<clustering>
<clus scale="   22.193">  2  9  1 -1</clus>
<clus scale="   80.604">  5  6 -1 -1</clus>
<clus scale="   80.962">  2  5  1 -1</clus>
<clus scale="   90.096">  7  8 -1 -1</clus>
<clus scale="   22.193">  2  5  1 -1</clus>
</clustering>
</event>
<event>
 9    1  0.1123938E-004  0.1003601E+03  0.7546771E-02  0.1283320E+00
         21   -1    0    0  501  502  0.00000000000E+00  0.00000000000E+00  0.30669477031E+03  0.30669477031E+03  0.00000000000E+00 0.  1.
          3   -1    0    0  502    0 -0.00000000000E+00 -0.00000000000E+00 -0.20363540359E+03  0.20363540359E+03  0.00000000000E+00 0. -1.
        -24    2    1    2    0    0 -0.45570163672E+02  0.41575565182E+00 -0.17709202384E+03  0.20008194784E+03  0.81205838918E+02 0.  0.
         23    2    1    2    0    0  0.57630759701E+02  0.20123029467E+02  0.20977490479E+03  0.23595051801E+03  0.89111702312E+02 0.  0.
         11    1    3    3    0    0 -0.49118303556E+02  0.27707060911E+02 -0.15451714364E+03  0.16448658501E+03  0.00000000000E+00 0. -1.
        -12    1    3    3    0    0  0.35481398842E+01 -0.27291305259E+02 -0.22574880205E+02  0.35595362839E+02  0.00000000000E+00 0.  1.
        -11    1    4    4    0    0  0.45424746545E+02 -0.18675483393E+02  0.17708225422E+03  0.18376698844E+03  0.00000000000E+00 0.  1.
         11    1    4    4    0    0  0.12206013156E+02  0.38798512860E+02  0.32692650573E+02  0.52183529573E+02  0.00000000000E+00 0. -1.
          4    1    1    2  501    0 -0.12060596029E+02 -0.20538785118E+02  0.70376485772E+02  0.74297708042E+02  0.00000000000E+00 0. -1.
<scales pt_clust_5="13000.00000" pt_clust_6="13000.00000" pt_clust_7="13000.00000" pt_clust_8="13000.00000" pt_clust_9="23.81805"></scales>
<clustering>
<clus scale="   23.818">  1  9  2 -1</clus>
<clus scale="   81.206">  5  6 -1 -1</clus>
<clus scale="   89.112">  7  8 -1 -1</clus>
<clus scale="   93.411">  2  5  1 -1</clus>
<clus scale="   23.818">  1  5  2 -1</clus>
</clustering>
</event>
<event>
 9    1  0.8429841E-005  0.1036526E+03  0.7546771E-02  0.1278559E+00
         21   -1    0    0  501  502  0.00000000000E+00  0.00000000000E+00  0.50950635512E+02  0.50950635512E+02  0.00000000000E+00 0.  1.
         -4   -1    0    0    0  501 -0.00000000000E+00 -0.00000000000E+00 -0.64156450852E+03  0.64156450852E+03  0.00000000000E+00 0.  1.
        -24    2    1    2    0    0 -0.20945162396E+02 -0.34731731970E+02 -0.42296012351E+03  0.43228275868E+03  0.79549508753E+02 0.  0.
         23    2    1    2    0    0  0.11049147143E+02  0.96211085298E+02 -0.13509218068E+03  0.18996220841E+03  0.91962420340E+02 0.  0.
         11    1    3    3    0    0  0.15193603130E+01 -0.56785940217E+02 -0.23977289629E+03  0.24641021338E+03  0.00000000000E+00 0. -1.
        -12    1    3    3    0    0 -0.22464522709E+02  0.22054208247E+02 -0.18318722722E+03  0.18587254530E+03  0.00000000000E+00 0.  1.
        -13    1    4    4    0    0 -0.31900064662E+02  0.69418857778E+02 -0.51155818864E+02  0.91942970065E+02  0.00000000000E+00 0.  1.
         13    1    4    4    0    0  0.42949211805E+02  0.26792227520E+02 -0.83936361816E+02  0.98019238342E+02  0.00000000000E+00 0. -1.
         -3    1    1    2    0  502  0.98960152529E+01 -0.61479353328E+02 -0.32561568819E+02  0.70270176942E+02  0.00000000000E+00 0.  1.
<scales pt_clust_5="13000.00000" pt_clust_6="13000.00000" pt_clust_7="13000.00000" pt_clust_8="13000.00000" pt_clust_9="62.27072"></scales>
<clustering>
<clus scale="   62.271">  1  9  2 -1</clus>
<clus scale="   79.550">  5  6 -1 -1</clus>
<clus scale="   91.962">  7  8 -1 -1</clus>
<clus scale="   92.817">  2  5  1 -1</clus>
<clus scale="   62.271">  1  5  2 -1</clus>
</clustering>
</event>
<event>
 9    1  0.8429841E-005  0.9911593E+02  0.7546771E-02  0.1291399E+00
         21   -1    0    0  501  502  0.00000000000E+00  0.00000000000E+00  0.47094835235E+02  0.47094835235E+02  0.00000000000E+00 0.  1.
          1   -1    0    0  502    0 -0.00000000000E+00 -0.00000000000E+00 -0.56985365239E+03  0.56985365239E+03  0.00000000000E+00 0. -1.
         23    2    1    2    0    0 -0.38982143179E+02  0.19894993280E+02 -0.24989436950E+03  0.27133473259E+03  0.96228493475E+02 0.  0.
        -24    2    1    2    0    0 -0.31774244644E+02  0.10583756955E+02 -0.31310664486E+02  0.92071547905E+02  0.79844810033E+02 0.  0.
         13    1    4    4    0    0  0.24942233468E+02  0.22396803305E+01 -0.23266826497E+02  0.34182983977E+02  0.00000000000E+00 0. -1.
        -14    1    4    4    0    0 -0.56716478112E+02  0.83440766244E+01 -0.80438379891E+01  0.57888563929E+02  0.00000000000E+00 0.  1.
        -13    1    3    3    0    0 -0.13626596697E+02 -0.38861921054E+02 -0.11146151542E+03  0.11882593347E+03  0.00000000000E+00 0.  1.
         13    1    3    3    0    0 -0.25355546482E+02  0.58756914334E+02 -0.13843285408E+03  0.15250879912E+03  0.00000000000E+00 0. -1.
          2    1    1    2  501    0  0.70756387823E+02 -0.30478750235E+02 -0.24155378317E+03  0.25354220713E+03  0.00000000000E+00 0. -1.
<scales pt_clust_5="13000.00000" pt_clust_6="13000.00000" pt_clust_7="13000.00000" pt_clust_8="13000.00000" pt_clust_9="77.04172"></scales>
<clustering>
<clus scale="   77.042">  1  9  2 -1</clus>
<clus scale="   79.845">  5  6 -1 -1</clus>
<clus scale="   83.302">  1  5  2 -1</clus>
<clus scale="   96.228">  7  8 -1 -1</clus>
<clus scale="   77.042">  1  5  2 -1</clus>
</clustering>
</event>
<event>
 9    1  0.8429841E-005  0.1577066E+03  0.7546771E-02  0.1193609E+00
          1   -1    0    0  502    0 -0.00000000000E+00  0.00000000000E+00  0.55370336056E+03  0.55370336056E+03  0.00000000000E+00 0. -1.
         21   -1    0    0  501  502  0.00000000000E+00 -0.00000000000E+00 -0.12513402260E+03  0.12513402260E+03  0.00000000000E+00 0. -1.
         23    2    1    2    0    0 -0.12736270410E+03  0.15624666975E+02  0.39118439551E+03  0.42204069219E+03  0.92885553054E+02 0.  0.
        -24    2    1    2    0    0  0.10892223427E+03 -0.89975725555E+02 -0.17161480654E+02  0.16275710827E+03  0.78966293861E+02 0.  0.
         11    1    4    4    0    0  0.78936680894E+02 -0.58269426008E+02 -0.48093158926E+02  0.10926700112E+03  0.00000000000E+00 0. -1.
        -12    1    4    4    0    0  0.29985553377E+02 -0.31706299547E+02  0.30931678272E+02  0.53490107151E+02  0.00000000000E+00 0.  1.
        -13    1    3    3    0    0 -0.11944094482E+03  0.42200374630E+02  0.35147749883E+03  0.37360867643E+03  0.00000000000E+00 0. -1.
         13    1    3    3    0    0 -0.79217592796E+01 -0.26575707655E+02  0.39706896674E+02  0.48432015764E+02  0.00000000000E+00 0.  1.
          2    1    1    2  501    0  0.18440469824E+02  0.74351058580E+02  0.54546423105E+02  0.94039582692E+02  0.00000000000E+00 0. -1.
<scales pt_clust_5="13000.00000" pt_clust_6="13000.00000" pt_clust_7="13000.00000" pt_clust_8="13000.00000" pt_clust_9="76.60373"></scales>
<clustering>
<clus scale="   76.604">  2  9  1 -1</clus>
<clus scale="   78.966">  5  6 -1 -1</clus>
<clus scale="   92.886">  7  8 -1 -1</clus>
<clus scale="  149.931">  2  5  1 -1</clus>
<clus scale="   76.604">  2  5  1 -1</clus>
</clustering>
</event>
<event>
 9    1  0.8429841E-005  0.1830970E+03  0.7546771E-02  0.1166118E+00
         21   -1    0    0  501  502  0.00000000000E+00  0.00000000000E+00  0.28874625814E+03  0.28874625814E+03  0.00000000000E+00 0.  1.
         -4   -1    0    0    0  501 -0.00000000000E+00 -0.00000000000E+00 -0.28153971307E+03  0.28153971307E+03  0.00000000000E+00 0.  1.
         23    2    1    2    0    0  0.16174403009E+03  0.13469112725E+02 -0.20616871526E+03  0.27803446087E+03  0.91951476413E+02 0.  0.
        -24    2    1    2    0    0 -0.13494438609E+03 -0.35615025392E+02  0.15151768076E+03  0.22129361777E+03  0.80838359176E+02 0.  0.
         13    1    4    4    0    0 -0.65829289435E+02  0.15140528566E+02  0.33461511691E+02  0.75381720048E+02  0.00000000000E+00 0. -1.
        -14    1    4    4    0    0 -0.69115096658E+02 -0.50755553959E+02  0.11805616906E+03  0.14591189773E+03  0.00000000000E+00 0.  1.
        -13    1    3    3    0    0  0.96805722428E+02 -0.37411453895E+02 -0.12212812425E+03  0.16026928436E+03  0.00000000000E+00 0.  1.
         13    1    3    3    0    0  0.64938307666E+02  0.50880566620E+02 -0.84040591005E+02  0.11776517651E+03  0.00000000000E+00 0. -1.
         -3    1    1    2    0  502 -0.26799644001E+02  0.22145912668E+02  0.61857579570E+02  0.70957892561E+02  0.00000000000E+00 0.  1.
<scales pt_clust_5="13000.00000" pt_clust_6="13000.00000" pt_clust_7="13000.00000" pt_clust_8="13000.00000" pt_clust_9="34.76582"></scales>
<clustering>
<clus scale="   34.766">  1  9  2 -1</clus>
<clus scale="   80.838">  5  6 -1 -1</clus>
<clus scale="   91.951">  7  8 -1 -1</clus>
<clus scale="  177.776">  1  5  2 -1</clus>
<clus scale="   34.766">  1  5  2 -1</clus>
</clustering>
</event>
<event>
 9    1  0.8429841E-005  0.1624095E+03  0.7546771E-02  0.1187547E+00
          1   -1    0    0  502    0 -0.00000000000E+00  0.00000000000E+00  0.23193621315E+03  0.23193621315E+03  0.00000000000E+00 0. -1.
         21   -1    0    0  501  502  0.00000000000E+00 -0.00000000000E+00 -0.27559080074E+03  0.27559080074E+03  0.00000000000E+00 0. -1.
         23    2    1    2    0    0  0.10402602723E+03 -0.85441248304E+02  0.73435465206E+02  0.17857316490E+03  0.91509488134E+02 0.  0.
        -24    2    1    2    0    0 -0.15137170575E+03  0.15746764567E+02 -0.15916507027E+03  0.23477719885E+03  0.81396926288E+02 0.  0.
         13    1    4    4    0    0 -0.95007420574E+02  0.43645970464E+02 -0.12582622241E+03  0.16359590138E+03  0.00000000000E+00 0. -1.
        -14    1    4    4    0    0 -0.56364285172E+02 -0.27899205898E+02 -0.33338847866E+02  0.71181297472E+02  0.00000000000E+00 0.  1.
        -11    1    3    3    0    0  0.10403075177E+03 -0.31341126611E+02  0.47536834142E+02  0.11859348267E+03  0.00000000000E+00 0. -1.
         11    1    3    3    0    0 -0.47245385583E-02 -0.54100121693E+02  0.25898631064E+02  0.59979682231E+02  0.00000000000E+00 0.  1.
          2    1    1    2  501    0  0.47345678514E+02  0.69694483738E+02  0.42075017473E+02  0.94176650147E+02  0.00000000000E+00 0. -1.
<scales pt_clust_5="13000.00000" pt_clust_6="13000.00000" pt_clust_7="13000.00000" pt_clust_8="13000.00000" pt_clust_9="84.25522"></scales>
<clustering>
<clus scale="   81.397">  5  6 -1 -1</clus>
<clus scale="   84.255">  2  9  1 -1</clus>
<clus scale="   91.509">  7  8 -1 -1</clus>
<clus scale="  156.934">  2  5  1 -1</clus>
<clus scale="   84.255">  2  5  1 -1</clus>
</clustering>
</event>
<event>
 9    1  0.8429841E-005  0.1288517E+03  0.7546771E-02  0.1233252E+00
         21   -1    0    0  501  502  0.00000000000E+00  0.00000000000E+00  0.20685436867E+03  0.20685436867E+03  0.00000000000E+00 0. -1.
          1   -1    0    0  502    0 -0.00000000000E+00 -0.00000000000E+00 -0.42750090378E+03  0.42750090378E+03  0.00000000000E+00 0. -1.
         23    2    1    2    0    0  0.28757402061E+02  0.84867791896E+02 -0.34778242765E+03  0.37054071207E+03  0.91204561547E+02 0.  0.
        -24    2    1    2    0    0 -0.66883289033E+02 -0.80549750679E+02 -0.18170706354E+01  0.12927424877E+03  0.75808264473E+02 0.  0.
         11    1    4    4    0    0 -0.70497517067E+02 -0.90463604310E+02 -0.11093640832E+02  0.11522427038E+03  0.00000000000E+00 0. -1.
        -12    1    4    4    0    0  0.36142280342E+01  0.99138536312E+01  0.92765701969E+01  0.14049978389E+02  0.00000000000E+00 0.  1.
        -13    1    3    3    0    0  0.54207409598E+02  0.82676337267E+02 -0.23588449656E+03  0.25576417989E+03  0.00000000000E+00 0. -1.
         13    1    3    3    0    0 -0.25450007537E+02  0.21914546289E+01 -0.11189793109E+03  0.11477653218E+03  0.00000000000E+00 0.  1.
          2    1    1    2  501    0  0.38125886973E+02 -0.43180412172E+01  0.12895296317E+03  0.13454031161E+03  0.00000000000E+00 0. -1.
<scales pt_clust_5="13000.00000" pt_clust_6="13000.00000" pt_clust_7="13000.00000" pt_clust_8="13000.00000" pt_clust_9="38.36963"></scales>
<clustering>
<clus scale="   38.370">  1  9  2 -1</clus>
<clus scale="   75.808">  5  6 -1 -1</clus>
<clus scale="   91.205">  7  8 -1 -1</clus>
<clus scale="  118.454">  1  5  2 -1</clus>
<clus scale="   38.370">  1  5  2 -1</clus>
</clustering>
</event>
<event>
 9    1  0.8429841E-005  0.1291646E+03  0.7546771E-02  0.1251599E+00
          1   -1    0    0  502    0 -0.00000000000E+00  0.00000000000E+00  0.88167801053E+03  0.88167801053E+03  0.00000000000E+00 0. -1.
         21   -1    0    0  501  502  0.00000000000E+00 -0.00000000000E+00 -0.45066421438E+02  0.45066421438E+02  0.00000000000E+00 0. -1.
        -24    2    1    2    0    0 -0.35549230004E+01 -0.12022814635E+02  0.34288465691E+03  0.35235293494E+03  0.80159324276E+02 0.  0.
         23    2    1    2    0    0 -0.90269784000E+02 -0.55588491268E+01  0.83533875061E+02  0.15323768349E+03  0.91237846599E+02 0.  0.
         11    1    3    3    0    0  0.34176922641E+02 -0.93822460314E+01  0.91242980778E+02  0.97884473350E+02  0.00000000000E+00 0. -1.
        -12    1    3    3    0    0 -0.37731845642E+02 -0.26405686040E+01  0.25164167613E+03  0.25446846159E+03  0.00000000000E+00 0.  1.
        -11    1    4    4    0    0 -0.14090691971E+02 -0.31163204222E+02  0.60730074479E+02  0.69698169587E+02  0.00000000000E+00 0.  1.
         11    1    4    4    0    0 -0.76179092030E+02  0.25604355095E+02  0.22803800582E+02  0.83539513904E+02  0.00000000000E+00 0. -1.
          2    1    1    2  501    0  0.93824707001E+02  0.17581663762E+02  0.41019305713E+03  0.42115381354E+03  0.00000000000E+00 0. -1.
<scales pt_clust_5="13000.00000" pt_clust_6="13000.00000" pt_clust_7="13000.00000" pt_clust_8="13000.00000" pt_clust_9="91.42848"></scales>
<clustering>
<clus scale="   80.159">  5  6 -1 -1</clus>
<clus scale="   81.134">  1  5  2 -1</clus>
<clus scale="   91.238">  7  8 -1 -1</clus>
<clus scale="   91.428">  2  9  1 -1</clus>
<clus scale="   91.428">  2  5  1 -1</clus>
</clustering>
</event>
<event>
 9    1  0.8429841E-005  0.1025318E+03  0.7546771E-02  0.1280729E+00
          1   -1    0    0  502    0 -0.00000000000E+00  0.00000000000E+00  0.86732354805E+03  0.86732354805E+03  0.00000000000E+00 0. -1.
         21   -1    0    0  501  502  0.00000000000E+00 -0.00000000000E+00 -0.24672187230E+02  0.24672187230E+02  0.00000000000E+00 0.  1.
        -24    2    1    2    0    0 -0.30593801799E+02 -0.43762987928E+02  0.45186091076E+03  0.46225316630E+03  0.81538501685E+02 0.  0.
         23    2    1    2    0    0 -0.49932420843E+01  0.11134022851E+02  0.10950772839E+03  0.14434625408E+03  0.93246981489E+02 0.  0.
         11    1    3    3    0    0 -0.46190342425E+02 -0.50265466836E+02  0.23444356790E+03  0.24418016181E+03  0.00000000000E+00 0. -1.
        -12    1    3    3    0    0  0.15596540625E+02  0.65024789079E+01  0.21741734286E+03  0.21807300449E+03  0.00000000000E+00 0.  1.
        -13    1    4    4    0    0 -0.33908232181E+02 -0.11565785587E+02  0.84491193623E+01  0.36809281762E+02  0.00000000000E+00 0.  1.
         13    1    4    4    0    0  0.28914990097E+02  0.22699808438E+02  0.10105860903E+03  0.10753697231E+03  0.00000000000E+00 0. -1.
          2    1    1    2  501    0  0.35587043883E+02  0.32628965076E+02  0.28128272166E+03  0.28539631490E+03  0.00000000000E+00 0. -1.
<scales pt_clust_5="13000.00000" pt_clust_6="13000.00000" pt_clust_7="13000.00000" pt_clust_8="13000.00000" pt_clust_9="48.28136"></scales>
<clustering>
<clus scale="   48.281">  2  9  1 -1</clus>
<clus scale="   81.539">  5  6 -1 -1</clus>
<clus scale="   92.012">  1  5  2 -1</clus>
<clus scale="   93.247">  7  8 -1 -1</clus>
<clus scale="   48.281">  2  5  1 -1</clus>
</clustering>
</event>
<event>
 9    1  0.8429841E-005  0.1772238E+03  0.7546771E-02  0.1171200E+00
         21   -1    0    0  501  502  0.00000000000E+00  0.00000000000E+00  0.75882494155E+02  0.75882494155E+02  0.00000000000E+00 0. -1.
          1   -1    0    0  502    0 -0.00000000000E+00 -0.00000000000E+00 -0.74270024284E+03  0.74270024284E+03  0.00000000000E+00 0. -1.
        -24    2    1    2    0    0 -0.15008173129E+03 -0.82762256138E+02 -0.45726225185E+03  0.49484890146E+03  0.80078406572E+02 0.  0.
         23    2    1    2    0    0  0.96205424947E+02  0.94968787139E+02 -0.21514070247E+03  0.26821041429E+03  0.85888009382E+02 0.  0.
         13    1    3    3    0    0 -0.11822224920E+03 -0.96576647674E+02 -0.34323334322E+03  0.37564967321E+03  0.00000000000E+00 0. -1.
        -14    1    3    3    0    0 -0.31859482095E+02  0.13814391536E+02 -0.11402890862E+03  0.11919922825E+03  0.00000000000E+00 0.  1.
        -11    1    4    4    0    0  0.47454343575E+02  0.76023416530E+02 -0.69337898012E+02  0.11331027617E+03  0.00000000000E+00 0.  1.
         11    1    4    4    0    0  0.48751081372E+02  0.18945370609E+02 -0.14580280446E+03  0.15490013812E+03  0.00000000000E+00 0. -1.
          2    1    1    2  501    0  0.53876306347E+02 -0.12206531001E+02  0.55852056346E+01  0.55523421244E+02  0.00000000000E+00 0. -1.
<scales pt_clust_5="13000.00000" pt_clust_6="13000.00000" pt_clust_7="13000.00000" pt_clust_8="13000.00000" pt_clust_9="55.24179"></scales>
<clustering>
<clus scale="   55.242">  1  9  2 -1</clus>
<clus scale="   80.078">  5  6 -1 -1</clus>
<clus scale="   85.888">  7  8 -1 -1</clus>
<clus scale="  174.482">  2  5  1 -1</clus>
<clus scale="   55.242">  1  5  2 -1</clus>
</clustering>
</event>
<event>
 9    1  0.8429841E-005  0.1864814E+03  0.7546771E-02  0.1191661E+00
          1   -1    0    0  502    0 -0.00000000000E+00  0.00000000000E+00  0.41654932516E+03  0.41654932516E+03  0.00000000000E+00 0. -1.
         21   -1    0    0  501  502  0.00000000000E+00 -0.00000000000E+00 -0.24886667130E+03  0.24886667130E+03  0.00000000000E+00 0.  1.
         23    2    1    2    0    0  0.11512369708E+02 -0.21531113173E+02  0.18795043986E+03  0.21043955345E+03  0.91451158107E+02 0.  0.
        -24    2    1    2    0    0 -0.16640217947E+03  0.41998825790E+02 -0.15799131620E+03  0.24670366227E+03  0.80298532255E+02 0.  0.
         11    1    4    4    0    0 -0.63964833140E+02 -0.19552459867E+02 -0.36124377311E+02  0.76018216248E+02  0.00000000000E+00 0. -1.
        -12    1    4    4    0    0 -0.10243734633E+03  0.61551285657E+02 -0.12186693889E+03  0.17068544602E+03  0.00000000000E+00 0.  1.
        -13    1    3    3    0    0 -0.35931521794E+02  0.52210615876E+01  0.10594567013E+03  0.11199472649E+03  0.00000000000E+00 0.  1.
         13    1    3    3    0    0  0.47443891502E+02 -0.26752174761E+02  0.82004769734E+02  0.98444826956E+02  0.00000000000E+00 0. -1.
          2    1    1    2  501    0  0.15488980976E+03 -0.20467712617E+02  0.13772353020E+03  0.20827278074E+03  0.00000000000E+00 0. -1.
<scales pt_clust_5="13000.00000" pt_clust_6="13000.00000" pt_clust_7="13000.00000" pt_clust_8="13000.00000" pt_clust_9="168.30770"></scales>
<clustering>
<clus scale="   80.299">  5  6 -1 -1</clus>
<clus scale="   91.451">  7  8 -1 -1</clus>
<clus scale="   94.654">  1  7  2 -1</clus>
<clus scale="  168.308">  2  9  1 -1</clus>
<clus scale="  168.308">  2  5  1 -1</clus>
</clustering>
</event>
<event>
 9    1  0.8429841E-005  0.9625747E+02  0.7546771E-02  0.1296327E+00
         21   -1    0    0  501  502  0.00000000000E+00  0.00000000000E+00  0.19747064010E+02  0.19747064010E+02  0.00000000000E+00 0.  1.
          1   -1    0    0  502    0 -0.00000000000E+00 -0.00000000000E+00 -0.60214026975E+03  0.60214026975E+03  0.00000000000E+00 0. -1.
         23    2    1    2    0    0  0.31854344546E+02  0.25596378751E+01 -0.38536879189E+03  0.39789285597E+03  0.93746296217E+02 0.  0.
        -24    2    1    2    0    0 -0.56345282485E+01 -0.92885098481E+00 -0.15100386750E+03  0.17100363972E+03  0.80046649693E+02 0.  0.
         13    1    4    4    0    0 -0.36873718429E+02  0.11336112572E+02 -0.11713237712E+03  0.12332141877E+03  0.00000000000E+00 0. -1.
        -14    1    4    4    0    0  0.31239190181E+02 -0.12264963557E+02 -0.33871490377E+02  0.47682220948E+02  0.00000000000E+00 0.  1.
        -11    1    3    3    0    0  0.62574603193E+02  0.10764877520E+02 -0.30340308916E+03  0.30997564108E+03  0.00000000000E+00 0.  1.
         11    1    3    3    0    0 -0.30720258648E+02 -0.82052396453E+01 -0.81965702732E+02  0.87917214887E+02  0.00000000000E+00 0. -1.
          2    1    1    2  501    0 -0.26219816297E+02 -0.16307868903E+01 -0.46020546353E+02  0.52990838068E+02  0.00000000000E+00 0. -1.
<scales pt_clust_5="13000.00000" pt_clust_6="13000.00000" pt_clust_7="13000.00000" pt_clust_8="13000.00000" pt_clust_9="26.27048"></scales>
<clustering>
<clus scale="   26.270">  1  9  2 -1</clus>
<clus scale="   80.047">  5  6 -1 -1</clus>
<clus scale="   82.973">  1  5  2 -1</clus>
<clus scale="   93.746">  7  8 -1 -1</clus>
<clus scale="   26.270">  1  5  2 -1</clus>
</clustering>
</event>
<event>
 9    1  0.8429841E-005  0.8971943E+02  0.7546771E-02  0.1307206E+00
         21   -1    0    0  501  502  0.00000000000E+00  0.00000000000E+00  0.36814301096E+02  0.36814301096E+02  0.00000000000E+00 0.  1.
          3   -1    0    0  502    0 -0.00000000000E+00 -0.00000000000E+00 -0.37077511740E+03  0.37077511740E+03  0.00000000000E+00 0. -1.
         23    2    1    2    0    0 -0.23882918648E+01 -0.15077452327E+02 -0.23481940907E+03  0.25090530021E+03  0.87064810852E+02 0.  0.
        -24    2    1    2    0    0 -0.11485217940E+02  0.35641054943E+02 -0.96927817035E+02  0.13177958038E+03  0.81047276707E+02 0.  0.
         11    1    4    4    0    0 -0.42010512385E+02  0.33699902901E+02 -0.81062930351E+02  0.97322994629E+02  0.00000000000E+00 0. -1.
        -12    1    4    4    0    0  0.30525294445E+02  0.19411520421E+01 -0.15864886684E+02  0.34456585752E+02  0.00000000000E+00 0.  1.
        -11    1    3    3    0    0 -0.42025914547E+02 -0.64003427954E+01 -0.16262588946E+03  0.16809021924E+03  0.00000000000E+00 0. -1.
         11    1    3    3    0    0  0.39637622682E+02 -0.86771095318E+01 -0.72193519610E+02  0.82815080966E+02  0.00000000000E+00 0.  1.
          4    1    1    2  501    0  0.13873509805E+02 -0.20563602616E+02 -0.22135901970E+01  0.24904537908E+02  0.00000000000E+00 0. -1.
<scales pt_clust_5="13000.00000" pt_clust_6="13000.00000" pt_clust_7="13000.00000" pt_clust_8="13000.00000" pt_clust_9="24.80597"></scales>
<clustering>
<clus scale="   24.806">  1  9  2 -1</clus>
<clus scale="   81.047">  5  6 -1 -1</clus>
<clus scale="   83.893">  1  5  2 -1</clus>
<clus scale="   87.065">  7  8 -1 -1</clus>
<clus scale="   24.806">  1  5  2 -1</clus>
</clustering>
</event>
<event>
 9    1  0.8429841E-005  0.1171052E+03  0.7546771E-02  0.1250820E+00
          1   -1    0    0  502    0 -0.00000000000E+00  0.00000000000E+00  0.23739723717E+03  0.23739723717E+03  0.00000000000E+00 0. -1.
         21   -1    0    0  501  502  0.00000000000E+00 -0.00000000000E+00 -0.15438918687E+03  0.15438918687E+03  0.00000000000E+00 0.  1.
        -24    2    1    2    0    0 -0.14426860374E+02 -0.80292648540E+02  0.26355856780E+02  0.11792227082E+03  0.80969050008E+02 0.  0.
         23    2    1    2    0    0 -0.59375302584E+02  0.62954494433E+02 -0.57164229358E+02  0.13711054645E+03  0.89681982044E+02 0.  0.
         13    1    3    3    0    0 -0.32968520243E+02 -0.56759706324E+01  0.23686356435E+02  0.40990040873E+02  0.00000000000E+00 0. -1.
        -14    1    3    3    0    0  0.18541659869E+02 -0.74616677907E+02  0.26695003443E+01  0.76932229948E+02  0.00000000000E+00 0.  1.
        -13    1    4    4    0    0 -0.82873544161E+02  0.54156434860E+02 -0.50567273510E+02  0.11116650983E+03  0.00000000000E+00 0.  1.
         13    1    4    4    0    0  0.23498241577E+02  0.87980595734E+01 -0.65969558477E+01  0.25944036615E+02  0.00000000000E+00 0. -1.
          2    1    1    2  501    0  0.73802162958E+02  0.17338154107E+02  0.11381642288E+03  0.13675360676E+03  0.00000000000E+00 0. -1.
<scales pt_clust_5="13000.00000" pt_clust_6="13000.00000" pt_clust_7="13000.00000" pt_clust_8="13000.00000" pt_clust_9="75.81145"></scales>
<clustering>
<clus scale="   75.811">  2  9  1 -1</clus>
<clus scale="   80.969">  5  6 -1 -1</clus>
<clus scale="   89.682">  7  8 -1 -1</clus>
<clus scale="  110.575">  1  5  2 -1</clus>
<clus scale="   75.811">  2  5  1 -1</clus>
</clustering>
</event>
<event>
 9    1  0.8429841E-005  0.1408744E+03  0.7546771E-02  0.1224667E+00
         -4   -1    0    0    0  501 -0.00000000000E+00  0.00000000000E+00  0.19776216826E+03  0.19776216826E+03  0.00000000000E+00 0.  1.
         21   -1    0    0  501  502  0.00000000000E+00 -0.00000000000E+00 -0.38603858244E+03  0.38603858244E+03  0.00000000000E+00 0. -1.
         23    2    1    2    0    0 -0.44817739257E+02 -0.37555590038E+02  0.45223981525E+02  0.11732205827E+03  0.91105459535E+02 0.  0.
        -24    2    1    2    0    0 -0.95502978905E+02 -0.52376966709E+02 -0.26475820260E+03  0.29690623240E+03  0.78690783295E+02 0.  0.
         13    1    4    4    0    0 -0.29022607439E+02 -0.27526554494E+02 -0.18863612135E+03  0.19283051943E+03  0.00000000000E+00 0. -1.
        -14    1    4    4    0    0 -0.66480371467E+02 -0.24850412215E+02 -0.76122081243E+02  0.10407571297E+03  0.00000000000E+00 0.  1.
        -11    1    3    3    0    0 -0.51239234361E+02 -0.62930696564E+02  0.27394617269E+02  0.85651601055E+02  0.00000000000E+00 0.  1.
         11    1    3    3    0    0  0.64214951048E+01  0.25375106526E+02  0.17829364256E+02  0.31670457217E+02  0.00000000000E+00 0. -1.
         -3    1    1    2    0  502  0.14032071816E+03  0.89932556747E+02  0.31257806885E+02  0.16957246003E+03  0.00000000000E+00 0.  1.
<scales pt_clust_5="13000.00000" pt_clust_6="13000.00000" pt_clust_7="13000.00000" pt_clust_8="13000.00000" pt_clust_9="116.84763"></scales>
<clustering>
<clus scale="   78.691">  5  6 -1 -1</clus>
<clus scale="   91.105">  7  8 -1 -1</clus>
<clus scale="  108.256">  1  7  2 -1</clus>
<clus scale="  116.848">  2  9  1 -1</clus>
<clus scale="  116.848">  2  5  1 -1</clus>
</clustering>
</event>
<event>
 9    1  0.8429841E-005  0.1050152E+03  0.7546771E-02  0.1274418E+00
          3   -1    0    0  502    0 -0.00000000000E+00  0.00000000000E+00  0.35282741166E+02  0.35282741166E+02  0.00000000000E+00 0. -1.
         21   -1    0    0  501  502  0.00000000000E+00 -0.00000000000E+00 -0.54257309641E+03  0.54257309641E+03  0.00000000000E+00 0. -1.
        -24    2    1    2    0    0 -0.64990747305E+02  0.21621787881E+02 -0.11811896500E+03  0.15837862431E+03  0.80252101511E+02 0.  0.
         23    2    1    2    0    0  0.24544656087E+02  0.13501156264E+02 -0.30856529895E+03  0.32269472801E+03  0.90192141601E+02 0.  0.
         11    1    3    3    0    0 -0.56863132317E+02 -0.36570407929E+01 -0.11886286981E+03  0.13181491412E+03  0.00000000000E+00 0. -1.
        -12    1    3    3    0    0 -0.81276149877E+01  0.25278828674E+02  0.74390480786E+00  0.26563710187E+02  0.00000000000E+00 0.  1.
        -13    1    4    4    0    0 -0.21289504831E+02 -0.26145990955E+02 -0.11829326306E+03  0.12300468262E+03  0.00000000000E+00 0. -1.
         13    1    4    4    0    0  0.45834160918E+02  0.39647147218E+02 -0.19027203588E+03  0.19969004539E+03  0.00000000000E+00 0.  1.
          4    1    1    2  501    0  0.40446091218E+02 -0.35122944145E+02 -0.80606091297E+02  0.96782485266E+02  0.00000000000E+00 0. -1.
<scales pt_clust_5="13000.00000" pt_clust_6="13000.00000" pt_clust_7="13000.00000" pt_clust_8="13000.00000" pt_clust_9="53.56781"></scales>
<clustering>
<clus scale="   53.568">  2  9  1 -1</clus>
<clus scale="   80.252">  5  6 -1 -1</clus>
<clus scale="   90.192">  7  8 -1 -1</clus>
<clus scale="   96.612">  1  5  2 -1</clus>
<clus scale="   53.568">  2  5  1 -1</clus>
</clustering>
</event>
<event>
 9    1  0.8429841E-005  0.1696023E+03  0.7546771E-02  0.1179656E+00
          1   -1    0    0  502    0 -0.00000000000E+00  0.00000000000E+00  0.82935522714E+03  0.82935522714E+03  0.00000000000E+00 0. -1.
         21   -1    0    0  501  502  0.00000000000E+00 -0.00000000000E+00 -0.16689887105E+03  0.16689887105E+03  0.00000000000E+00 0. -1.
         23    2    1    2    0    0  0.30282462477E+02 -0.14445134116E+03  0.44985164782E+03  0.48230021220E+03  0.91998761677E+02 0.  0.
        -24    2    1    2    0    0 -0.47478100593E+02  0.12924297700E+03  0.34457248724E+03  0.38000434698E+03  0.81946248387E+02 0.  0.
         11    1    4    4    0    0  0.26190036309E+01  0.89933175314E+02  0.14624371349E+03  0.17170340397E+03  0.00000000000E+00 0. -1.
        -12    1    4    4    0    0 -0.50097104223E+02  0.39309801685E+02  0.19832877375E+03  0.20830094301E+03  0.00000000000E+00 0.  1.
        -11    1    3    3    0    0  0.20816367293E+02  0.42125161141E+01  0.96905096193E+02  0.99205161698E+02  0.00000000000E+00 0. -1.
         11    1    3    3    0    0  0.94660951843E+01 -0.14866385728E+03  0.35294655162E+03  0.38309505051E+03  0.00000000000E+00 0.  1.
          2    1    1    2  501    0  0.17195638115E+02  0.15208364165E+02 -0.13196777897E+03  0.13394953900E+03  0.00000000000E+00 0. -1.
<scales pt_clust_5="13000.00000" pt_clust_6="13000.00000" pt_clust_7="13000.00000" pt_clust_8="13000.00000" pt_clust_9="22.95614"></scales>
<clustering>
<clus scale="   22.956">  2  9  1 -1</clus>
<clus scale="   81.946">  5  6 -1 -1</clus>
<clus scale="   91.999">  7  8 -1 -1</clus>
<clus scale="  164.367">  2  5  1 -1</clus>
<clus scale="   22.956">  2  5  1 -1</clus>
</clustering>
</event>
<event>
 9    1  0.8429841E-005  0.1080280E+03  0.7546771E-02  0.1269040E+00
          1   -1    0    0  502    0 -0.00000000000E+00  0.00000000000E+00  0.62063357740E+03  0.62063357740E+03  0.00000000000E+00 0. -1.
         21   -1    0    0  501  502  0.00000000000E+00 -0.00000000000E+00 -0.10068267632E+03  0.10068267632E+03  0.00000000000E+00 0. -1.
         23    2    1    2    0    0 -0.54011269793E+02  0.16492096948E+02  0.53666232683E+03  0.54758388366E+03  0.93018546932E+02 0.  0.
        -24    2    1    2    0    0  0.50893151944E+02  0.11945319279E+02  0.44083429057E+02  0.10654290904E+03  0.81702136953E+02 0.  0.
         13    1    4    4    0    0  0.38198263013E+01  0.28326480055E+02  0.48719995640E+02  0.56485560282E+02  0.00000000000E+00 0. -1.
        -14    1    4    4    0    0  0.47073325643E+02 -0.16381160775E+02 -0.46365665824E+01  0.50057348762E+02  0.00000000000E+00 0.  1.
        -11    1    3    3    0    0 -0.24752285759E+02 -0.38915461247E+02  0.23495011333E+03  0.23943400871E+03  0.00000000000E+00 0.  1.
         11    1    3    3    0    0 -0.29258984034E+02  0.55407558195E+02  0.30171221351E+03  0.30814987495E+03  0.00000000000E+00 0. -1.
          2    1    1    2  501    0  0.31181178484E+01 -0.28437416228E+02 -0.60794854810E+02  0.67189461019E+02  0.00000000000E+00 0. -1.
<scales pt_clust_5="13000.00000" pt_clust_6="13000.00000" pt_clust_7="13000.00000" pt_clust_8="13000.00000" pt_clust_9="28.60785"></scales>
<clustering>
<clus scale="   28.608">  2  9  1 -1</clus>
<clus scale="   81.702">  5  6 -1 -1</clus>
<clus scale="   93.019">  7  8 -1 -1</clus>
<clus scale="   98.452">  2  5  1 -1</clus>
<clus scale="   28.608">  2  5  1 -1</clus>
</clustering>
</event>
<event>
 9    1  0.8429841E-005  0.1504000E+03  0.7546771E-02  0.1224396E+00
         21   -1    0    0  501  502  0.00000000000E+00  0.00000000000E+00  0.27939998910E+02  0.27939998910E+02  0.00000000000E+00 0. -1.
          1   -1    0    0  502    0 -0.00000000000E+00 -0.00000000000E+00 -0.12082850426E+04  0.12082850426E+04  0.00000000000E+00 0. -1.
        -24    2    1    2    0    0 -0.35037581036E+02 -0.18954335900E+02 -0.33567030239E+03  0.34738821151E+03  0.80106920153E+02 0.  0.
         23    2    1    2    0    0  0.13981272410E+03  0.35209731948E+02 -0.53747582197E+03  0.56385491582E+03  0.90910856572E+02 0.  0.
         11    1    3    3    0    0 -0.82294668928E+01  0.31282900696E+02 -0.13223674633E+03  0.13613559815E+03  0.00000000000E+00 0. -1.
        -12    1    3    3    0    0 -0.26808114143E+02 -0.50237236596E+02 -0.20343355605E+03  0.21125261336E+03  0.00000000000E+00 0.  1.
        -13    1    4    4    0    0  0.64297199709E+01  0.36219007371E+02 -0.12985609788E+03  0.13496578807E+03  0.00000000000E+00 0.  1.
         13    1    4    4    0    0  0.13338300413E+03 -0.10092754226E+01 -0.40761972409E+03  0.42888912775E+03  0.00000000000E+00 0. -1.
          2    1    1    2  501    0 -0.10477514307E+03 -0.16255396047E+02 -0.30719891928E+03  0.32498191413E+03  0.00000000000E+00 0. -1.
<scales pt_clust_5="13000.00000" pt_clust_6="13000.00000" pt_clust_7="13000.00000" pt_clust_8="13000.00000" pt_clust_9="119.81396"></scales>
<clustering>
<clus scale="   80.107">  5  6 -1 -1</clus>
<clus scale="   89.465">  2  5  1 -1</clus>
<clus scale="   90.911">  7  8 -1 -1</clus>
<clus scale="  119.814">  1  9  2 -1</clus>
<clus scale="  119.814">  1  5  2 -1</clus>
</clustering>
</event>
<event>
 9    1  0.8429841E-005  0.1913430E+03  0.7546771E-02  0.1159253E+00
          1   -1    0    0  502    0 -0.00000000000E+00  0.00000000000E+00  0.38302415722E+03  0.38302415722E+03  0.00000000000E+00 0. -1.
         21   -1    0    0  501  502  0.00000000000E+00 -0.00000000000E+00 -0.48701953762E+03  0.48701953762E+03  0.00000000000E+00 0. -1.
        -24    2    1    2    0    0 -0.87478480532E+02 -0.14160836006E+03  0.19148537947E+03  0.26348027998E+03  0.71061910964E+02 0.  0.
         23    2    1    2    0    0 -0.47507674957E+02  0.21120269745E+03  0.40032533803E+02  0.23827846512E+03  0.91161749574E+02 0.  0.
         11    1    3    3    0    0 -0.65568411501E+02 -0.79232628543E+02  0.16012437091E+03  0.19030722575E+03  0.00000000000E+00 0. -1.
        -12    1    3    3    0    0 -0.21910069032E+02 -0.62375731519E+02  0.31361008566E+02  0.73173054232E+02  0.00000000000E+00 0.  1.
        -13    1    4    4    0    0  0.20396600197E+02  0.37534065945E+02  0.28697457499E+02  0.51462330620E+02  0.00000000000E+00 0.  1.
         13    1    4    4    0    0 -0.67904275154E+02  0.17366863151E+03  0.11335076304E+02  0.18681613450E+03  0.00000000000E+00 0. -1.
          2    1    1    2  501    0  0.13498615549E+03 -0.69594337392E+02 -0.33551329368E+03  0.36828494974E+03  0.00000000000E+00 0. -1.
<scales pt_clust_5="13000.00000" pt_clust_6="13000.00000" pt_clust_7="13000.00000" pt_clust_8="13000.00000" pt_clust_9="151.87045"></scales>
<clustering>
<clus scale="   71.062">  5  6 -1 -1</clus>
<clus scale="   91.162">  7  8 -1 -1</clus>
<clus scale="  151.870">  2  9  1 -1</clus>
<clus scale="  182.624">  1  5  2 -1</clus>
<clus scale="  151.870">  2  5  1 -1</clus>
</clustering>
</event>
<event>
 9    1  0.8429841E-005  0.1167115E+03  0.7546771E-02  0.1253582E+00
          1   -1    0    0  502    0 -0.00000000000E+00  0.00000000000E+00  0.72057605833E+03  0.72057605833E+03  0.00000000000E+00 0. -1.
         21   -1    0    0  501  502  0.00000000000E+00 -0.00000000000E+00 -0.50545209799E+02  0.50545209799E+02  0.00000000000E+00 0.  1.
         23    2    1    2    0    0 -0.55885968345E+02 -0.45861841818E+02  0.21078910220E+03  0.24257791255E+03  0.95840743210E+02 0.  0.
        -24    2    1    2    0    0  0.83333742632E+02 -0.56234184986E+02  0.12282203422E+03  0.17590302649E+03  0.75827609851E+02 0.  0.
         13    1    4    4    0    0  0.27309824618E+02  0.18143194342E+02  0.30638521568E+02  0.44874503066E+02  0.00000000000E+00 0. -1.
        -14    1    4    4    0    0  0.56023918015E+02 -0.74377379328E+02  0.92183512654E+02  0.13102852342E+03  0.00000000000E+00 0.  1.
        -11    1    3    3    0    0 -0.21596363347E+02 -0.70250852843E+02  0.16361494246E+03  0.17936397250E+03  0.00000000000E+00 0.  1.
         11    1    3    3    0    0 -0.34289604997E+02  0.24389011024E+02  0.47174159736E+02  0.63213940048E+02  0.00000000000E+00 0. -1.
          2    1    1    2  501    0 -0.27447774288E+02  0.10209602680E+03  0.33641971211E+03  0.35264032909E+03  0.00000000000E+00 0. -1.
<scales pt_clust_5="13000.00000" pt_clust_6="13000.00000" pt_clust_7="13000.00000" pt_clust_8="13000.00000" pt_clust_9="105.72129"></scales>
<clustering>
<clus scale="   75.828">  5  6 -1 -1</clus>
<clus scale="   95.841">  7  8 -1 -1</clus>
<clus scale="  105.721">  2  9  1 -1</clus>
<clus scale="  105.721">  2  5  1 -1</clus>
<clus scale="  105.721">  2  5  1 -1</clus>
</clustering>
</event>
<event>
 9    1  0.8429841E-005  0.1171262E+03  0.7546771E-02  0.1250124E+00
          1   -1    0    0  502    0 -0.00000000000E+00  0.00000000000E+00  0.41028191633E+03  0.41028191633E+03  0.00000000000E+00 0. -1.
         21   -1    0    0  501  502  0.00000000000E+00 -0.00000000000E+00 -0.48129223896E+02  0.48129223896E+02  0.00000000000E+00 0. -1.
        -24    2    1    2    0    0 -0.49106953995E+02  0.56585349766E+02  0.20673968274E+03  0.23536424742E+03  0.83914467210E+02 0.  0.
         23    2    1    2    0    0  0.62643470083E+02 -0.41249017006E+02  0.16320554809E+03  0.20115707724E+03  0.90567284655E+02 0.  0.
         11    1    3    3    0    0 -0.40412385202E+02  0.59066730184E+02  0.76302667011E+02  0.10461422697E+03  0.00000000000E+00 0. -1.
        -12    1    3    3    0    0 -0.86945687931E+01 -0.24813804181E+01  0.13043701573E+03  0.13075002045E+03  0.00000000000E+00 0.  1.
        -11    1    4    4    0    0  0.81964488506E+02 -0.20585033361E+02  0.94060969021E+02  0.12644914736E+03  0.00000000000E+00 0. -1.
         11    1    4    4    0    0 -0.19321018424E+02 -0.20663983646E+02  0.69144579068E+02  0.74707929884E+02  0.00000000000E+00 0.  1.
          2    1    1    2  501    0 -0.13536516088E+02 -0.15336332760E+02 -0.77925384004E+01  0.21889815555E+02  0.00000000000E+00 0. -1.
<scales pt_clust_5="13000.00000" pt_clust_6="13000.00000" pt_clust_7="13000.00000" pt_clust_8="13000.00000" pt_clust_9="20.45582"></scales>
<clustering>
<clus scale="   20.456">  2  9  1 -1</clus>
<clus scale="   83.914">  5  6 -1 -1</clus>
<clus scale="   90.567">  7  8 -1 -1</clus>
<clus scale="  112.061">  1  5  2 -1</clus>
<clus scale="   20.456">  2  5  1 -1</clus>
</clustering>
</event>
<event>
 9    1  0.8429841E-005  0.1366252E+03  0.7546771E-02  0.1228383E+00
         21   -1    0    0  501  502  0.00000000000E+00  0.00000000000E+00  0.15212135612E+03  0.15212135612E+03  0.00000000000E+00 0.  1.
          1   -1    0    0  502    0 -0.00000000000E+00 -0.00000000000E+00 -0.14384390277E+03  0.14384390277E+03  0.00000000000E+00 0. -1.
        -24    2    1    2    0    0  0.75469678369E+02  0.52787334922E+02 -0.12590491108E+02  0.12422579777E+03  0.82409667416E+02 0.  0.
         23    2    1    2    0    0 -0.39865053206E+02 -0.25019885688E+02  0.20499663308E+02  0.12658576580E+03  0.11570869786E+03 0.  0.
         13    1    3    3    0    0  0.63862975723E+02  0.47483384840E+02 -0.43565242821E+02  0.90725310064E+02  0.00000000000E+00 0. -1.
        -14    1    3    3    0    0  0.11606702646E+02  0.53039500818E+01  0.30974751713E+02  0.33500487705E+02  0.00000000000E+00 0.  1.
        -11    1    4    4    0    0 -0.77904504840E+02 -0.32321171768E+02  0.24007626208E+02  0.87693421275E+02  0.00000000000E+00 0. -1.
         11    1    4    4    0    0  0.38039451633E+02  0.73012860793E+01 -0.35079628998E+01  0.38892344525E+02  0.00000000000E+00 0.  1.
          2    1    1    2  501    0 -0.35604625163E+02 -0.27767449233E+02  0.36828114340E+00  0.45153695318E+02  0.00000000000E+00 0. -1.
<scales pt_clust_5="13000.00000" pt_clust_6="13000.00000" pt_clust_7="13000.00000" pt_clust_8="13000.00000" pt_clust_9="45.15222"></scales>
<clustering>
<clus scale="   45.152">  1  9  2 -1</clus>
<clus scale="   82.410">  5  6 -1 -1</clus>
<clus scale="  109.860">  2  5  1 -1</clus>
<clus scale="  115.709">  7  8 -1 -1</clus>
<clus scale="   45.152">  1  5  2 -1</clus>
</clustering>
</event>
<event>
 9    1  0.8429841E-005  0.1570735E+03  0.7546771E-02  0.1194788E+00
          1   -1    0    0  502    0 -0.00000000000E+00  0.00000000000E+00  0.38090675888E+03  0.38090675888E+03  0.00000000000E+00 0. -1.
         21   -1    0    0  501  502  0.00000000000E+00 -0.00000000000E+00 -0.16996014821E+03  0.16996014821E+03  0.00000000000E+00 0. -1.
         23    2    1    2    0    0  0.78863640728E+02  0.11480825682E+03  0.29958750393E+03  0.34316352350E+03  0.92779963825E+02 0.  0.
        -24    2    1    2    0    0 -0.16552735431E+02 -0.85794728253E+02 -0.36848122801E+02  0.12163989057E+03  0.76182349523E+02 0.  0.
         11    1    4    4    0    0 -0.20637137152E+02 -0.98432794754E+02 -0.24520676257E+02  0.10351893584E+03  0.00000000000E+00 0. -1.
        -12    1    4    4    0    0  0.40844017211E+01  0.12638066501E+02 -0.12327446543E+02  0.18120954737E+02  0.00000000000E+00 0.  1.
        -11    1    3    3    0    0 -0.51424335376E+01  0.26578704916E+02  0.97674352163E+01  0.28779766649E+02  0.00000000000E+00 0.  1.
         11    1    3    3    0    0  0.84006074265E+02  0.88229551900E+02  0.28982006871E+03  0.31438375685E+03  0.00000000000E+00 0. -1.
          2    1    1    2  501    0 -0.62310905297E+02 -0.29013528563E+02 -0.51792770456E+02  0.86063493016E+02  0.00000000000E+00 0. -1.
<scales pt_clust_5="13000.00000" pt_clust_6="13000.00000" pt_clust_7="13000.00000" pt_clust_8="13000.00000" pt_clust_9="68.73452"></scales>
<clustering>
<clus scale="   68.735">  2  9  1 -1</clus>
<clus scale="   76.182">  5  6 -1 -1</clus>
<clus scale="   92.780">  7  8 -1 -1</clus>
<clus scale="  147.877">  2  5  1 -1</clus>
<clus scale="   68.735">  2  5  1 -1</clus>
</clustering>
</event>
<event>
 9    1  0.8429841E-005  0.1286703E+03  0.7546771E-02  0.1232517E+00
         21   -1    0    0  501  502  0.00000000000E+00  0.00000000000E+00  0.14213360607E+03  0.14213360607E+03  0.00000000000E+00 0.  1.
         -2   -1    0    0    0  501 -0.00000000000E+00 -0.00000000000E+00 -0.29676434087E+03  0.29676434087E+03  0.00000000000E+00 0.  1.
         23    2    1    2    0    0  0.83354149314E+02  0.31034099244E+02 -0.15600007058E+03  0.20172855657E+03  0.91909515228E+02 0.  0.
        -24    2    1    2    0    0 -0.10904480794E+03  0.36338422604E+02  0.51376649484E+02  0.14942089715E+03  0.80472313845E+02 0.  0.
         13    1    4    4    0    0 -0.26498543827E+02  0.17469148136E+02 -0.20975998532E+02  0.38043875670E+02  0.00000000000E+00 0. -1.
        -14    1    4    4    0    0 -0.82546264116E+02  0.18869274469E+02  0.72352648016E+02  0.11137702148E+03  0.00000000000E+00 0.  1.
        -11    1    3    3    0    0  0.63983383858E+02  0.63331205009E+02 -0.11519081072E+03  0.14619725652E+03  0.00000000000E+00 0.  1.
         11    1    3    3    0    0  0.19370765456E+02 -0.32297105765E+02 -0.40809259860E+02  0.55531300052E+02  0.00000000000E+00 0. -1.
         -1    1    1    2    0  502  0.25690658629E+02 -0.67372521848E+02 -0.50007313699E+02  0.87748493231E+02  0.00000000000E+00 0.  1.
<scales pt_clust_5="13000.00000" pt_clust_6="13000.00000" pt_clust_7="13000.00000" pt_clust_8="13000.00000" pt_clust_9="72.10459"></scales>
<clustering>
<clus scale="   72.105">  1  9  2 -1</clus>
<clus scale="   80.472">  5  6 -1 -1</clus>
<clus scale="   91.910">  7  8 -1 -1</clus>
<clus scale="  120.766">  1  5  2 -1</clus>
<clus scale="   72.105">  1  5  2 -1</clus>
</clustering>
</event>
<event>
 9    1  0.8429841E-005  0.1029628E+03  0.7546771E-02  0.1281350E+00
         21   -1    0    0  501  502  0.00000000000E+00  0.00000000000E+00  0.41415914626E+03  0.41415914626E+03  0.00000000000E+00 0.  1.
         -2   -1    0    0    0  501 -0.00000000000E+00 -0.00000000000E+00 -0.25594977731E+03  0.25594977731E+03  0.00000000000E+00 0.  1.
         23    2    1    2    0    0  0.14912439737E+02 -0.23468277099E+02 -0.16849769329E+03  0.19570011301E+03  0.95571547543E+02 0.  0.
        -24    2    1    2    0    0 -0.76658832372E+02  0.32257672358E+02 -0.23579051754E+02  0.11861359963E+03  0.81216256560E+02 0.  0.
         13    1    4    4    0    0 -0.48855831876E+02 -0.21331815581E+02 -0.23453583598E+02  0.58240958507E+02  0.00000000000E+00 0. -1.
        -14    1    4    4    0    0 -0.27803000496E+02  0.53589487939E+02 -0.12546815634E+00  0.60372641125E+02  0.00000000000E+00 0.  1.
        -11    1    3    3    0    0 -0.31212671690E+02 -0.46600811182E+01 -0.12701415263E+03  0.13087605663E+03  0.00000000000E+00 0.  1.
         11    1    3    3    0    0  0.46125111427E+02 -0.18808195981E+02 -0.41483540655E+02  0.64824056379E+02  0.00000000000E+00 0. -1.
         -1    1    1    2    0  502  0.61746392636E+02 -0.87893952591E+01  0.35028611399E+03  0.35579521093E+03  0.00000000000E+00 0.  1.
<scales pt_clust_5="13000.00000" pt_clust_6="13000.00000" pt_clust_7="13000.00000" pt_clust_8="13000.00000" pt_clust_9="62.36883"></scales>
<clustering>
<clus scale="   62.369">  1  9  2 -1</clus>
<clus scale="   81.216">  5  6 -1 -1</clus>
<clus scale="   89.797">  1  5  2 -1</clus>
<clus scale="   95.572">  7  8 -1 -1</clus>
<clus scale="   62.369">  1  5  2 -1</clus>
</clustering>
</event>
<event>
 9    1  0.8429841E-005  0.1279145E+03  0.7546771E-02  0.1246287E+00
         -4   -1    0    0    0  501 -0.00000000000E+00  0.00000000000E+00  0.36409781876E+03  0.36409781876E+03  0.00000000000E+00 0.  1.
         21   -1    0    0  501  502  0.00000000000E+00 -0.00000000000E+00 -0.79447900998E+02  0.79447900998E+02  0.00000000000E+00 0.  1.
        -24    2    1    2    0    0  0.45301690833E+01 -0.43232073613E+02  0.14392500865E+03  0.17130708634E+03  0.82110748965E+02 0.  0.
         23    2    1    2    0    0  0.79155384357E+02 -0.19471655552E+02  0.45033082309E+02  0.13049253921E+03  0.91408993235E+02 0.  0.
         13    1    3    3    0    0  0.21575158719E+02 -0.13757213222E+02  0.13316168141E+03  0.13559786793E+03  0.00000000000E+00 0. -1.
        -14    1    3    3    0    0 -0.17044989636E+02 -0.29474860390E+02  0.10763327237E+02  0.35709218417E+02  0.00000000000E+00 0.  1.
        -11    1    4    4    0    0  0.94820319408E+02 -0.32284619380E+02  0.27906420886E+02  0.10398056524E+03  0.00000000000E+00 0.  1.
         11    1    4    4    0    0 -0.15664935051E+02  0.12812963828E+02  0.17126661423E+02  0.26511973968E+02  0.00000000000E+00 0. -1.
         -3    1    1    2    0  502 -0.83685553440E+02  0.62703729165E+02  0.95691826805E+02  0.14174609421E+03  0.00000000000E+00 0.  1.
<scales pt_clust_5="13000.00000" pt_clust_6="13000.00000" pt_clust_7="13000.00000" pt_clust_8="13000.00000" pt_clust_9="89.47911"></scales>
<clustering>
<clus scale="   82.111">  5  6 -1 -1</clus>
<clus scale="   91.409">  7  8 -1 -1</clus>
<clus scale="   92.907">  1  5  2 -1</clus>
<clus scale="   89.479">  2  9  1 -1</clus>
<clus scale="   89.479">  2  5  1 -1</clus>
</clustering>
</event>
<event>
 9    1  0.8429841E-005  0.1899258E+03  0.7546771E-02  0.1158748E+00
         21   -1    0    0  501  502  0.00000000000E+00  0.00000000000E+00  0.58984278450E+03  0.58984278450E+03  0.00000000000E+00 0.  1.
          3   -1    0    0  502    0 -0.00000000000E+00 -0.00000000000E+00 -0.82800673660E+02  0.82800673660E+02  0.00000000000E+00 0. -1.
        -24    2    1    2    0    0 -0.94153169787E+02 -0.13945617812E+03  0.13388873983E+03  0.23473320452E+03  0.94130960108E+02 0.  0.
         23    2    1    2    0    0  0.11703300234E+03  0.11198846145E+03  0.26474534684E+03  0.32376008106E+03  0.92153959655E+02 0.  0.
         13    1    3    3    0    0 -0.58345237452E+02 -0.14323438684E+03  0.93955345510E+02  0.18096370702E+03  0.00000000000E+00 0. -1.
        -14    1    3    3    0    0 -0.35807932335E+02  0.37782087184E+01  0.39933394322E+02  0.53769497500E+02  0.00000000000E+00 0.  1.
        -13    1    4    4    0    0  0.32682021130E+02  0.84787809759E+02  0.17743298344E+03  0.19934781364E+03  0.00000000000E+00 0.  1.
         13    1    4    4    0    0  0.84350981207E+02  0.27200651694E+02  0.87312363397E+02  0.12441226742E+03  0.00000000000E+00 0. -1.
          4    1    1    2  501    0 -0.22879832550E+02  0.27467716670E+02  0.10840802417E+03  0.11415017259E+03  0.00000000000E+00 0. -1.
<scales pt_clust_5="13000.00000" pt_clust_6="13000.00000" pt_clust_7="13000.00000" pt_clust_8="13000.00000" pt_clust_9="35.74860"></scales>
<clustering>
<clus scale="   35.749">  1  9  2 -1</clus>
<clus scale="   92.154">  7  8 -1 -1</clus>
<clus scale="   94.131">  5  6 -1 -1</clus>
<clus scale="  188.954">  1  7  2 -1</clus>
<clus scale="   35.749">  1  5  2 -1</clus>
</clustering>
</event>
<event>
 9    1  0.8429841E-005  0.1269271E+03  0.7546771E-02  0.1247886E+00
          1   -1    0    0  502    0 -0.00000000000E+00  0.00000000000E+00  0.11684108025E+04  0.11684108025E+04  0.00000000000E+00 0. -1.
         21   -1    0    0  501  502  0.00000000000E+00 -0.00000000000E+00 -0.95037749371E+02  0.95037749371E+02  0.00000000000E+00 0. -1.
        -24    2    1    2    0    0  0.41797421232E+02  0.31164750295E+01  0.89943724109E+03  0.90413902240E+03  0.81995636033E+02 0.  0.
         23    2    1    2    0    0  0.73741261782E+02 -0.34759632315E+02 -0.27124029848E+02  0.12526778812E+03  0.91160846961E+02 0.  0.
         13    1    3    3    0    0  0.49637413463E+02  0.13832615628E+02  0.28903021728E+03  0.29358760289E+03  0.00000000000E+00 0. -1.
        -14    1    3    3    0    0 -0.78399922317E+01 -0.10716140599E+02  0.61040702381E+03  0.61055141951E+03  0.00000000000E+00 0.  1.
        -11    1    4    4    0    0  0.38574771659E+02 -0.39076653298E+02  0.26521132959E+02  0.60978425160E+02  0.00000000000E+00 0.  1.
         11    1    4    4    0    0  0.35166490123E+02  0.43170209834E+01 -0.53645162808E+02  0.64289362965E+02  0.00000000000E+00 0. -1.
          2    1    1    2  501    0 -0.11553868301E+03  0.31643157285E+02  0.20105984193E+03  0.23404174139E+03  0.00000000000E+00 0. -1.
<scales pt_clust_5="13000.00000" pt_clust_6="13000.00000" pt_clust_7="13000.00000" pt_clust_8="13000.00000" pt_clust_9="88.31875"></scales>
<clustering>
<clus scale="   81.996">  5  6 -1 -1</clus>
<clus scale="   91.161">  7  8 -1 -1</clus>
<clus scale="   92.087">  1  5  2 -1</clus>
<clus scale="   88.319">  2  9  1 -1</clus>
<clus scale="   88.319">  2  5  1 -1</clus>
</clustering>
</event>
<event>
 9    1  0.8429841E-005  0.1263023E+03  0.7546771E-02  0.1244582E+00
          1   -1    0    0  502    0 -0.00000000000E+00  0.00000000000E+00  0.25269389926E+03  0.25269389926E+03  0.00000000000E+00 0. -1.
         21   -1    0    0  501  502  0.00000000000E+00 -0.00000000000E+00 -0.17080566934E+03  0.17080566934E+03  0.00000000000E+00 0. -1.
        -24    2    1    2    0    0 -0.55420107702E+02  0.45109264527E+00  0.14257287324E+03  0.17407745440E+03  0.83092383068E+02 0.  0.
         23    2    1    2    0    0 -0.58370499330E+02  0.40188581485E+02 -0.58469796950E+02  0.12857183117E+03  0.89943100575E+02 0.  0.
         11    1    3    3    0    0 -0.24305821473E+02  0.24740096847E+02  0.12698975313E+03  0.13164058169E+03  0.00000000000E+00 0. -1.
        -12    1    3    3    0    0 -0.31114286229E+02 -0.24289004202E+02  0.15583120117E+02  0.42436872708E+02  0.00000000000E+00 0.  1.
        -11    1    4    4    0    0 -0.73670044888E+02  0.25165666951E+01 -0.40644461061E+02  0.84175892253E+02  0.00000000000E+00 0. -1.
         11    1    4    4    0    0  0.15299545558E+02  0.37672014790E+02 -0.17825335889E+02  0.44395938916E+02  0.00000000000E+00 0.  1.
          2    1    1    2  501    0  0.11379060703E+03 -0.40639674131E+02 -0.22148463712E+01  0.12085028302E+03  0.00000000000E+00 0. -1.
<scales pt_clust_5="13000.00000" pt_clust_6="13000.00000" pt_clust_7="13000.00000" pt_clust_8="13000.00000" pt_clust_9="88.67082"></scales>
<clustering>
<clus scale="   83.092">  5  6 -1 -1</clus>
<clus scale="   89.943">  7  8 -1 -1</clus>
<clus scale="   99.880">  1  5  2 -1</clus>
<clus scale="   88.671">  2  9  1 -1</clus>
<clus scale="   88.671">  2  5  1 -1</clus>
</clustering>
</event>
<event>
 9    1  0.8429841E-005  0.9883572E+02  0.7546771E-02  0.1288558E+00
         21   -1    0    0  501  502  0.00000000000E+00  0.00000000000E+00  0.78910645537E+02  0.78910645537E+02  0.00000000000E+00 0. -1.
          1   -1    0    0  502    0 -0.00000000000E+00 -0.00000000000E+00 -0.32755064076E+03  0.32755064076E+03  0.00000000000E+00 0. -1.
        -24    2    1    2    0    0  0.27697569501E+02  0.22618953896E+02 -0.23086223716E+03  0.24719677960E+03  0.80809051875E+02 0.  0.
         23    2    1    2    0    0 -0.42545334416E+02 -0.64877421267E+01 -0.55470082899E+02  0.11565965068E+03  0.91913156948E+02 0.  0.
         13    1    3    3    0    0  0.82883328098E+01 -0.30608611799E+02 -0.82285016784E+02  0.88183941646E+02  0.00000000000E+00 0. -1.
        -14    1    3    3    0    0  0.19409236692E+02  0.53227565695E+02 -0.14857722038E+03  0.15901283795E+03  0.00000000000E+00 0.  1.
        -11    1    4    4    0    0 -0.70477785484E+01  0.35533585093E+02  0.17747547815E+01  0.36269223959E+02  0.00000000000E+00 0.  1.
         11    1    4    4    0    0 -0.35497555868E+02 -0.42021327220E+02 -0.57244837681E+02  0.79390426722E+02  0.00000000000E+00 0. -1.
          2    1    1    2  501    0  0.14847764915E+02 -0.16131211770E+02  0.37692324841E+02  0.43604856015E+02  0.00000000000E+00 0. -1.
<scales pt_clust_5="13000.00000" pt_clust_6="13000.00000" pt_clust_7="13000.00000" pt_clust_8="13000.00000" pt_clust_9="21.92424"></scales>
<clustering>
<clus scale="   21.924">  1  9  2 -1</clus>
<clus scale="   80.809">  5  6 -1 -1</clus>
<clus scale="   88.603">  2  5  1 -1</clus>
<clus scale="   91.913">  7  8 -1 -1</clus>
<clus scale="   21.924">  1  5  2 -1</clus>
</clustering>
</event>
<event>
 9    1  0.8429841E-005  0.1745253E+03  0.7546771E-02  0.1201787E+00
         21   -1    0    0  501  502  0.00000000000E+00  0.00000000000E+00  0.39788492748E+03  0.39788492748E+03  0.00000000000E+00 0.  1.
         -2   -1    0    0    0  501 -0.00000000000E+00 -0.00000000000E+00 -0.14926844560E+03  0.14926844560E+03  0.00000000000E+00 0.  1.
         23    2    1    2    0    0 -0.50823147021E+01  0.15296964815E+02 -0.36287913553E+02  0.99417915062E+02  0.91144292799E+02 0.  0.
        -24    2    1    2    0    0 -0.15535670802E+03  0.29381079705E+02  0.19036898911E+03  0.25623153972E+03  0.66447688888E+02 0.  0.
         13    1    4    4    0    0 -0.23405556716E+02 -0.19221223416E+02  0.42375789203E+02  0.52086303625E+02  0.00000000000E+00 0. -1.
        -14    1    4    4    0    0 -0.13195115131E+03  0.48602303122E+02  0.14799319990E+03  0.20414523609E+03  0.00000000000E+00 0.  1.
        -11    1    3    3    0    0 -0.17638380671E+02 -0.35775978539E+02 -0.17665860671E+02  0.43624714857E+02  0.00000000000E+00 0. -1.
         11    1    3    3    0    0  0.12556065969E+02  0.51072943354E+02 -0.18622052882E+02  0.55793200204E+02  0.00000000000E+00 0.  1.
         -1    1    1    2    0  502  0.16043902273E+03 -0.44678044520E+02  0.94535406330E+02  0.19150391830E+03  0.00000000000E+00 0.  1.
<scales pt_clust_5="13000.00000" pt_clust_6="13000.00000" pt_clust_7="13000.00000" pt_clust_8="13000.00000" pt_clust_9="161.38095"></scales>
<clustering>
<clus scale="   66.448">  5  6 -1 -1</clus>
<clus scale="   91.144">  7  8 -1 -1</clus>
<clus scale="   92.559">  2  7  1 -1</clus>
<clus scale="  161.381">  1  9  2 -1</clus>
<clus scale="  161.381">  1  5  2 -1</clus>
</clustering>
</event>
<event>
 9    1  0.8429841E-005  0.1655744E+03  0.7546771E-02  0.1183752E+00
          1   -1    0    0  502    0 -0.00000000000E+00  0.00000000000E+00  0.64549862744E+03  0.64549862744E+03  0.00000000000E+00 0. -1.
         21   -1    0    0  501  502  0.00000000000E+00 -0.00000000000E+00 -0.84125798264E+02  0.84125798264E+02  0.00000000000E+00 0. -1.
         23    2    1    2    0    0 -0.13174459244E+03  0.32889448571E+02  0.36105221078E+03  0.39616403035E+03  0.90271183505E+02 0.  0.
        -24    2    1    2    0    0  0.13101860953E+03 -0.62183634803E+02  0.23501519826E+03  0.28804684814E+03  0.81891164537E+02 0.  0.
         13    1    4    4    0    0  0.10300372678E+03 -0.82074947104E+02  0.19491840848E+03  0.23524296087E+03  0.00000000000E+00 0. -1.
        -14    1    4    4    0    0  0.28014882743E+02  0.19891312301E+02  0.40096789779E+02  0.52803887270E+02  0.00000000000E+00 0.  1.
        -11    1    3    3    0    0 -0.41093937152E+02  0.45007604551E+02  0.79773393635E+02  0.10039019110E+03  0.00000000000E+00 0.  1.
         11    1    3    3    0    0 -0.90650655283E+02 -0.12118155980E+02  0.28127881715E+03  0.29577383925E+03  0.00000000000E+00 0. -1.
          2    1    1    2  501    0  0.72598290741E+00  0.29294186232E+02 -0.34694579867E+02  0.45413547212E+02  0.00000000000E+00 0. -1.
<scales pt_clust_5="13000.00000" pt_clust_6="13000.00000" pt_clust_7="13000.00000" pt_clust_8="13000.00000" pt_clust_9="29.30318"></scales>
<clustering>
<clus scale="   29.303">  2  9  1 -1</clus>
<clus scale="   81.891">  5  6 -1 -1</clus>
<clus scale="   90.271">  7  8 -1 -1</clus>
<clus scale="  161.159">  2  5  1 -1</clus>
<clus scale="   29.303">  2  5  1 -1</clus>
</clustering>
</event>
<event>
 9    1  0.8429841E-005  0.1055498E+03  0.7546771E-02  0.1274523E+00
         21   -1    0    0  501  502  0.00000000000E+00  0.00000000000E+00  0.53168053645E+02  0.53168053645E+02  0.00000000000E+00 0.  1.
         -2   -1    0    0    0  501 -0.00000000000E+00 -0.00000000000E+00 -0.53415235082E+03  0.53415235082E+03  0.00000000000E+00 0.  1.
        -24    2    1    2    0    0 -0.42395383171E+02 -0.13340031815E+02 -0.33006341034E+03  0.34279337119E+03  0.81179526476E+02 0.  0.
         23    2    1    2    0    0  0.50706421396E+02  0.40608371848E+02 -0.17398594738E+03  0.20785779900E+03  0.93346524774E+02 0.  0.
         11    1    3    3    0    0 -0.35178730978E+01 -0.27681458649E+02 -0.34655193696E+02  0.44492932407E+02  0.00000000000E+00 0. -1.
        -12    1    3    3    0    0 -0.38877510074E+02  0.14341426835E+02 -0.29540821665E+03  0.29830043878E+03  0.00000000000E+00 0.  1.
        -13    1    4    4    0    0 -0.14024742637E+02 -0.17820656314E+02 -0.61380108367E+02  0.65435364297E+02  0.00000000000E+00 0. -1.
         13    1    4    4    0    0  0.64731164033E+02  0.58429028161E+02 -0.11260583901E+03  0.14242243471E+03  0.00000000000E+00 0.  1.
         -1    1    1    2    0  502 -0.83110382245E+01 -0.27268340033E+02  0.23065060542E+02  0.36669234276E+02  0.00000000000E+00 0.  1.
<scales pt_clust_5="13000.00000" pt_clust_6="13000.00000" pt_clust_7="13000.00000" pt_clust_8="13000.00000" pt_clust_9="28.50677"></scales>
<clustering>
<clus scale="   28.507">  1  9  2 -1</clus>
<clus scale="   81.180">  5  6 -1 -1</clus>
<clus scale="   93.347">  7  8 -1 -1</clus>
<clus scale="   94.960">  2  5  1 -1</clus>
<clus scale="   28.507">  1  5  2 -1</clus>
</clustering>
</event>
<event>
 9    1  0.8429841E-005  0.9739965E+02  0.7546771E-02  0.1288263E+00
         21   -1    0    0  501  502  0.00000000000E+00  0.00000000000E+00  0.78470774435E+02  0.78470774435E+02  0.00000000000E+00 0.  1.
          1   -1    0    0  502    0 -0.00000000000E+00 -0.00000000000E+00 -0.64534117578E+03  0.64534117578E+03  0.00000000000E+00 0. -1.
         23    2    1    2    0    0  0.35832337867E+01 -0.60465833998E+02 -0.59554775455E+02  0.12495429201E+03  0.91639768484E+02 0.  0.
        -24    2    1    2    0    0 -0.46660556227E+02 -0.22064339834E+02 -0.14069385864E+02  0.96902741299E+02  0.80796974281E+02 0.  0.
         13    1    4    4    0    0  0.14302695294E+02  0.16221912938E+02 -0.12326702693E+02  0.24893074365E+02  0.00000000000E+00 0. -1.
        -14    1    4    4    0    0 -0.60963251521E+02 -0.38286252772E+02 -0.17426831710E+01  0.72009666934E+02  0.00000000000E+00 0.  1.
        -11    1    3    3    0    0 -0.20001525344E+02 -0.51426520716E+02 -0.76656973745E+02  0.94451255539E+02  0.00000000000E+00 0.  1.
         11    1    3    3    0    0  0.23584759131E+02 -0.90393132820E+01  0.17102198290E+02  0.30503036475E+02  0.00000000000E+00 0. -1.
          2    1    1    2  501    0  0.43077322440E+02  0.82530173832E+02 -0.49324624003E+03  0.50195491690E+03  0.00000000000E+00 0. -1.
<scales pt_clust_5="13000.00000" pt_clust_6="13000.00000" pt_clust_7="13000.00000" pt_clust_8="13000.00000" pt_clust_9="93.09615"></scales>
<clustering>
<clus scale="   80.797">  5  6 -1 -1</clus>
<clus scale="   91.640">  7  8 -1 -1</clus>
<clus scale="   93.096">  1  9  2 -1</clus>
<clus scale="   93.096">  1  5  2 -1</clus>
<clus scale="   93.096">  1  5  2 -1</clus>
</clustering>
</event>
<event>
 9    1  0.8429841E-005  0.1059652E+03  0.7546771E-02  0.1273056E+00
         21   -1    0    0  501  502  0.00000000000E+00  0.00000000000E+00  0.30506271362E+02  0.30506271362E+02  0.00000000000E+00 0.  1.
          1   -1    0    0  502    0 -0.00000000000E+00 -0.00000000000E+00 -0.62587298534E+03  0.62587298534E+03  0.00000000000E+00 0. -1.
        -24    2    1    2    0    0 -0.47401892675E+02  0.34889594188E+02 -0.44529487724E+03  0.45615700585E+03  0.79545352339E+02 0.  0.
         23    2    1    2    0    0  0.27738309152E+02 -0.24290611836E+02 -0.79394050610E+02  0.12609840586E+03  0.90763126162E+02 0.  0.
         11    1    3    3    0    0 -0.48972890956E+02 -0.94605554142E+01 -0.16511055484E+03  0.17247997413E+03  0.00000000000E+00 0. -1.
        -12    1    3    3    0    0  0.15709982813E+01  0.44350149602E+02 -0.28018432241E+03  0.28367703172E+03  0.00000000000E+00 0.  1.
        -11    1    4    4    0    0  0.39656910085E+02  0.47793576444E+01  0.81843762799E+00  0.39952254218E+02  0.00000000000E+00 0.  1.
         11    1    4    4    0    0 -0.11918600932E+02 -0.29069969481E+02 -0.80212488238E+02  0.86146151645E+02  0.00000000000E+00 0. -1.
          2    1    1    2  501    0  0.19663583523E+02 -0.10598982351E+02 -0.70677786125E+02  0.74123844985E+02  0.00000000000E+00 0. -1.
<scales pt_clust_5="13000.00000" pt_clust_6="13000.00000" pt_clust_7="13000.00000" pt_clust_8="13000.00000" pt_clust_9="22.33821"></scales>
<clustering>
<clus scale="   22.338">  1  9  2 -1</clus>
<clus scale="   79.545">  5  6 -1 -1</clus>
<clus scale="   90.763">  7  8 -1 -1</clus>
<clus scale="   96.531">  2  5  1 -1</clus>
<clus scale="   22.338">  1  5  2 -1</clus>
</clustering>
</event>
<event>
 9    1  0.8429841E-005  0.2989731E+03  0.7546771E-02  0.1121686E+00
          1   -1    0    0  502    0 -0.00000000000E+00  0.00000000000E+00  0.22019739577E+04  0.22019739577E+04  0.00000000000E+00 0. -1.
         21   -1    0    0  501  502  0.00000000000E+00 -0.00000000000E+00 -0.59638150856E+02  0.59638150856E+02  0.00000000000E+00 0.  1.
         23    2    1    2    0    0 -0.44560858339E+02  0.66581783498E+02  0.33930244337E+03  0.35937256362E+03  0.87199125117E+02 0.  0.
        -24    2    1    2    0    0 -0.25087117553E+03 -0.12713707337E+03  0.70867189352E+03  0.76708578588E+03  0.84288600001E+02 0.  0.
         13    1    4    4    0    0 -0.53892738805E+02 -0.70053915636E+02  0.20277107373E+03  0.22119694106E+03  0.00000000000E+00 0. -1.
        -14    1    4    4    0    0 -0.19697843673E+03 -0.57083157730E+02  0.50590081979E+03  0.54588884482E+03  0.00000000000E+00 0.  1.
        -13    1    3    3    0    0 -0.67078699040E+02  0.67328011019E+02  0.28974523331E+03  0.30493427678E+03  0.00000000000E+00 0.  1.
         13    1    3    3    0    0  0.22517840701E+02 -0.74622752021E+00  0.49557210059E+02  0.54438286841E+02  0.00000000000E+00 0. -1.
          2    1    1    2  501    0  0.29543203387E+03  0.60555289868E+02  0.10943614699E+04  0.11351537590E+04  0.00000000000E+00 0. -1.
<scales pt_clust_5="13000.00000" pt_clust_6="13000.00000" pt_clust_7="13000.00000" pt_clust_8="13000.00000" pt_clust_9="286.84561"></scales>
<clustering>
<clus scale="   84.289">  5  6 -1 -1</clus>
<clus scale="   87.199">  7  8 -1 -1</clus>
<clus scale="  118.417">  1  7  2 -1</clus>
<clus scale="  286.846">  2  9  1 -1</clus>
<clus scale="  286.846">  2  5  1 -1</clus>
</clustering>
</event>
<event>
 9    1  0.8429841E-005  0.1591938E+03  0.7546771E-02  0.1190953E+00
          1   -1    0    0  502    0 -0.00000000000E+00  0.00000000000E+00  0.15087248988E+03  0.15087248988E+03  0.00000000000E+00 0. -1.
         21   -1    0    0  501  502  0.00000000000E+00 -0.00000000000E+00 -0.37814523152E+03  0.37814523152E+03  0.00000000000E+00 0. -1.
        -24    2    1    2    0    0 -0.95927687117E+02  0.53767990828E+02 -0.15042022079E+03  0.20459479694E+03  0.84496568666E+02 0.  0.
         23    2    1    2    0    0  0.10243856790E+03 -0.11460802892E+03 -0.14650286623E+03  0.23171331108E+03  0.92732455113E+02 0.  0.
         11    1    3    3    0    0 -0.99633927838E+02  0.70150283564E+02 -0.13364294256E+03  0.18085468741E+03  0.00000000000E+00 0. -1.
        -12    1    3    3    0    0  0.37062407208E+01 -0.16382292736E+02 -0.16777278231E+02  0.23740109528E+02  0.00000000000E+00 0.  1.
        -13    1    4    4    0    0 -0.16162421569E+02 -0.28271921267E+02 -0.31545203501E+02  0.45339003815E+02  0.00000000000E+00 0.  1.
         13    1    4    4    0    0  0.11860098947E+03 -0.86336107652E+02 -0.11495766273E+03  0.18637430726E+03  0.00000000000E+00 0. -1.
          2    1    1    2  501    0 -0.65108807847E+01  0.60840038091E+02  0.69650345374E+02  0.92709613386E+02  0.00000000000E+00 0. -1.
<scales pt_clust_5="13000.00000" pt_clust_6="13000.00000" pt_clust_7="13000.00000" pt_clust_8="13000.00000" pt_clust_9="61.18746"></scales>
<clustering>
<clus scale="   61.187">  2  9  1 -1</clus>
<clus scale="   84.497">  5  6 -1 -1</clus>
<clus scale="   92.732">  7  8 -1 -1</clus>
<clus scale="  154.541">  1  5  2 -1</clus>
<clus scale="   61.187">  2  5  1 -1</clus>
</clustering>
</event>
<event>
 9    1  0.8429841E-005  0.1569911E+03  0.7546771E-02  0.1194242E+00
         21   -1    0    0  501  502  0.00000000000E+00  0.00000000000E+00  0.15649087554E+03  0.15649087554E+03  0.00000000000E+00 0. -1.
          1   -1    0    0  502    0 -0.00000000000E+00 -0.00000000000E+00 -0.40148229972E+03  0.40148229972E+03  0.00000000000E+00 0. -1.
         23    2    1    2    0    0  0.12211619596E+02  0.12140945055E+03 -0.16382806748E+03  0.22427527850E+03  0.92576382056E+02 0.  0.
        -24    2    1    2    0    0  0.26477993656E+02 -0.14819180558E+03  0.63252550451E+02  0.18180933580E+03  0.79949071637E+02 0.  0.
         13    1    4    4    0    0 -0.16809361513E+02 -0.55484601659E+02  0.53742790055E+02  0.79053040034E+02  0.00000000000E+00 0. -1.
        -14    1    4    4    0    0  0.43287355169E+02 -0.92707203918E+02  0.95097603960E+01  0.10275629576E+03  0.00000000000E+00 0.  1.
        -13    1    3    3    0    0  0.41746894405E+02  0.96487352173E+02 -0.15011783987E+03  0.18327023263E+03  0.00000000000E+00 0. -1.
         13    1    3    3    0    0 -0.29535274809E+02  0.24922098378E+02 -0.13710227618E+02  0.41005045872E+02  0.00000000000E+00 0.  1.
          2    1    1    2  501    0 -0.38689613253E+02  0.26782355026E+02 -0.14441590715E+03  0.15188856096E+03  0.00000000000E+00 0. -1.
<scales pt_clust_5="13000.00000" pt_clust_6="13000.00000" pt_clust_7="13000.00000" pt_clust_8="13000.00000" pt_clust_9="47.05511"></scales>
<clustering>
<clus scale="   47.055">  1  9  2 -1</clus>
<clus scale="   79.949">  5  6 -1 -1</clus>
<clus scale="   92.576">  7  8 -1 -1</clus>
<clus scale="  149.892">  1  5  2 -1</clus>
<clus scale="   47.055">  1  5  2 -1</clus>
</clustering>
</event>
<event>
 9    1  0.8429841E-005  0.9172748E+02  0.7546771E-02  0.1315773E+00
         -2   -1    0    0    0  501 -0.00000000000E+00  0.00000000000E+00  0.65818516064E+02  0.65818516064E+02  0.00000000000E+00 0.  1.
         21   -1    0    0  501  502  0.00000000000E+00 -0.00000000000E+00 -0.28295104150E+03  0.28295104150E+03  0.00000000000E+00 0.  1.
        -24    2    1    2    0    0 -0.16967355371E+01  0.20368830433E+02  0.12476256827E+02  0.69692147257E+02  0.65448989604E+02 0.  0.
         23    2    1    2    0    0  0.24882938112E+02  0.93446766137E+01 -0.76497578718E+02  0.12139566393E+03  0.90435303285E+02 0.  0.
         13    1    3    3    0    0  0.26269049308E+02  0.64525426092E+01 -0.12403221825E+02  0.29757993368E+02  0.00000000000E+00 0. -1.
        -14    1    3    3    0    0 -0.27965784845E+02  0.13916287824E+02  0.24879478652E+02  0.39934153889E+02  0.00000000000E+00 0.  1.
        -13    1    4    4    0    0 -0.12104331479E+02  0.37346911250E+02 -0.60889380307E+02  0.72448762961E+02  0.00000000000E+00 0.  1.
         13    1    4    4    0    0  0.36987269591E+02 -0.28002234636E+02 -0.15608198411E+02  0.48946900965E+02  0.00000000000E+00 0. -1.
         -1    1    1    2    0  502 -0.23186202575E+02 -0.29713507047E+02 -0.15311120354E+03  0.15768174638E+03  0.00000000000E+00 0.  1.
<scales pt_clust_5="13000.00000" pt_clust_6="13000.00000" pt_clust_7="13000.00000" pt_clust_8="13000.00000" pt_clust_9="37.68942"></scales>
<clustering>
<clus scale="   37.689">  2  9  1 -1</clus>
<clus scale="   65.449">  5  6 -1 -1</clus>
<clus scale="   67.223">  1  5  2 -1</clus>
<clus scale="   90.435">  7  8 -1 -1</clus>
<clus scale="   37.689">  2  5  1 -1</clus>
</clustering>
</event>
<event>
 9    1  0.8429841E-005  0.1133667E+03  0.7546771E-02  0.1258674E+00
          1   -1    0    0  502    0 -0.00000000000E+00  0.00000000000E+00  0.57324282492E+03  0.57324282492E+03  0.00000000000E+00 0. -1.
         21   -1    0    0  501  502  0.00000000000E+00 -0.00000000000E+00 -0.64945255126E+02  0.64945255126E+02  0.00000000000E+00 0. -1.
         23    2    1    2    0    0  0.62358205413E+02 -0.42025548741E+02  0.21768974370E+03  0.24771263023E+03  0.91203235329E+02 0.  0.
        -24    2    1    2    0    0  0.51093356482E+02  0.75149921186E+02  0.67076934123E+02  0.13762264558E+03  0.78629738350E+02 0.  0.
         11    1    4    4    0    0  0.27166141962E+02 -0.11496996569E+02  0.23563076345E+02  0.37754453593E+02  0.00000000000E+00 0. -1.
        -12    1    4    4    0    0  0.23927214520E+02  0.86646917755E+02  0.43513857778E+02  0.99868191983E+02  0.00000000000E+00 0.  1.
        -11    1    3    3    0    0  0.22084127456E+01 -0.54522681931E+02  0.12640839806E+03  0.13768327071E+03  0.00000000000E+00 0.  1.
         11    1    3    3    0    0  0.60149792668E+02  0.12497133191E+02  0.91281345642E+02  0.11002935953E+03  0.00000000000E+00 0. -1.
          2    1    1    2  501    0 -0.11345156190E+03 -0.33124372445E+02  0.22353089197E+03  0.25285280424E+03  0.00000000000E+00 0. -1.
<scales pt_clust_5="13000.00000" pt_clust_6="13000.00000" pt_clust_7="13000.00000" pt_clust_8="13000.00000" pt_clust_9="118.18839"></scales>
<clustering>
<clus scale="   78.630">  5  6 -1 -1</clus>
<clus scale="   91.203">  7  8 -1 -1</clus>
<clus scale="  118.188">  2  9  1 -1</clus>
<clus scale="  118.188">  2  5  1 -1</clus>
<clus scale="  113.367">  2  5  1 -1</clus>
</clustering>
</event>
<event>
 9    1  0.8429841E-005  0.9479709E+02  0.7546771E-02  0.1295665E+00
          1   -1    0    0  502    0 -0.00000000000E+00  0.00000000000E+00  0.63845318053E+03  0.63845318053E+03  0.00000000000E+00 0. -1.
         21   -1    0    0  501  502  0.00000000000E+00 -0.00000000000E+00 -0.38588261797E+02  0.38588261797E+02  0.00000000000E+00 0. -1.
        -24    2    1    2    0    0  0.33524506956E+02 -0.14748851271E+02  0.39403910457E+03  0.40404559453E+03  0.81514448713E+02 0.  0.
         23    2    1    2    0    0 -0.27711365497E+02 -0.46569480072E+02  0.74679595309E+02  0.12810602382E+03  0.88867739542E+02 0.  0.
         11    1    3    3    0    0  0.24054049058E+02 -0.48592808875E+02  0.23933669497E+03  0.24540153200E+03  0.00000000000E+00 0. -1.
        -12    1    3    3    0    0  0.94704578979E+01  0.33843957604E+02  0.15470240960E+03  0.15864406253E+03  0.00000000000E+00 0.  1.
        -11    1    4    4    0    0 -0.35297483686E+02 -0.92482347698E+01  0.81610182735E+02  0.89396108008E+02  0.00000000000E+00 0.  1.
         11    1    4    4    0    0  0.75861181890E+01 -0.37321245302E+02 -0.69305874257E+01  0.38709915811E+02  0.00000000000E+00 0. -1.
          2    1    1    2  501    0 -0.58131414587E+01  0.61318331342E+02  0.13114621885E+03  0.14488982397E+03  0.00000000000E+00 0. -1.
<scales pt_clust_5="13000.00000" pt_clust_6="13000.00000" pt_clust_7="13000.00000" pt_clust_8="13000.00000" pt_clust_9="61.59330"></scales>
<clustering>
<clus scale="   61.593">  2  9  1 -1</clus>
<clus scale="   81.514">  5  6 -1 -1</clus>
<clus scale="   87.941">  1  5  2 -1</clus>
<clus scale="   88.868">  7  8 -1 -1</clus>
<clus scale="   61.593">  2  5  1 -1</clus>
</clustering>
</event>
<event>
 9    1  0.8429841E-005  0.1055950E+03  0.7546771E-02  0.1275653E+00
          1   -1    0    0  502    0 -0.00000000000E+00  0.00000000000E+00  0.49345747566E+02  0.49345747566E+02  0.00000000000E+00 0. -1.
         21   -1    0    0  501  502  0.00000000000E+00 -0.00000000000E+00 -0.35341371547E+03  0.35341371547E+03  0.00000000000E+00 0. -1.
         23    2    1    2    0    0 -0.59146622188E+02  0.61132652533E+01 -0.46846407809E+02  0.11844681012E+03  0.91100856058E+02 0.  0.
        -24    2    1    2    0    0  0.33833005832E+02 -0.26843049101E+02 -0.20293274423E+03  0.22092670306E+03  0.75905782880E+02 0.  0.
         11    1    4    4    0    0  0.11636084395E+02 -0.49038049387E+02 -0.15994853877E+03  0.16770111450E+03  0.00000000000E+00 0. -1.
        -12    1    4    4    0    0  0.22196921437E+02  0.22195000286E+02 -0.42984205462E+02  0.53225588566E+02  0.00000000000E+00 0.  1.
        -11    1    3    3    0    0 -0.22991729293E+01  0.36898277367E+02 -0.38307356757E+02  0.53237417767E+02  0.00000000000E+00 0.  1.
         11    1    3    3    0    0 -0.56847449258E+02 -0.30785012113E+02 -0.85390510515E+01  0.65209392351E+02  0.00000000000E+00 0. -1.
          2    1    1    2  501    0  0.25313616356E+02  0.20729783848E+02 -0.54288815859E+02  0.63385949853E+02  0.00000000000E+00 0. -1.
<scales pt_clust_5="13000.00000" pt_clust_6="13000.00000" pt_clust_7="13000.00000" pt_clust_8="13000.00000" pt_clust_9="32.71854"></scales>
<clustering>
<clus scale="   32.719">  2  9  1 -1</clus>
<clus scale="   75.906">  5  6 -1 -1</clus>
<clus scale="   91.101">  7  8 -1 -1</clus>
<clus scale="   92.804">  2  5  1 -1</clus>
<clus scale="   32.719">  2  5  1 -1</clus>
</clustering>
</event>
<event>
 9    1  0.8429841E-005  0.3242805E+03  0.7546771E-02  0.1095517E+00
          1   -1    0    0  502    0 -0.00000000000E+00  0.00000000000E+00  0.22050022732E+03  0.22050022732E+03  0.00000000000E+00 0. -1.
         21   -1    0    0  501  502  0.00000000000E+00 -0.00000000000E+00 -0.81312740145E+03  0.81312740145E+03  0.00000000000E+00 0. -1.
        -24    2    1    2    0    0 -0.13993717383E+03  0.82229447249E+02 -0.19243197502E+03  0.26421960236E+03  0.80236143017E+02 0.  0.
         23    2    1    2    0    0 -0.13134547655E+03 -0.27969336720E+03 -0.17809140981E+03  0.36701969494E+03  0.86642324288E+02 0.  0.
         11    1    3    3    0    0 -0.15011821616E+03  0.79182330895E+02 -0.18600589437E+03  0.25180054227E+03  0.00000000000E+00 0. -1.
        -12    1    3    3    0    0  0.10181042326E+02  0.30471163549E+01 -0.64260806471E+01  0.12419060086E+02  0.00000000000E+00 0.  1.
        -13    1    4    4    0    0 -0.13204378437E+03 -0.24805868808E+03 -0.13042173077E+03  0.30980397283E+03  0.00000000000E+00 0.  1.
         13    1    4    4    0    0  0.69830781729E+00 -0.31634679122E+02 -0.47669679043E+02  0.57215722114E+02  0.00000000000E+00 0. -1.
          2    1    1    2  501    0  0.27128265038E+03  0.19746391995E+03 -0.22210378929E+03  0.40238833147E+03  0.00000000000E+00 0. -1.
<scales pt_clust_5="13000.00000" pt_clust_6="13000.00000" pt_clust_7="13000.00000" pt_clust_8="13000.00000" pt_clust_9="312.49155"></scales>
<clustering>
<clus scale="   80.236">  5  6 -1 -1</clus>
<clus scale="   86.642">  7  8 -1 -1</clus>
<clus scale="  181.058">  1  5  2 -1</clus>
<clus scale="  312.492">  2  9  1 -1</clus>
<clus scale="  312.492">  2  5  1 -1</clus>
</clustering>
</event>
<event>
 9    1  0.8429841E-005  0.1235858E+03  0.7546771E-02  0.1240390E+00
          1   -1    0    0  502    0 -0.00000000000E+00  0.00000000000E+00  0.53207399865E+03  0.53207399865E+03  0.00000000000E+00 0. -1.
         21   -1    0    0  501  502  0.00000000000E+00 -0.00000000000E+00 -0.21560767571E+03  0.21560767571E+03  0.00000000000E+00 0.  1.
        -24    2    1    2    0    0 -0.61710698750E+02  0.45032633077E+02  0.39933476145E+03  0.41448278731E+03  0.80570347493E+02 0.  0.
         23    2    1    2    0    0  0.10365324448E+03 -0.91826337053E+02  0.60669101099E+02  0.17650857736E+03  0.91095920794E+02 0.  0.
         13    1    3    3    0    0 -0.75435934084E+02  0.55537643929E+02  0.33156669490E+03  0.34454532824E+03  0.00000000000E+00 0. -1.
        -14    1    3    3    0    0  0.13725235334E+02 -0.10505010852E+02  0.67768066547E+02  0.69937459072E+02  0.00000000000E+00 0.  1.
        -11    1    4    4    0    0 -0.61102903467E+01 -0.46022881107E+02  0.22542324545E+02  0.51610053569E+02  0.00000000000E+00 0. -1.
         11    1    4    4    0    0  0.10976353483E+03 -0.45803455946E+02  0.38126776554E+02  0.12489852379E+03  0.00000000000E+00 0.  1.
          2    1    1    2  501    0 -0.41942545733E+02  0.46793703976E+02 -0.14353753961E+03  0.15669030969E+03  0.00000000000E+00 0. -1.
<scales pt_clust_5="13000.00000" pt_clust_6="13000.00000" pt_clust_7="13000.00000" pt_clust_8="13000.00000" pt_clust_9="62.83970"></scales>
<clustering>
<clus scale="   62.840">  2  9  1 -1</clus>
<clus scale="   80.570">  5  6 -1 -1</clus>
<clus scale="   91.096">  7  8 -1 -1</clus>
<clus scale="  116.046">  1  5  2 -1</clus>
<clus scale="   62.840">  2  5  1 -1</clus>
</clustering>
</event>
<event>
 9    1  0.8429841E-005  0.1350105E+03  0.7546771E-02  0.1222975E+00
         21   -1    0    0  501  502  0.00000000000E+00  0.00000000000E+00  0.52163390006E+02  0.52163390006E+02  0.00000000000E+00 0. -1.
          1   -1    0    0  502    0 -0.00000000000E+00 -0.00000000000E+00 -0.10613379604E+04  0.10613379604E+04  0.00000000000E+00 0. -1.
        -24    2    1    2    0    0 -0.78214244502E+02 -0.71496364421E+02 -0.88237353151E+03  0.89223418111E+03  0.79180721578E+02 0.  0.
         23    2    1    2    0    0  0.52460721510E+02  0.51852557582E+02 -0.14319497701E+03  0.18496449309E+03  0.90918904718E+02 0.  0.
         13    1    3    3    0    0 -0.66292157169E+02 -0.21088750832E+02 -0.31968045815E+03  0.32716201008E+03  0.00000000000E+00 0. -1.
        -14    1    3    3    0    0 -0.11922087332E+02 -0.50407613589E+02 -0.56269307335E+03  0.56507217103E+03  0.00000000000E+00 0.  1.
        -11    1    4    4    0    0  0.76186497720E+02  0.52959150198E+02 -0.12078913529E+03  0.15231240668E+03  0.00000000000E+00 0.  1.
         11    1    4    4    0    0 -0.23725776209E+02 -0.11065926165E+01 -0.22405841719E+02  0.32652086413E+02  0.00000000000E+00 0. -1.
          2    1    1    2  501    0  0.25753522992E+02  0.19643806839E+02  0.16393938111E+02  0.36302676215E+02  0.00000000000E+00 0. -1.
<scales pt_clust_5="13000.00000" pt_clust_6="13000.00000" pt_clust_7="13000.00000" pt_clust_8="13000.00000" pt_clust_9="32.39017"></scales>
<clustering>
<clus scale="   32.390">  1  9  2 -1</clus>
<clus scale="   79.181">  5  6 -1 -1</clus>
<clus scale="   90.919">  7  8 -1 -1</clus>
<clus scale="  127.402">  2  5  1 -1</clus>
<clus scale="   32.390">  1  5  2 -1</clus>
</clustering>
</event>
<event>
 9    1  0.8429841E-005  0.2535856E+03  0.7546771E-02  0.1125713E+00
          1   -1    0    0  502    0 -0.00000000000E+00  0.00000000000E+00  0.10422575129E+04  0.10422575129E+04  0.00000000000E+00 0. -1.
         21   -1    0    0  501  502  0.00000000000E+00 -0.00000000000E+00 -0.14668528996E+03  0.14668528996E+03  0.00000000000E+00 0. -1.
        -24    2    1    2    0    0  0.72418890228E+02  0.13815016419E+03  0.38011483093E+03  0.41870896438E+03  0.80622258907E+02 0.  0.
         23    2    1    2    0    0 -0.78595504927E+02  0.13315899151E+03  0.45939518708E+03  0.49312415012E+03  0.90658254487E+02 0.  0.
         13    1    3    3    0    0  0.48074293012E+02  0.13565691465E+03  0.27060357541E+03  0.30649670662E+03  0.00000000000E+00 0. -1.
        -14    1    3    3    0    0  0.24344597216E+02  0.24932495363E+01  0.10951125552E+03  0.11221225776E+03  0.00000000000E+00 0.  1.
        -11    1    4    4    0    0  0.19374997368E+02  0.21144681272E+02  0.51747700301E+02  0.59163439348E+02  0.00000000000E+00 0. -1.
         11    1    4    4    0    0 -0.97970502295E+02  0.11201431024E+03  0.40764748678E+03  0.43396071077E+03  0.00000000000E+00 0.  1.
          2    1    1    2  501    0  0.61766146986E+01 -0.27130915570E+03  0.56062204882E+02  0.27710968831E+03  0.00000000000E+00 0. -1.
<scales pt_clust_5="13000.00000" pt_clust_6="13000.00000" pt_clust_7="13000.00000" pt_clust_8="13000.00000" pt_clust_9="236.82635"></scales>
<clustering>
<clus scale="   80.622">  5  6 -1 -1</clus>
<clus scale="   90.658">  7  8 -1 -1</clus>
<clus scale="  175.584">  1  5  2 -1</clus>
<clus scale="  236.826">  2  9  1 -1</clus>
<clus scale="  236.826">  2  5  1 -1</clus>
</clustering>
</event>
<event>
 9    1  0.8429841E-005  0.9484444E+02  0.7546771E-02  0.1298552E+00
         -2   -1    0    0    0  501 -0.00000000000E+00  0.00000000000E+00  0.30969774217E+03  0.30969774217E+03  0.00000000000E+00 0.  1.
         21   -1    0    0  501  502  0.00000000000E+00 -0.00000000000E+00 -0.60022003968E+02  0.60022003968E+02  0.00000000000E+00 0. -1.
        -24    2    1    2    0    0 -0.38320974591E+02  0.18864203514E+02  0.12533666408E+03  0.15483447618E+03  0.80250111425E+02 0.  0.
         23    2    1    2    0    0 -0.18208222999E+02  0.20516243064E+02  0.35730965036E+02  0.10264549649E+03  0.92233076889E+02 0.  0.
         13    1    3    3    0    0 -0.72640521015E+01 -0.26489220744E+02  0.14368670289E+02  0.30998450839E+02  0.00000000000E+00 0. -1.
        -14    1    3    3    0    0 -0.31056922489E+02  0.45353424258E+02  0.11096799379E+03  0.12383602534E+03  0.00000000000E+00 0.  1.
        -13    1    4    4    0    0  0.12757468005E+02  0.38590263686E+02  0.49667194028E+02  0.64177812396E+02  0.00000000000E+00 0.  1.
         13    1    4    4    0    0 -0.30965691004E+02 -0.18074020622E+02 -0.13936228992E+02  0.38467684091E+02  0.00000000000E+00 0. -1.
         -1    1    1    2    0  502  0.56529197590E+02 -0.39380446578E+02  0.88608109090E+02  0.11223977347E+03  0.00000000000E+00 0.  1.
<scales pt_clust_5="13000.00000" pt_clust_6="13000.00000" pt_clust_7="13000.00000" pt_clust_8="13000.00000" pt_clust_9="68.89394"></scales>
<clustering>
<clus scale="   68.894">  2  9  1 -1</clus>
<clus scale="   80.250">  5  6 -1 -1</clus>
<clus scale="   83.238">  1  5  2 -1</clus>
<clus scale="   92.233">  7  8 -1 -1</clus>
<clus scale="   68.894">  2  5  1 -1</clus>
</clustering>
</event>
<event>
 9    1  0.8429841E-005  0.1368400E+03  0.7546771E-02  0.1219780E+00
          1   -1    0    0  502    0 -0.00000000000E+00  0.00000000000E+00  0.19775762416E+03  0.19775762416E+03  0.00000000000E+00 0. -1.
         21   -1    0    0  501  502  0.00000000000E+00 -0.00000000000E+00 -0.26450786613E+03  0.26450786613E+03  0.00000000000E+00 0. -1.
         23    2    1    2    0    0 -0.90348258110E+02 -0.51080958624E+02  0.13889231517E+03  0.19621066979E+03  0.91844867294E+02 0.  0.
        -24    2    1    2    0    0  0.88592931745E+02  0.26343779387E+02 -0.10519258084E+03  0.16258885051E+03  0.82625377325E+02 0.  0.
         11    1    4    4    0    0  0.71079568171E+02 -0.13058420253E+02 -0.35212672631E+02  0.80391290975E+02  0.00000000000E+00 0. -1.
        -12    1    4    4    0    0  0.17513363575E+02  0.39402199640E+02 -0.69979908211E+02  0.82197559534E+02  0.00000000000E+00 0.  1.
        -11    1    3    3    0    0 -0.56084064106E+02 -0.47547251423E+02  0.14371224265E+03  0.16142915490E+03  0.00000000000E+00 0. -1.
         11    1    3    3    0    0 -0.34264194004E+02 -0.35337072003E+01 -0.48199274747E+01  0.34781514892E+02  0.00000000000E+00 0.  1.
          2    1    1    2  501    0  0.17553263645E+01  0.24737179236E+02 -0.10044997630E+03  0.10346596999E+03  0.00000000000E+00 0. -1.
<scales pt_clust_5="13000.00000" pt_clust_6="13000.00000" pt_clust_7="13000.00000" pt_clust_8="13000.00000" pt_clust_9="24.79938"></scales>
<clustering>
<clus scale="   24.799">  2  9  1 -1</clus>
<clus scale="   82.625">  5  6 -1 -1</clus>
<clus scale="   91.845">  7  8 -1 -1</clus>
<clus scale="  130.831">  2  5  1 -1</clus>
<clus scale="   24.799">  2  5  1 -1</clus>
</clustering>
</event>
<event>
 9    1  0.8429841E-005  0.4288380E+03  0.7546771E-02  0.1056746E+00
          1   -1    0    0  502    0 -0.00000000000E+00  0.00000000000E+00  0.65768910205E+03  0.65768910205E+03  0.00000000000E+00 0. -1.
         21   -1    0    0  501  502  0.00000000000E+00 -0.00000000000E+00 -0.48648639169E+03  0.48648639169E+03  0.00000000000E+00 0. -1.
        -24    2    1    2    0    0  0.74375646477E+02  0.19606047398E+03  0.61113181063E+02  0.23244859374E+03  0.79536668179E+02 0.  0.
         23    2    1    2    0    0 -0.17470852231E+03  0.27368825761E+03  0.24013754549E+03  0.41408943826E+03  0.91518806807E+02 0.  0.
         13    1    3    3    0    0  0.90107890656E+02  0.14623419246E+03  0.51494373086E+02  0.17931966279E+03  0.00000000000E+00 0. -1.
        -14    1    3    3    0    0 -0.15732244179E+02  0.49826281519E+02  0.96188079771E+01  0.53128930949E+02  0.00000000000E+00 0.  1.
        -13    1    4    4    0    0 -0.33036873154E+02  0.27067683265E+02  0.71934862894E+02  0.83658346653E+02  0.00000000000E+00 0.  1.
         13    1    4    4    0    0 -0.14167164915E+03  0.24662057435E+03  0.16820268260E+03  0.33043109161E+03  0.00000000000E+00 0. -1.
          2    1    1    2  501    0  0.10033287583E+03 -0.46974873160E+03 -0.13004801620E+03  0.49763746174E+03  0.00000000000E+00 0. -1.
<scales pt_clust_5="13000.00000" pt_clust_6="13000.00000" pt_clust_7="13000.00000" pt_clust_8="13000.00000" pt_clust_9="418.95865"></scales>
<clustering>
<clus scale="   79.537">  5  6 -1 -1</clus>
<clus scale="   91.519">  7  8 -1 -1</clus>
<clus scale="  224.271">  1  5  2 -1</clus>
<clus scale="  418.959">  2  9  1 -1</clus>
<clus scale="  418.959">  2  5  1 -1</clus>
</clustering>
</event>
<event>
 9    1  0.8429841E-005  0.2221503E+03  0.7546771E-02  0.1132907E+00
         21   -1    0    0  501  502  0.00000000000E+00  0.00000000000E+00  0.13708323044E+03  0.13708323044E+03  0.00000000000E+00 0.  1.
         -4   -1    0    0    0  501 -0.00000000000E+00 -0.00000000000E+00 -0.13869228380E+04  0.13869228380E+04  0.00000000000E+00 0.  1.
        -24    2    1    2    0    0 -0.11437020556E+03  0.13023858455E+03 -0.65169059309E+03  0.67923600045E+03  0.81352826367E+02 0.  0.
         23    2    1    2    0    0  0.26971069029E+03 -0.12907123832E+03 -0.61378873536E+03  0.68863989871E+03  0.89916947366E+02 0.  0.
         13    1    3    3    0    0 -0.60854877879E+02  0.17299445591E+02 -0.28138013675E+03  0.28840486878E+03  0.00000000000E+00 0. -1.
        -14    1    3    3    0    0 -0.53515327681E+02  0.11293913896E+03 -0.37031045634E+03  0.39083113166E+03  0.00000000000E+00 0.  1.
        -11    1    4    4    0    0  0.87812951432E+02 -0.73156415601E+02 -0.30744270082E+03  0.32799998456E+03  0.00000000000E+00 0. -1.
         11    1    4    4    0    0  0.18189773886E+03 -0.55914822724E+02 -0.30634603454E+03  0.36063991416E+03  0.00000000000E+00 0.  1.
         -3    1    1    2    0  502 -0.15534048473E+03 -0.11673462233E+01  0.15639720873E+02  0.15613016929E+03  0.00000000000E+00 0.  1.
<scales pt_clust_5="13000.00000" pt_clust_6="13000.00000" pt_clust_7="13000.00000" pt_clust_8="13000.00000" pt_clust_9="155.34487"></scales>
<clustering>
<clus scale="   81.353">  5  6 -1 -1</clus>
<clus scale="   89.917">  7  8 -1 -1</clus>
<clus scale="  155.345">  1  9  2 -1</clus>
<clus scale="  218.824">  2  5  1 -1</clus>
<clus scale="  155.345">  1  5  2 -1</clus>
</clustering>
</event>
<event>
 9    1  0.8429841E-005  0.1726941E+03  0.7546771E-02  0.1190552E+00
          1   -1    0    0  502    0 -0.00000000000E+00  0.00000000000E+00  0.17275228476E+03  0.17275228476E+03  0.00000000000E+00 0. -1.
         21   -1    0    0  501  502  0.00000000000E+00 -0.00000000000E+00 -0.35890281659E+03  0.35890281659E+03  0.00000000000E+00 0. -1.
         23    2    1    2    0    0 -0.68082997158E+02 -0.44817501050E+02 -0.10665409270E+03  0.16214640657E+03  0.90953058075E+02 0.  0.
        -24    2    1    2    0    0 -0.11822356229E+03  0.72930462486E+02 -0.83282906476E+02  0.18105496031E+03  0.80927085104E+02 0.  0.
         13    1    4    4    0    0 -0.21922220660E+02  0.50252287012E+02 -0.56125328653E+02  0.78459726134E+02  0.00000000000E+00 0. -1.
        -14    1    4    4    0    0 -0.96301341633E+02  0.22678175474E+02 -0.27157577823E+02  0.10259523418E+03  0.00000000000E+00 0.  1.
        -11    1    3    3    0    0 -0.40779776597E+02 -0.63910018560E+01 -0.10733955409E+03  0.11500267369E+03  0.00000000000E+00 0.  1.
         11    1    3    3    0    0 -0.27303220560E+02 -0.38426499194E+02  0.68546138547E+00  0.47143732887E+02  0.00000000000E+00 0. -1.
          2    1    1    2  501    0  0.18630655945E+03 -0.28112961437E+02  0.37864673440E+01  0.18845373446E+03  0.00000000000E+00 0. -1.
<scales pt_clust_5="13000.00000" pt_clust_6="13000.00000" pt_clust_7="13000.00000" pt_clust_8="13000.00000" pt_clust_9="152.55848"></scales>
<clustering>
<clus scale="   80.927">  5  6 -1 -1</clus>
<clus scale="   90.953">  7  8 -1 -1</clus>
<clus scale="  122.133">  1  7  2 -1</clus>
<clus scale="  152.558">  2  9  1 -1</clus>
<clus scale="  152.558">  2  5  1 -1</clus>
</clustering>
</event>
<event>
 9    1  0.9845036E-005  0.2751730E+03  0.7546771E-02  0.1131840E+00
         21   -1    0    0  501  502  0.00000000000E+00  0.00000000000E+00  0.86071170738E+03  0.86071170738E+03  0.00000000000E+00 0. -1.
          1   -1    0    0  502    0 -0.00000000000E+00 -0.00000000000E+00 -0.36592770435E+03  0.36592770435E+03  0.00000000000E+00 0. -1.
         23    2    1    2    0    0  0.74067485360E+02 -0.22783583459E+02  0.83369766270E+02  0.14462986888E+03  0.89231143560E+02 0.  0.
        -24    2    1    2    0    0 -0.18307014043E+03  0.19687559386E+03  0.68483440925E+03  0.74003264652E+03  0.79846565704E+02 0.  0.
         13    1    4    4    0    0 -0.11712236821E+03  0.12616865305E+03  0.32928087804E+03  0.37156705288E+03  0.00000000000E+00 0. -1.
        -14    1    4    4    0    0 -0.65947772218E+02  0.70706940809E+02  0.35555353121E+03  0.36846559364E+03  0.00000000000E+00 0.  1.
        -11    1    3    3    0    0  0.13427644872E+02  0.25931068622E+02 -0.18364991367E+01  0.29259095949E+02  0.00000000000E+00 0.  1.
         11    1    3    3    0    0  0.60639840488E+02 -0.48714652081E+02  0.85206265406E+02  0.11537077293E+03  0.00000000000E+00 0. -1.
          2    1    1    2  501    0  0.10900265507E+03 -0.17409201040E+03 -0.27342017249E+03  0.34197689633E+03  0.00000000000E+00 0. -1.
<scales pt_clust_5="13000.00000" pt_clust_6="13000.00000" pt_clust_7="13000.00000" pt_clust_8="13000.00000" pt_clust_9="263.33395"></scales>
<clustering>
<clus scale="   79.847">  5  6 -1 -1</clus>
<clus scale="   89.231">  7  8 -1 -1</clus>
<clus scale="  118.183">  2  7  1 -1</clus>
<clus scale="  263.334">  1  9  2 -1</clus>
<clus scale="  263.334">  1  5  2 -1</clus>
</clustering>
</event>
<event>
 9    1  0.8429841E-005  0.1303308E+03  0.7546771E-02  0.1250451E+00
          1   -1    0    0  502    0 -0.00000000000E+00  0.00000000000E+00  0.32173282241E+03  0.32173282241E+03  0.00000000000E+00 0. -1.
         21   -1    0    0  501  502  0.00000000000E+00 -0.00000000000E+00 -0.80815025063E+02  0.80815025063E+02  0.00000000000E+00 0. -1.
        -24    2    1    2    0    0  0.60811592276E+01  0.34166844021E+02  0.10449898717E+03  0.13209650670E+03  0.72973248758E+02 0.  0.
         23    2    1    2    0    0  0.96966325538E+02 -0.24796172719E+02  0.73834364394E+02  0.14952406325E+03  0.82997672583E+02 0.  0.
         13    1    3    3    0    0 -0.24902602350E+02  0.48481286551E+01  0.80189641503E+01  0.26607287372E+02  0.00000000000E+00 0. -1.
        -14    1    3    3    0    0  0.30983761577E+02  0.29318715366E+02  0.96480023016E+02  0.10548921932E+03  0.00000000000E+00 0.  1.
        -13    1    4    4    0    0  0.55129627363E+02 -0.55136870021E+02  0.38824242427E+02  0.87101504286E+02  0.00000000000E+00 0.  1.
         13    1    4    4    0    0  0.41836698175E+02  0.30340697302E+02  0.35010121966E+02  0.62422558960E+02  0.00000000000E+00 0. -1.
          2    1    1    2  501    0 -0.10304748477E+03 -0.93706713021E+01  0.62584445792E+02  0.12092727754E+03  0.00000000000E+00 0. -1.
<scales pt_clust_5="13000.00000" pt_clust_6="13000.00000" pt_clust_7="13000.00000" pt_clust_8="13000.00000" pt_clust_9="100.48640"></scales>
<clustering>
<clus scale="   72.973">  5  6 -1 -1</clus>
<clus scale="   80.805">  1  5  2 -1</clus>
<clus scale="   82.998">  7  8 -1 -1</clus>
<clus scale="  100.486">  2  9  1 -1</clus>
<clus scale="  100.486">  2  5  1 -1</clus>
</clustering>
</event>
<event>
 9    1  0.8429841E-005  0.1460733E+03  0.7546771E-02  0.1208179E+00
          1   -1    0    0  502    0 -0.00000000000E+00  0.00000000000E+00  0.30271755880E+03  0.30271755880E+03  0.00000000000E+00 0. -1.
         21   -1    0    0  501  502  0.00000000000E+00 -0.00000000000E+00 -0.43843148817E+03  0.43843148817E+03  0.00000000000E+00 0.  1.
         23    2    1    2    0    0  0.70059639161E+02 -0.95679743838E+02  0.26850225995E+03  0.30721264995E+03  0.90681763697E+02 0.  0.
        -24    2    1    2    0    0 -0.25072957987E+02  0.56070906087E+02 -0.24951138530E+03  0.26802606611E+03  0.76219689007E+02 0.  0.
         13    1    4    4    0    0  0.44238919735E+01  0.30704293799E+02 -0.24101864910E+02  0.39283894538E+02  0.00000000000E+00 0. -1.
        -14    1    4    4    0    0 -0.29496849960E+02  0.25366612288E+02 -0.22540952039E+03  0.22874217158E+03  0.00000000000E+00 0.  1.
        -11    1    3    3    0    0  0.75114713237E+02 -0.61940871342E+02  0.25024921377E+03  0.26852106189E+03  0.00000000000E+00 0. -1.
         11    1    3    3    0    0 -0.50550740760E+01 -0.33738872497E+02  0.18253046184E+02  0.38691588055E+02  0.00000000000E+00 0.  1.
          2    1    1    2  501    0 -0.44986681175E+02  0.39608837751E+02 -0.15470480403E+03  0.16591033090E+03  0.00000000000E+00 0. -1.
<scales pt_clust_5="13000.00000" pt_clust_6="13000.00000" pt_clust_7="13000.00000" pt_clust_8="13000.00000" pt_clust_9="59.93881"></scales>
<clustering>
<clus scale="   59.939">  2  9  1 -1</clus>
<clus scale="   76.220">  5  6 -1 -1</clus>
<clus scale="   90.682">  7  8 -1 -1</clus>
<clus scale="  137.563">  2  5  1 -1</clus>
<clus scale="   59.939">  2  5  1 -1</clus>
</clustering>
</event>
<event>
 9    1  0.8429841E-005  0.1628202E+03  0.7546771E-02  0.1201023E+00
         21   -1    0    0  501  502  0.00000000000E+00  0.00000000000E+00  0.13571771305E+03  0.13571771305E+03  0.00000000000E+00 0. -1.
          1   -1    0    0  502    0 -0.00000000000E+00 -0.00000000000E+00 -0.48022893167E+03  0.48022893167E+03  0.00000000000E+00 0. -1.
         23    2    1    2    0    0  0.68297511398E+02  0.15173158427E+02  0.25642619763E+02  0.11869600370E+03  0.92392762407E+02 0.  0.
        -24    2    1    2    0    0  0.12408317712E+02  0.13147794076E+03 -0.11692391690E+03  0.19369608435E+03  0.80040961354E+02 0.  0.
         13    1    4    4    0    0 -0.84173836701E+01  0.39183903167E+02 -0.84771026640E+02  0.93767572075E+02  0.00000000000E+00 0. -1.
        -14    1    4    4    0    0  0.20825701382E+02  0.92294037591E+02 -0.32152890255E+02  0.99928512271E+02  0.00000000000E+00 0.  1.
        -11    1    3    3    0    0  0.70827035209E+02 -0.19867720323E+02 -0.26189708990E+01  0.73607433293E+02  0.00000000000E+00 0. -1.
         11    1    3    3    0    0 -0.25295238112E+01  0.35040878750E+02  0.28261590662E+02  0.45088570403E+02  0.00000000000E+00 0.  1.
          2    1    1    2  501    0 -0.80705829110E+02 -0.14665109918E+03 -0.25322992149E+03  0.30355455668E+03  0.00000000000E+00 0. -1.
<scales pt_clust_5="13000.00000" pt_clust_6="13000.00000" pt_clust_7="13000.00000" pt_clust_8="13000.00000" pt_clust_9="141.78811"></scales>
<clustering>
<clus scale="   80.041">  5  6 -1 -1</clus>
<clus scale="   92.393">  7  8 -1 -1</clus>
<clus scale="  115.893">  2  7  1 -1</clus>
<clus scale="  141.788">  1  9  2 -1</clus>
<clus scale="  141.788">  1  5  2 -1</clus>
</clustering>
</event>
<event>
 9    1  0.8429841E-005  0.2050023E+03  0.7546771E-02  0.1146618E+00
         21   -1    0    0  501  502  0.00000000000E+00  0.00000000000E+00  0.81061606671E+02  0.81061606671E+02  0.00000000000E+00 0. -1.
          3   -1    0    0  502    0 -0.00000000000E+00 -0.00000000000E+00 -0.11113970156E+04  0.11113970156E+04  0.00000000000E+00 0. -1.
        -24    2    1    2    0    0 -0.79465493504E+02  0.12686766960E+03 -0.43420359453E+03  0.46625503579E+03  0.80317038328E+02 0.  0.
         23    2    1    2    0    0  0.94049999636E+02 -0.22786498296E+03 -0.55860429958E+03  0.61747695916E+03  0.92039006384E+02 0.  0.
         11    1    3    3    0    0 -0.75182465189E+02  0.55538147521E+02 -0.18898515897E+03  0.21083709165E+03  0.00000000000E+00 0. -1.
        -12    1    3    3    0    0 -0.42830283152E+01  0.71329522082E+02 -0.24521843556E+03  0.25541794414E+03  0.00000000000E+00 0.  1.
        -13    1    4    4    0    0  0.21929540422E+02 -0.76150837237E+01 -0.18281802212E+02  0.29548579244E+02  0.00000000000E+00 0.  1.
         13    1    4    4    0    0  0.72120459214E+02 -0.22024989923E+03 -0.54032249737E+03  0.58792837992E+03  0.00000000000E+00 0. -1.
          4    1    1    2  501    0 -0.14584506132E+02  0.10099731335E+03 -0.37527514841E+02  0.10872662734E+03  0.00000000000E+00 0. -1.
<scales pt_clust_5="13000.00000" pt_clust_6="13000.00000" pt_clust_7="13000.00000" pt_clust_8="13000.00000" pt_clust_9="102.04492"></scales>
<clustering>
<clus scale="   80.317">  5  6 -1 -1</clus>
<clus scale="   92.039">  7  8 -1 -1</clus>
<clus scale="  102.045">  1  9  2 -1</clus>
<clus scale="  200.014">  2  5  1 -1</clus>
<clus scale="  102.045">  1  5  2 -1</clus>
</clustering>
</event>
<event>
 9    1  0.8429841E-005  0.1076061E+03  0.7546771E-02  0.1268025E+00
          1   -1    0    0  502    0 -0.00000000000E+00  0.00000000000E+00  0.93035363685E+03  0.93035363685E+03  0.00000000000E+00 0. -1.
         21   -1    0    0  501  502  0.00000000000E+00 -0.00000000000E+00 -0.27826980031E+02  0.27826980031E+02  0.00000000000E+00 0. -1.
         23    2    1    2    0    0 -0.14578918106E+02 -0.82195179480E+02  0.62188316740E+03  0.63364034888E+03  0.88276981448E+02 0.  0.
        -24    2    1    2    0    0  0.28013035570E+02  0.24096299013E+02  0.22903372737E+03  0.24567631576E+03  0.80839607037E+02 0.  0.
         13    1    4    4    0    0  0.28026123606E+02  0.39034709185E+02  0.22517796209E+03  0.23024831538E+03  0.00000000000E+00 0. -1.
        -14    1    4    4    0    0 -0.13088035312E-01 -0.14938410172E+02  0.38557652767E+01  0.15428000377E+02  0.00000000000E+00 0.  1.
        -11    1    3    3    0    0 -0.51694135611E+02 -0.52723405832E+02  0.39889786789E+03  0.40567419216E+03  0.00000000000E+00 0. -1.
         11    1    3    3    0    0  0.37115217504E+02 -0.29471773648E+02  0.22298529951E+03  0.22796615672E+03  0.00000000000E+00 0.  1.
          2    1    1    2  501    0 -0.13434117464E+02  0.58098880467E+02  0.51609762052E+02  0.78863952239E+02  0.00000000000E+00 0. -1.
<scales pt_clust_5="13000.00000" pt_clust_6="13000.00000" pt_clust_7="13000.00000" pt_clust_8="13000.00000" pt_clust_9="59.63183"></scales>
<clustering>
<clus scale="   59.632">  2  9  1 -1</clus>
<clus scale="   80.840">  5  6 -1 -1</clus>
<clus scale="   88.277">  7  8 -1 -1</clus>
<clus scale="  101.594">  2  5  1 -1</clus>
<clus scale="   59.632">  2  5  1 -1</clus>
</clustering>
</event>
<event>
 9    1  0.8429841E-005  0.8415808E+02  0.7546771E-02  0.1319086E+00
         21   -1    0    0  501  502  0.00000000000E+00  0.00000000000E+00  0.49005343963E+02  0.49005343963E+02  0.00000000000E+00 0. -1.
          3   -1    0    0  502    0 -0.00000000000E+00 -0.00000000000E+00 -0.29453567174E+03  0.29453567174E+03  0.00000000000E+00 0. -1.
         23    2    1    2    0    0  0.91038124806E+01 -0.10428360531E+02 -0.18830541708E+03  0.20568646112E+03  0.81586518981E+02 0.  0.
        -24    2    1    2    0    0 -0.37762861577E+02  0.26414350091E+02 -0.35060566452E+02  0.98254666797E+02  0.79378741626E+02 0.  0.
         11    1    4    4    0    0 -0.23867833028E+02 -0.34298472722E+01 -0.54799551197E+02  0.59870093679E+02  0.00000000000E+00 0. -1.
        -12    1    4    4    0    0 -0.13895028549E+02  0.29844197364E+02  0.19738984745E+02  0.38384573118E+02  0.00000000000E+00 0.  1.
        -11    1    3    3    0    0  0.35909245309E+02  0.19576883946E+02 -0.74652406226E+02  0.85121736583E+02  0.00000000000E+00 0. -1.
         11    1    3    3    0    0 -0.26805432829E+02 -0.30005244477E+02 -0.11365301086E+03  0.12056472453E+03  0.00000000000E+00 0.  1.
          4    1    1    2  501    0  0.28659049097E+02 -0.15985989560E+02 -0.22164344248E+02  0.39599887794E+02  0.00000000000E+00 0. -1.
<scales pt_clust_5="13000.00000" pt_clust_6="13000.00000" pt_clust_7="13000.00000" pt_clust_8="13000.00000" pt_clust_9="32.81605"></scales>
<clustering>
<clus scale="   32.816">  1  9  2 -1</clus>
<clus scale="   79.379">  5  6 -1 -1</clus>
<clus scale="   81.587">  7  8 -1 -1</clus>
<clus scale="   82.020">  1  5  2 -1</clus>
<clus scale="   32.816">  1  5  2 -1</clus>
</clustering>
</event>
<event>
 9    1  0.8429841E-005  0.1061868E+03  0.7546771E-02  0.1274533E+00
         21   -1    0    0  501  502  0.00000000000E+00  0.00000000000E+00  0.20498287001E+03  0.20498287001E+03  0.00000000000E+00 0. -1.
          3   -1    0    0  502    0 -0.00000000000E+00 -0.00000000000E+00 -0.10737483905E+03  0.10737483905E+03  0.00000000000E+00 0. -1.
        -24    2    1    2    0    0  0.35908402848E+02  0.35530915052E+02 -0.33416280920E+01  0.95704520005E+02  0.81217789625E+02 0.  0.
         23    2    1    2    0    0 -0.54829390658E+02  0.17651706075E+02  0.13538350423E+02  0.11259968433E+03  0.95799567706E+02 0.  0.
         13    1    3    3    0    0 -0.24671806480E+02 -0.45583897267E+00  0.34462777191E+01  0.24915510316E+02  0.00000000000E+00 0. -1.
        -14    1    3    3    0    0  0.60580209328E+02  0.35986754024E+02 -0.67879058110E+01  0.70789009689E+02  0.00000000000E+00 0.  1.
        -13    1    4    4    0    0 -0.30823679513E+02  0.90680084585E+01  0.55133990591E+02  0.63812889878E+02  0.00000000000E+00 0. -1.
         13    1    4    4    0    0 -0.24005711144E+02  0.85836976165E+01 -0.41595640167E+02  0.48786794456E+02  0.00000000000E+00 0.  1.
          4    1    1    2  501    0  0.18920987810E+02 -0.53182621127E+02  0.87411308622E+02  0.10405350472E+03  0.00000000000E+00 0. -1.
<scales pt_clust_5="13000.00000" pt_clust_6="13000.00000" pt_clust_7="13000.00000" pt_clust_8="13000.00000" pt_clust_9="56.44816"></scales>
<clustering>
<clus scale="   56.448">  1  9  2 -1</clus>
<clus scale="   81.218">  5  6 -1 -1</clus>
<clus scale="   93.244">  2  5  1 -1</clus>
<clus scale="   95.800">  7  8 -1 -1</clus>
<clus scale="   56.448">  1  5  2 -1</clus>
</clustering>
</event>
<event>
 9    1  0.8429841E-005  0.1153218E+03  0.7546771E-02  0.1254839E+00
         21   -1    0    0  501  502  0.00000000000E+00  0.00000000000E+00  0.45143233938E+03  0.45143233938E+03  0.00000000000E+00 0. -1.
          1   -1    0    0  502    0 -0.00000000000E+00 -0.00000000000E+00 -0.12519114647E+03  0.12519114647E+03  0.00000000000E+00 0. -1.
         23    2    1    2    0    0  0.33651180723E+02  0.68527515745E+02 -0.75385174469E+02  0.14057535549E+03  0.90829971169E+02 0.  0.
        -24    2    1    2    0    0 -0.40205843350E+02 -0.33136957854E+02  0.12563016781E+03  0.15771495347E+03  0.79852987843E+02 0.  0.
         11    1    4    4    0    0 -0.56563308963E+02 -0.26024913232E+01  0.54460255978E+02  0.78562716113E+02  0.00000000000E+00 0. -1.
        -12    1    4    4    0    0  0.16357465613E+02 -0.30534466531E+02  0.71169911836E+02  0.79152237355E+02  0.00000000000E+00 0.  1.
        -11    1    3    3    0    0  0.63362248120E+02  0.60827341189E+02 -0.58670247448E+02  0.10562640701E+03  0.00000000000E+00 0. -1.
         11    1    3    3    0    0 -0.29711067398E+02  0.77001745554E+01 -0.16714927021E+02  0.34948948473E+02  0.00000000000E+00 0.  1.
          2    1    1    2  501    0  0.65546626272E+01 -0.35390557890E+02  0.27599619956E+03  0.27833317689E+03  0.00000000000E+00 0. -1.
<scales pt_clust_5="13000.00000" pt_clust_6="13000.00000" pt_clust_7="13000.00000" pt_clust_8="13000.00000" pt_clust_9="35.99243"></scales>
<clustering>
<clus scale="   35.992">  1  9  2 -1</clus>
<clus scale="   79.853">  5  6 -1 -1</clus>
<clus scale="   90.830">  7  8 -1 -1</clus>
<clus scale="  106.890">  1  5  2 -1</clus>
<clus scale="   35.992">  1  5  2 -1</clus>
</clustering>
</event>
<event>
 9    1  0.1049550E-004  0.9045801E+02  0.7546771E-02  0.1306118E+00
         21   -1    0    0  501  502  0.00000000000E+00  0.00000000000E+00  0.22179372564E+03  0.22179372564E+03  0.00000000000E+00 0. -1.
         -4   -1    0    0    0  501 -0.00000000000E+00 -0.00000000000E+00 -0.18367707756E+03  0.18367707756E+03  0.00000000000E+00 0.  1.
         23    2    1    2    0    0  0.11453059056E+02 -0.40060732421E+01 -0.14982137373E+03  0.17508899653E+03  0.89791377614E+02 0.  0.
        -24    2    1    2    0    0 -0.39756812867E+00 -0.25606385060E+02  0.17676235570E+03  0.19685544273E+03  0.82772519122E+02 0.  0.
         11    1    4    4    0    0 -0.32587378800E+02 -0.57845412039E+01  0.14094526355E+03  0.14477902297E+03  0.00000000000E+00 0. -1.
        -12    1    4    4    0    0  0.32189810672E+02 -0.19821843856E+02  0.35817092154E+02  0.52076419763E+02  0.00000000000E+00 0.  1.
        -11    1    3    3    0    0 -0.32101470545E+02 -0.25925843708E+02 -0.58856088775E+02  0.71879711804E+02  0.00000000000E+00 0. -1.
         11    1    3    3    0    0  0.43554529602E+02  0.21919770466E+02 -0.90965284959E+02  0.10320928473E+03  0.00000000000E+00 0.  1.
         -3    1    1    2    0  502 -0.11055490928E+02  0.29612458302E+02  0.11175666110E+02  0.33526363944E+02  0.00000000000E+00 0.  1.
<scales pt_clust_5="13000.00000" pt_clust_6="13000.00000" pt_clust_7="13000.00000" pt_clust_8="13000.00000" pt_clust_9="31.60888"></scales>
<clustering>
<clus scale="   31.609">  1  9  2 -1</clus>
<clus scale="   82.773">  5  6 -1 -1</clus>
<clus scale="   83.495">  1  5  2 -1</clus>
<clus scale="   89.791">  7  8 -1 -1</clus>
<clus scale="   31.609">  1  5  2 -1</clus>
</clustering>
</event>
<event>
 9    1  0.8429841E-005  0.2118223E+03  0.7546771E-02  0.1159533E+00
          1   -1    0    0  502    0 -0.00000000000E+00  0.00000000000E+00  0.76429358108E+03  0.76429358108E+03  0.00000000000E+00 0. -1.
         21   -1    0    0  501  502  0.00000000000E+00 -0.00000000000E+00 -0.30430676874E+03  0.30430676874E+03  0.00000000000E+00 0. -1.
        -24    2    1    2    0    0 -0.99091224198E+02 -0.41435651482E+02  0.60211406651E+03  0.61678710500E+03  0.79680611710E+02 0.  0.
         23    2    1    2    0    0  0.14682990502E+02 -0.15811919514E+03  0.15701267549E+02  0.18375219021E+03  0.91110194384E+02 0.  0.
         13    1    3    3    0    0 -0.85280101652E+02 -0.54799087407E+02  0.57303157077E+03  0.58192853240E+03  0.00000000000E+00 0. -1.
        -14    1    3    3    0    0 -0.13811122546E+02  0.13363435925E+02  0.29082495742E+02  0.34858572608E+02  0.00000000000E+00 0.  1.
        -13    1    4    4    0    0  0.38034818195E+02 -0.95242201359E+02 -0.24649949191E+02  0.10547674772E+03  0.00000000000E+00 0. -1.
         13    1    4    4    0    0 -0.23351827693E+02 -0.62876993785E+02  0.40351216740E+02  0.78275442487E+02  0.00000000000E+00 0.  1.
          2    1    1    2  501    0  0.84408233696E+02  0.19955484663E+03 -0.15782852172E+03  0.26806105460E+03  0.00000000000E+00 0. -1.
<scales pt_clust_5="13000.00000" pt_clust_6="13000.00000" pt_clust_7="13000.00000" pt_clust_8="13000.00000" pt_clust_9="191.22663"></scales>
<clustering>
<clus scale="   79.681">  5  6 -1 -1</clus>
<clus scale="   91.110">  7  8 -1 -1</clus>
<clus scale="  133.735">  1  5  2 -1</clus>
<clus scale="  191.227">  2  9  1 -1</clus>
<clus scale="  191.227">  2  5  1 -1</clus>
</clustering>
</event>
<event>
 9    1  0.8429841E-005  0.1142451E+03  0.7546771E-02  0.1257011E+00
          1   -1    0    0  502    0 -0.00000000000E+00  0.00000000000E+00  0.39248718170E+03  0.39248718170E+03  0.00000000000E+00 0. -1.
         21   -1    0    0  501  502  0.00000000000E+00 -0.00000000000E+00 -0.88030294144E+02  0.88030294144E+02  0.00000000000E+00 0.  1.
        -24    2    1    2    0    0 -0.49822489387E+02  0.48211303360E+02  0.31309029874E+03  0.33015858745E+03  0.78565561674E+02 0.  0.
         23    2    1    2    0    0  0.39424634319E+02 -0.66730290430E+02  0.13509474656E+02  0.11967704254E+03  0.90182343913E+02 0.  0.
         11    1    3    3    0    0 -0.51074003528E+02  0.43776235059E+01  0.23568194382E+03  0.24119223882E+03  0.00000000000E+00 0. -1.
        -12    1    3    3    0    0  0.12515141414E+01  0.43833679854E+02  0.77408354923E+02  0.88966348633E+02  0.00000000000E+00 0.  1.
        -11    1    4    4    0    0  0.18162921864E+02 -0.29690591152E+02 -0.38815571921E+02  0.52135127861E+02  0.00000000000E+00 0.  1.
         11    1    4    4    0    0  0.21261712456E+02 -0.37039699279E+02  0.52325046577E+02  0.67541914679E+02  0.00000000000E+00 0. -1.
          2    1    1    2  501    0  0.10397855067E+02  0.18518987071E+02 -0.22142885836E+02  0.30681845858E+02  0.00000000000E+00 0. -1.
<scales pt_clust_5="13000.00000" pt_clust_6="13000.00000" pt_clust_7="13000.00000" pt_clust_8="13000.00000" pt_clust_9="21.23837"></scales>
<clustering>
<clus scale="   21.238">  2  9  1 -1</clus>
<clus scale="   78.566">  5  6 -1 -1</clus>
<clus scale="   90.182">  7  8 -1 -1</clus>
<clus scale="  105.317">  1  5  2 -1</clus>
<clus scale="   21.238">  2  5  1 -1</clus>
</clustering>
</event>
<event>
 9    1  0.8429841E-005  0.8981844E+02  0.7546771E-02  0.1307926E+00
         21   -1    0    0  501  502  0.00000000000E+00  0.00000000000E+00  0.24127403067E+02  0.24127403067E+02  0.00000000000E+00 0.  1.
          1   -1    0    0  502    0 -0.00000000000E+00 -0.00000000000E+00 -0.12849594801E+04  0.12849594801E+04  0.00000000000E+00 0. -1.
        -24    2    1    2    0    0 -0.13883683733E+02  0.54285056883E+01 -0.10297440360E+04  0.10329858030E+04  0.80403135286E+02 0.  0.
         23    2    1    2    0    0  0.58710398382E+02 -0.12078653098E+01 -0.15281581167E+03  0.18580274110E+03  0.87872728906E+02 0.  0.
         13    1    3    3    0    0  0.16974204481E+02 -0.20648769412E+02 -0.15343352184E+03  0.15574447316E+03  0.00000000000E+00 0. -1.
        -14    1    3    3    0    0 -0.30857888213E+02  0.26077275101E+02 -0.87631051414E+03  0.87724132981E+03  0.00000000000E+00 0.  1.
        -11    1    4    4    0    0  0.29603809966E+02  0.19989464000E+02 -0.80371449925E+01  0.36613657768E+02  0.00000000000E+00 0.  1.
         11    1    4    4    0    0  0.29106588415E+02 -0.21197329310E+02 -0.14477866668E+03  0.14918908333E+03  0.00000000000E+00 0. -1.
          2    1    1    2  501    0 -0.44826714649E+02 -0.42206403785E+01 -0.78272229398E+02  0.90298339112E+02  0.00000000000E+00 0. -1.
<scales pt_clust_5="13000.00000" pt_clust_6="13000.00000" pt_clust_7="13000.00000" pt_clust_8="13000.00000" pt_clust_9="45.02497"></scales>
<clustering>
<clus scale="   45.025">  1  9  2 -1</clus>
<clus scale="   80.403">  5  6 -1 -1</clus>
<clus scale="   82.525">  2  5  1 -1</clus>
<clus scale="   87.873">  7  8 -1 -1</clus>
<clus scale="   45.025">  1  5  2 -1</clus>
</clustering>
</event>
<event>
 9    1  0.8429841E-005  0.9277772E+02  0.7546771E-02  0.1303128E+00
          3   -1    0    0  502    0 -0.00000000000E+00  0.00000000000E+00  0.11702548154E+03  0.11702548154E+03  0.00000000000E+00 0. -1.
         21   -1    0    0  501  502  0.00000000000E+00 -0.00000000000E+00 -0.17077042839E+03  0.17077042839E+03  0.00000000000E+00 0. -1.
        -24    2    1    2    0    0  0.12169387547E+01 -0.10010246291E+02  0.53181479516E+02  0.96906702472E+02  0.80380055050E+02 0.  0.
         23    2    1    2    0    0 -0.44074673461E+02  0.90550590839E+01 -0.36361837169E+02  0.10832372402E+03  0.91582067281E+02 0.  0.
         11    1    3    3    0    0 -0.33114670956E+02 -0.19461409994E+02  0.47110263456E+02  0.60784083726E+02  0.00000000000E+00 0. -1.
        -12    1    3    3    0    0  0.34331609710E+02  0.94511637034E+01  0.60712160601E+01  0.36122618747E+02  0.00000000000E+00 0.  1.
        -13    1    4    4    0    0 -0.50666304180E+02  0.30299708123E+02 -0.53944703296E+02  0.79969854979E+02  0.00000000000E+00 0. -1.
         13    1    4    4    0    0  0.65916307196E+01 -0.21244649039E+02  0.17582866127E+02  0.28353869041E+02  0.00000000000E+00 0.  1.
          4    1    1    2  501    0  0.42857734706E+02  0.95518720671E+00 -0.70564589196E+02  0.82565483436E+02  0.00000000000E+00 0. -1.
<scales pt_clust_5="13000.00000" pt_clust_6="13000.00000" pt_clust_7="13000.00000" pt_clust_8="13000.00000" pt_clust_9="42.86838"></scales>
<clustering>
<clus scale="   42.868">  2  9  1 -1</clus>
<clus scale="   80.380">  5  6 -1 -1</clus>
<clus scale="   81.740">  1  5  2 -1</clus>
<clus scale="   91.582">  7  8 -1 -1</clus>
<clus scale="   42.868">  2  5  1 -1</clus>
</clustering>
</event>
<event>
 9    1  0.8429841E-005  0.1408858E+03  0.7546771E-02  0.1214464E+00
         21   -1    0    0  501  502  0.00000000000E+00  0.00000000000E+00  0.15323932064E+03  0.15323932064E+03  0.00000000000E+00 0. -1.
          1   -1    0    0  502    0 -0.00000000000E+00 -0.00000000000E+00 -0.24230932648E+03  0.24230932648E+03  0.00000000000E+00 0. -1.
         23    2    1    2    0    0 -0.49331802994E+02  0.10450661501E+03 -0.13140477279E+03  0.19761152934E+03  0.91803283423E+02 0.  0.
        -24    2    1    2    0    0  0.55242744676E+02 -0.76480512101E+02 -0.23120189539E+02  0.12648956355E+03  0.81018744449E+02 0.  0.
         13    1    4    4    0    0  0.25705017978E+02 -0.17002551264E+01 -0.36810935945E+02  0.44929765433E+02  0.00000000000E+00 0. -1.
        -14    1    4    4    0    0  0.29537726698E+02 -0.74780256975E+02  0.13690746405E+02  0.81559798117E+02  0.00000000000E+00 0.  1.
        -11    1    3    3    0    0 -0.13214898718E+02  0.67955805147E+02 -0.15666639303E+02  0.70979353254E+02  0.00000000000E+00 0.  1.
         11    1    3    3    0    0 -0.36116904276E+02  0.36550809863E+02 -0.11573813349E+03  0.12663217609E+03  0.00000000000E+00 0. -1.
          2    1    1    2  501    0 -0.59109416823E+01 -0.28026102908E+02  0.65454956497E+02  0.71447554232E+02  0.00000000000E+00 0. -1.
<scales pt_clust_5="13000.00000" pt_clust_6="13000.00000" pt_clust_7="13000.00000" pt_clust_8="13000.00000" pt_clust_9="28.64265"></scales>
<clustering>
<clus scale="   28.643">  1  9  2 -1</clus>
<clus scale="   81.019">  5  6 -1 -1</clus>
<clus scale="   91.803">  7  8 -1 -1</clus>
<clus scale="  134.108">  1  5  2 -1</clus>
<clus scale="   28.643">  1  5  2 -1</clus>
</clustering>
</event>
<event>
 9    1  0.8429841E-005  0.1160857E+03  0.7546771E-02  0.1255468E+00
          1   -1    0    0  502    0 -0.00000000000E+00  0.00000000000E+00  0.11394682365E+03  0.11394682365E+03  0.00000000000E+00 0. -1.
         21   -1    0    0  501  502  0.00000000000E+00 -0.00000000000E+00 -0.22702955843E+03  0.22702955843E+03  0.00000000000E+00 0.  1.
         23    2    1    2    0    0  0.28270441733E+02 -0.49754764844E+02  0.10220639618E+01  0.11086932919E+03  0.94953720516E+02 0.  0.
        -24    2    1    2    0    0 -0.85459864270E+02  0.29527434100E+02 -0.25602743492E+02  0.12281125269E+03  0.79068612904E+02 0.  0.
         11    1    4    4    0    0 -0.42163609218E+02  0.16428803407E+02  0.27579704231E+02  0.52993543089E+02  0.00000000000E+00 0. -1.
        -12    1    4    4    0    0 -0.43296255052E+02  0.13098630692E+02 -0.53182447723E+02  0.69817709597E+02  0.00000000000E+00 0.  1.
        -13    1    3    3    0    0 -0.33448259077E+02 -0.30523922374E+02 -0.66583718858E+01  0.45769310553E+02  0.00000000000E+00 0.  1.
         13    1    3    3    0    0  0.61718700810E+02 -0.19230842470E+02  0.76804358476E+01  0.65100018637E+02  0.00000000000E+00 0. -1.
          2    1    1    2  501    0  0.57189422537E+02  0.20227330744E+02 -0.88502055244E+02  0.10729580020E+03  0.00000000000E+00 0. -1.
<scales pt_clust_5="13000.00000" pt_clust_6="13000.00000" pt_clust_7="13000.00000" pt_clust_8="13000.00000" pt_clust_9="60.66115"></scales>
<clustering>
<clus scale="   60.661">  2  9  1 -1</clus>
<clus scale="   79.069">  5  6 -1 -1</clus>
<clus scale="   94.954">  7  8 -1 -1</clus>
<clus scale="  103.496">  2  5  1 -1</clus>
<clus scale="   60.661">  2  5  1 -1</clus>
</clustering>
</event>
<event>
 9    1  0.8429841E-005  0.1985721E+03  0.7546771E-02  0.1180520E+00
          1   -1    0    0  502    0 -0.00000000000E+00  0.00000000000E+00  0.22318906465E+04  0.22318906465E+04  0.00000000000E+00 0. -1.
         21   -1    0    0  501  502  0.00000000000E+00 -0.00000000000E+00 -0.31798465127E+02  0.31798465127E+02  0.00000000000E+00 0. -1.
        -24    2    1    2    0    0 -0.42667122921E+02 -0.43360782429E+02  0.18502054461E+03  0.21052602839E+03  0.79924751316E+02 0.  0.
         23    2    1    2    0    0  0.18913827945E+03 -0.20180790792E+02  0.78876370399E+03  0.81650529823E+03  0.91390197689E+02 0.  0.
         11    1    3    3    0    0 -0.43334179242E+02  0.87343448150E+01  0.55732768245E+02  0.71135654395E+02  0.00000000000E+00 0. -1.
        -12    1    3    3    0    0  0.66705632046E+00 -0.52095127244E+02  0.12928777636E+03  0.13939037400E+03  0.00000000000E+00 0.  1.
        -11    1    4    4    0    0  0.69597365499E+02  0.34992487110E+02  0.34112105086E+03  0.34990261328E+03  0.00000000000E+00 0.  1.
         11    1    4    4    0    0  0.11954091396E+03 -0.55173277902E+02  0.44764265313E+03  0.46660268496E+03  0.00000000000E+00 0. -1.
          2    1    1    2  501    0 -0.14647115653E+03  0.63541573221E+02  0.12263079328E+04  0.12366577850E+04  0.00000000000E+00 0. -1.
<scales pt_clust_5="13000.00000" pt_clust_6="13000.00000" pt_clust_7="13000.00000" pt_clust_8="13000.00000" pt_clust_9="176.29160"></scales>
<clustering>
<clus scale="   79.925">  5  6 -1 -1</clus>
<clus scale="   91.390">  7  8 -1 -1</clus>
<clus scale="  100.442">  1  5  2 -1</clus>
<clus scale="  176.292">  2  9  1 -1</clus>
<clus scale="  176.292">  2  5  1 -1</clus>
</clustering>
</event>
<event>
 9    1  0.8429841E-005  0.1385599E+03  0.7546771E-02  0.1226947E+00
          1   -1    0    0  502    0 -0.00000000000E+00  0.00000000000E+00  0.31072839254E+03  0.31072839254E+03  0.00000000000E+00 0. -1.
         21   -1    0    0  501  502  0.00000000000E+00 -0.00000000000E+00 -0.16082293121E+03  0.16082293121E+03  0.00000000000E+00 0. -1.
        -24    2    1    2    0    0 -0.46511061133E+02  0.56579349004E+02 -0.53993978554E+02  0.12119546053E+03  0.80053034861E+02 0.  0.
         23    2    1    2    0    0  0.20224894204E+02  0.58423263420E+02  0.20461685079E+03  0.23238519689E+03  0.91172912939E+02 0.  0.
         13    1    3    3    0    0 -0.17757267327E+01  0.57606119061E+02 -0.49948597421E+02  0.76265854371E+02  0.00000000000E+00 0. -1.
        -14    1    3    3    0    0 -0.44735334400E+02 -0.10267700574E+01 -0.40453811332E+01  0.44929606154E+02  0.00000000000E+00 0.  1.
        -13    1    4    4    0    0  0.32280503304E+02  0.65411162027E+01  0.16432926657E+02  0.36808398135E+02  0.00000000000E+00 0.  1.
         13    1    4    4    0    0 -0.12055609100E+02  0.51882147218E+02  0.18818392413E+03  0.19557679876E+03  0.00000000000E+00 0. -1.
          2    1    1    2  501    0  0.26286166929E+02 -0.11500261242E+03 -0.71741090398E+00  0.11797066633E+03  0.00000000000E+00 0. -1.
<scales pt_clust_5="13000.00000" pt_clust_6="13000.00000" pt_clust_7="13000.00000" pt_clust_8="13000.00000" pt_clust_9="104.33759"></scales>
<clustering>
<clus scale="   80.053">  5  6 -1 -1</clus>
<clus scale="   91.173">  7  8 -1 -1</clus>
<clus scale="  108.503">  1  5  2 -1</clus>
<clus scale="  104.338">  2  9  1 -1</clus>
<clus scale="  104.338">  2  5  1 -1</clus>
</clustering>
</event>
<event>
 9    1  0.8429841E-005  0.1226870E+03  0.7546771E-02  0.1238953E+00
         21   -1    0    0  501  502  0.00000000000E+00  0.00000000000E+00  0.20875552517E+03  0.20875552517E+03  0.00000000000E+00 0. -1.
          1   -1    0    0  502    0 -0.00000000000E+00 -0.00000000000E+00 -0.20809046115E+03  0.20809046115E+03  0.00000000000E+00 0. -1.
        -24    2    1    2    0    0  0.77960562783E+02  0.49910045876E+02 -0.14812015984E+03  0.19498607708E+03  0.86666755313E+02 0.  0.
         23    2    1    2    0    0 -0.23414028539E+02 -0.46943751796E+02  0.12741757870E+03  0.16320243266E+03  0.87452056012E+02 0.  0.
         11    1    3    3    0    0  0.63137625184E+02  0.52075168587E+02 -0.15737047265E+03  0.17737995535E+03  0.00000000000E+00 0. -1.
        -12    1    3    3    0    0  0.14822937599E+02 -0.21651227109E+01  0.92503128114E+01  0.17606121734E+02  0.00000000000E+00 0.  1.
        -11    1    4    4    0    0 -0.25377785943E+02  0.94328008439E+01  0.93587923702E+02  0.97425403330E+02  0.00000000000E+00 0. -1.
         11    1    4    4    0    0  0.19637574036E+01 -0.56376552640E+02  0.33829654995E+02  0.65777029332E+02  0.00000000000E+00 0.  1.
          2    1    1    2  501    0 -0.54546534243E+02 -0.29662940807E+01  0.21367645165E+02  0.58657476577E+02  0.00000000000E+00 0. -1.
<scales pt_clust_5="13000.00000" pt_clust_6="13000.00000" pt_clust_7="13000.00000" pt_clust_8="13000.00000" pt_clust_9="54.62713"></scales>
<clustering>
<clus scale="   54.627">  1  9  2 -1</clus>
<clus scale="   86.667">  5  6 -1 -1</clus>
<clus scale="   87.452">  7  8 -1 -1</clus>
<clus scale="  122.128">  2  5  1 -1</clus>
<clus scale="   54.627">  1  5  2 -1</clus>
</clustering>
</event>
<event>
 9    1  0.8429841E-005  0.9510251E+02  0.7546771E-02  0.1296931E+00
          3   -1    0    0  502    0 -0.00000000000E+00  0.00000000000E+00  0.10213910588E+03  0.10213910588E+03  0.00000000000E+00 0. -1.
         21   -1    0    0  501  502  0.00000000000E+00 -0.00000000000E+00 -0.13422761189E+03  0.13422761189E+03  0.00000000000E+00 0. -1.
         23    2    1    2    0    0 -0.39167913027E+02  0.64186122884E+01 -0.11330265644E+02  0.10061143375E+03  0.91754900070E+02 0.  0.
        -24    2    1    2    0    0  0.65202998241E+01  0.28445206739E+02 -0.13239387453E+02  0.87403596616E+02  0.81317053716E+02 0.  0.
         13    1    4    4    0    0  0.43144861992E+01  0.56094667030E+02 -0.18394951562E+02  0.59191221506E+02  0.00000000000E+00 0. -1.
        -14    1    4    4    0    0  0.22058136250E+01 -0.27649460291E+02  0.51555641092E+01  0.28212375111E+02  0.00000000000E+00 0.  1.
        -13    1    3    3    0    0 -0.64130996487E+02  0.20453469116E+02  0.52534421256E+01  0.67518351309E+02  0.00000000000E+00 0. -1.
         13    1    3    3    0    0  0.24963083460E+02 -0.14034856828E+02 -0.16583707769E+02  0.33093082440E+02  0.00000000000E+00 0.  1.
          4    1    1    2  501    0  0.32647613202E+02 -0.34863819028E+02 -0.75188529122E+01  0.48351687397E+02  0.00000000000E+00 0. -1.
<scales pt_clust_5="13000.00000" pt_clust_6="13000.00000" pt_clust_7="13000.00000" pt_clust_8="13000.00000" pt_clust_9="47.76351"></scales>
<clustering>
<clus scale="   47.764">  2  9  1 -1</clus>
<clus scale="   81.317">  5  6 -1 -1</clus>
<clus scale="   85.076">  2  5  1 -1</clus>
<clus scale="   91.755">  7  8 -1 -1</clus>
<clus scale="   47.764">  2  5  1 -1</clus>
</clustering>
</event>
<event>
 9    1  0.8429841E-005  0.1794515E+03  0.7546771E-02  0.1198664E+00
         21   -1    0    0  501  502  0.00000000000E+00  0.00000000000E+00  0.96460928535E+02  0.96460928535E+02  0.00000000000E+00 0. -1.
          1   -1    0    0  502    0 -0.00000000000E+00 -0.00000000000E+00 -0.71137475982E+03  0.71137475982E+03  0.00000000000E+00 0. -1.
        -24    2    1    2    0    0 -0.41579279732E+02 -0.21232656722E+01 -0.93537928749E+01  0.91595434387E+02  0.81048660688E+02 0.  0.
         23    2    1    2    0    0 -0.14085418708E+03 -0.17654097119E+02 -0.15400940424E+03  0.22882760630E+03  0.92149919402E+02 0.  0.
         13    1    3    3    0    0 -0.45321364583E+02  0.32420310291E+02 -0.11049538675E+02  0.56808405293E+02  0.00000000000E+00 0. -1.
        -14    1    3    3    0    0  0.37420848510E+01 -0.34543575963E+02  0.16957458003E+01  0.34787029094E+02  0.00000000000E+00 0.  1.
        -11    1    4    4    0    0 -0.30943006769E+02  0.49614866575E+00  0.82315882702E+01  0.32023036659E+02  0.00000000000E+00 0.  1.
         11    1    4    4    0    0 -0.10991118031E+03 -0.18150245785E+02 -0.16224099251E+03  0.19680456964E+03  0.00000000000E+00 0. -1.
          2    1    1    2  501    0  0.18243346681E+03  0.19777362791E+02 -0.45155063417E+03  0.48741264767E+03  0.00000000000E+00 0. -1.
<scales pt_clust_5="13000.00000" pt_clust_6="13000.00000" pt_clust_7="13000.00000" pt_clust_8="13000.00000" pt_clust_9="153.98458"></scales>
<clustering>
<clus scale="   81.049">  5  6 -1 -1</clus>
<clus scale="   91.117">  2  5  1 -1</clus>
<clus scale="   92.150">  7  8 -1 -1</clus>
<clus scale="  153.985">  1  9  2 -1</clus>
<clus scale="  153.985">  1  5  2 -1</clus>
</clustering>
</event>
<event>
 9    1  0.1015547E-004  0.2594642E+03  0.7546771E-02  0.1107925E+00
         21   -1    0    0  501  502  0.00000000000E+00  0.00000000000E+00  0.16941310287E+03  0.16941310287E+03  0.00000000000E+00 0. -1.
          1   -1    0    0  502    0 -0.00000000000E+00 -0.00000000000E+00 -0.92573351935E+03  0.92573351935E+03  0.00000000000E+00 0. -1.
        -24    2    1    2    0    0  0.75166285877E+02  0.22723590628E+03 -0.61083098878E+03  0.66097346162E+03  0.80531313629E+02 0.  0.
         23    2    1    2    0    0 -0.11126677070E+03 -0.24384835139E+03  0.72846122704E+00  0.28265125004E+03  0.89715582579E+02 0.  0.
         13    1    3    3    0    0  0.36126125804E+02  0.19849192803E+03 -0.52444506868E+03  0.56191349202E+03  0.00000000000E+00 0. -1.
        -14    1    3    3    0    0  0.39040160072E+02  0.28743978251E+02 -0.86385920102E+02  0.99059969594E+02  0.00000000000E+00 0.  1.
        -13    1    4    4    0    0 -0.22411193586E+02 -0.26576625207E+02  0.30224855476E+02  0.46066479069E+02  0.00000000000E+00 0.  1.
         13    1    4    4    0    0 -0.88855577117E+02 -0.21727172618E+03 -0.29496394249E+02  0.23658477097E+03  0.00000000000E+00 0. -1.
          2    1    1    2  501    0  0.36100484826E+02  0.16612445112E+02 -0.14621788893E+03  0.15152191056E+03  0.00000000000E+00 0. -1.
<scales pt_clust_5="13000.00000" pt_clust_6="13000.00000" pt_clust_7="13000.00000" pt_clust_8="13000.00000" pt_clust_9="39.73940"></scales>
<clustering>
<clus scale="   39.739">  1  9  2 -1</clus>
<clus scale="   80.531">  5  6 -1 -1</clus>
<clus scale="   89.716">  7  8 -1 -1</clus>
<clus scale="  256.433">  2  5  1 -1</clus>
<clus scale="   39.739">  1  5  2 -1</clus>
</clustering>
</event>
<event>
 9    1  0.8429841E-005  0.1719214E+03  0.7546771E-02  0.1209415E+00
         21   -1    0    0  501  502  0.00000000000E+00  0.00000000000E+00  0.63043292604E+02  0.63043292604E+02  0.00000000000E+00 0. -1.
          1   -1    0    0  502    0 -0.00000000000E+00 -0.00000000000E+00 -0.81452264588E+03  0.81452264588E+03  0.00000000000E+00 0. -1.
        -24    2    1    2    0    0  0.21828249263E+02  0.79732606736E+01 -0.32186407458E+03  0.33218834997E+03  0.78819870579E+02 0.  0.
         23    2    1    2    0    0 -0.14719823728E+03 -0.40395437269E+02 -0.13763194812E+03  0.22596704272E+03  0.93911867420E+02 0.  0.
         11    1    3    3    0    0  0.45212862341E+02  0.21619622942E+02 -0.14864432368E+03  0.15686537534E+03  0.00000000000E+00 0. -1.
        -12    1    3    3    0    0 -0.23384613078E+02 -0.13646362268E+02 -0.17321975090E+03  0.17532297463E+03  0.00000000000E+00 0.  1.
        -11    1    4    4    0    0 -0.19364455178E+02  0.16806565570E+02 -0.61347309391E+02  0.66490113100E+02  0.00000000000E+00 0.  1.
         11    1    4    4    0    0 -0.12783378210E+03 -0.57202002838E+02 -0.76284638729E+02  0.15947692962E+03  0.00000000000E+00 0. -1.
          2    1    1    2  501    0  0.12536998802E+03  0.32422176595E+02 -0.29198333058E+03  0.31941054580E+03  0.00000000000E+00 0. -1.
<scales pt_clust_5="13000.00000" pt_clust_6="13000.00000" pt_clust_7="13000.00000" pt_clust_8="13000.00000" pt_clust_9="144.00534"></scales>
<clustering>
<clus scale="   78.820">  5  6 -1 -1</clus>
<clus scale="   82.174">  2  5  1 -1</clus>
<clus scale="   93.912">  7  8 -1 -1</clus>
<clus scale="  144.005">  1  9  2 -1</clus>
<clus scale="  144.005">  1  5  2 -1</clus>
</clustering>
</event>
<event>
 9    1  0.8429841E-005  0.1715462E+03  0.7546771E-02  0.1204643E+00
          1   -1    0    0  502    0 -0.00000000000E+00  0.00000000000E+00  0.96413595994E+03  0.96413595994E+03  0.00000000000E+00 0. -1.
         21   -1    0    0  501  502  0.00000000000E+00 -0.00000000000E+00 -0.47516935052E+02  0.47516935052E+02  0.00000000000E+00 0. -1.
         23    2    1    2    0    0 -0.81902195672E+01  0.15796106212E+02  0.20112290807E+03  0.22101456919E+03  0.89891150718E+02 0.  0.
        -24    2    1    2    0    0 -0.14664680465E+03 -0.12145045861E+02  0.48439863075E+03  0.51244076582E+03  0.79377059343E+02 0.  0.
         13    1    4    4    0    0 -0.12583543403E+03  0.20081485941E+02  0.39817145821E+03  0.41806498618E+03  0.00000000000E+00 0. -1.
        -14    1    4    4    0    0 -0.20811370622E+02 -0.32226531802E+02  0.86227172544E+02  0.94375779648E+02  0.00000000000E+00 0.  1.
        -11    1    3    3    0    0  0.32645807694E+01 -0.32767569155E+02  0.37273155662E+02  0.49735894573E+02  0.00000000000E+00 0.  1.
         11    1    3    3    0    0 -0.11454800337E+02  0.48563675367E+02  0.16384975240E+03  0.17127867462E+03  0.00000000000E+00 0. -1.
          2    1    1    2  501    0  0.15483702422E+03 -0.36510603512E+01  0.23109748606E+03  0.27819755997E+03  0.00000000000E+00 0. -1.
<scales pt_clust_5="13000.00000" pt_clust_6="13000.00000" pt_clust_7="13000.00000" pt_clust_8="13000.00000" pt_clust_9="152.07692"></scales>
<clustering>
<clus scale="   79.377">  5  6 -1 -1</clus>
<clus scale="   89.891">  7  8 -1 -1</clus>
<clus scale="   91.635">  1  7  2 -1</clus>
<clus scale="  152.077">  2  9  1 -1</clus>
<clus scale="  152.077">  2  5  1 -1</clus>
</clustering>
</event>
<event>
 9    1  0.8429841E-005  0.1252984E+03  0.7546771E-02  0.1237408E+00
         -2   -1    0    0    0  501 -0.00000000000E+00  0.00000000000E+00  0.36685431007E+03  0.36685431007E+03  0.00000000000E+00 0.  1.
         21   -1    0    0  501  502  0.00000000000E+00 -0.00000000000E+00 -0.66800980148E+02  0.66800980148E+02  0.00000000000E+00 0. -1.
         23    2    1    2    0    0  0.23010910614E+02  0.74965653207E+02  0.11627790475E+03  0.16658419437E+03  0.89890997958E+02 0.  0.
        -24    2    1    2    0    0 -0.83247379429E+02 -0.65089957440E+02  0.13242304981E+03  0.18730250555E+03  0.79871995867E+02 0.  0.
         11    1    4    4    0    0 -0.42622016203E+02  0.11459196754E+02  0.59243842468E+02  0.73876805060E+02  0.00000000000E+00 0. -1.
        -12    1    4    4    0    0 -0.40625363226E+02 -0.76549154193E+02  0.73179207343E+02  0.11342570049E+03  0.00000000000E+00 0.  1.
        -13    1    3    3    0    0 -0.22858010313E+02  0.59460328282E+02  0.93342193069E+02  0.11300789478E+03  0.00000000000E+00 0.  1.
         13    1    3    3    0    0  0.45868920927E+02  0.15505324926E+02  0.22935711676E+02  0.53576299594E+02  0.00000000000E+00 0. -1.
         -1    1    1    2    0  502  0.60236468814E+02 -0.98756957680E+01  0.51352375370E+02  0.79768590299E+02  0.00000000000E+00 0.  1.
<scales pt_clust_5="13000.00000" pt_clust_6="13000.00000" pt_clust_7="13000.00000" pt_clust_8="13000.00000" pt_clust_9="61.04065"></scales>
<clustering>
<clus scale="   61.041">  2  9  1 -1</clus>
<clus scale="   79.872">  5  6 -1 -1</clus>
<clus scale="   89.891">  7  8 -1 -1</clus>
<clus scale="  118.317">  2  5  1 -1</clus>
<clus scale="   61.041">  2  5  1 -1</clus>
</clustering>
</event>
<event>
 9    1  0.8429841E-005  0.1118855E+03  0.7546771E-02  0.1261708E+00
          3   -1    0    0  502    0 -0.00000000000E+00  0.00000000000E+00  0.27303527623E+02  0.27303527623E+02  0.00000000000E+00 0. -1.
         21   -1    0    0  501  502  0.00000000000E+00 -0.00000000000E+00 -0.91427716320E+03  0.91427716320E+03  0.00000000000E+00 0.  1.
         23    2    1    2    0    0 -0.27514689128E+02  0.64739058543E+02 -0.12264428134E+03  0.16814829072E+03  0.91016614471E+02 0.  0.
        -24    2    1    2    0    0  0.23297333440E+02 -0.37036964969E+02 -0.59788623944E+03  0.60464702591E+03  0.78838874326E+02 0.  0.
         11    1    4    4    0    0 -0.22618167486E+02 -0.34865600649E+02 -0.21221648242E+03  0.21624760581E+03  0.00000000000E+00 0. -1.
        -12    1    4    4    0    0  0.45915500927E+02 -0.21713643202E+01 -0.38566975703E+03  0.38839942010E+03  0.00000000000E+00 0.  1.
        -11    1    3    3    0    0  0.26778306543E+02  0.27259911389E+02 -0.82504063179E+02  0.90923599309E+02  0.00000000000E+00 0.  1.
         11    1    3    3    0    0 -0.54292995671E+02  0.37479147154E+02 -0.40140218158E+02  0.77224691415E+02  0.00000000000E+00 0. -1.
          4    1    1    2  501    0  0.42173556878E+01 -0.27702093575E+02 -0.16644311480E+03  0.16878537419E+03  0.00000000000E+00 0. -1.
<scales pt_clust_5="13000.00000" pt_clust_6="13000.00000" pt_clust_7="13000.00000" pt_clust_8="13000.00000" pt_clust_9="28.02128"></scales>
<clustering>
<clus scale="   28.021">  2  9  1 -1</clus>
<clus scale="   78.839">  5  6 -1 -1</clus>
<clus scale="   91.017">  7  8 -1 -1</clus>
<clus scale="  102.225">  2  5  1 -1</clus>
<clus scale="   28.021">  2  5  1 -1</clus>
</clustering>
</event>
<event>
 9    1  0.8429841E-005  0.4539838E+03  0.7546771E-02  0.1026541E+00
          1   -1    0    0  502    0 -0.00000000000E+00  0.00000000000E+00  0.18729968028E+04  0.18729968028E+04  0.00000000000E+00 0. -1.
         21   -1    0    0  501  502  0.00000000000E+00 -0.00000000000E+00 -0.96247788205E+02  0.96247788205E+02  0.00000000000E+00 0. -1.
        -24    2    1    2    0    0  0.14755611147E+03 -0.22766971463E+03  0.43803768943E+03  0.52128025618E+03  0.79055569909E+02 0.  0.
         23    2    1    2    0    0  0.12938515940E+03 -0.40407715216E+02  0.37295238115E+03  0.40813150506E+03  0.95417733672E+02 0.  0.
         11    1    3    3    0    0  0.12869795934E+03 -0.22998923185E+03  0.41069028832E+03  0.48798025004E+03  0.00000000000E+00 0. -1.
        -12    1    3    3    0    0  0.18858152131E+02  0.23195172198E+01  0.27347401101E+02  0.33300006140E+02  0.00000000000E+00 0.  1.
        -11    1    4    4    0    0  0.10651123757E+03 -0.35171115351E+02  0.36722946755E+03  0.38397803703E+03  0.00000000000E+00 0. -1.
         11    1    4    4    0    0  0.22873921829E+02 -0.52365998643E+01  0.57229135975E+01  0.24153468033E+02  0.00000000000E+00 0.  1.
          2    1    1    2  501    0 -0.27694127087E+03  0.26807742985E+03  0.96575894407E+03  0.10398328298E+04  0.00000000000E+00 0. -1.
<scales pt_clust_5="13000.00000" pt_clust_6="13000.00000" pt_clust_7="13000.00000" pt_clust_8="13000.00000" pt_clust_9="385.43758"></scales>
<clustering>
<clus scale="   79.056">  5  6 -1 -1</clus>
<clus scale="   95.418">  7  8 -1 -1</clus>
<clus scale="  141.059">  5  7 -1 -1</clus>
<clus scale="  385.438">  2  9  1 -1</clus>
<clus scale="  385.438">  2  5  1 -1</clus>
</clustering>
</event>
<event>
 9    1  0.8429841E-005  0.1150107E+03  0.7546771E-02  0.1255257E+00
          3   -1    0    0  502    0 -0.00000000000E+00  0.00000000000E+00  0.64249518708E+02  0.64249518708E+02  0.00000000000E+00 0. -1.
         21   -1    0    0  501  502  0.00000000000E+00 -0.00000000000E+00 -0.38271023905E+03  0.38271023905E+03  0.00000000000E+00 0. -1.
         23    2    1    2    0    0  0.40106188650E+02  0.47401546208E+02 -0.93372384395E+02  0.14406811505E+03  0.90453339657E+02 0.  0.
        -24    2    1    2    0    0 -0.67119976924E+02 -0.60969720428E+02 -0.24036362477E+03  0.26902167730E+03  0.79847308268E+02 0.  0.
         11    1    4    4    0    0 -0.10344898264E+02 -0.63161025812E+02 -0.12651863096E+03  0.14178609270E+03  0.00000000000E+00 0. -1.
        -12    1    4    4    0    0 -0.56775078660E+02  0.21913053845E+01 -0.11384499380E+03  0.12723558461E+03  0.00000000000E+00 0.  1.
        -13    1    3    3    0    0 -0.71139623335E+01  0.59162947738E+02 -0.39610301026E+02  0.71553048799E+02  0.00000000000E+00 0.  1.
         13    1    3    3    0    0  0.47220150984E+02 -0.11761401530E+02 -0.53762083369E+02  0.72515066249E+02  0.00000000000E+00 0. -1.
          4    1    1    2  501    0  0.27013788274E+02  0.13568174220E+02  0.15275288814E+02  0.33869965411E+02  0.00000000000E+00 0. -1.
<scales pt_clust_5="13000.00000" pt_clust_6="13000.00000" pt_clust_7="13000.00000" pt_clust_8="13000.00000" pt_clust_9="30.22980"></scales>
<clustering>
<clus scale="   30.230">  2  9  1 -1</clus>
<clus scale="   79.847">  5  6 -1 -1</clus>
<clus scale="   90.453">  7  8 -1 -1</clus>
<clus scale="  106.870">  2  5  1 -1</clus>
<clus scale="   30.230">  2  5  1 -1</clus>
</clustering>
</event>
<event>
 9    1  0.8429841E-005  0.9032774E+02  0.7546771E-02  0.1303476E+00
         21   -1    0    0  501  502  0.00000000000E+00  0.00000000000E+00  0.35324491319E+02  0.35324491319E+02  0.00000000000E+00 0. -1.
          3   -1    0    0  502    0 -0.00000000000E+00 -0.00000000000E+00 -0.67230613320E+03  0.67230613320E+03  0.00000000000E+00 0. -1.
         23    2    1    2    0    0  0.11784633847E+02  0.81886209850E+01 -0.51188647504E+03  0.51966080868E+03  0.88394918646E+02 0.  0.
        -24    2    1    2    0    0 -0.49715963954E+02  0.60890633386E+01 -0.93643618509E+02  0.13666837370E+03  0.86025364381E+02 0.  0.
         11    1    4    4    0    0 -0.66116294949E+02  0.11993191705E+02 -0.97884665849E+02  0.11872914096E+03  0.00000000000E+00 0. -1.
        -12    1    4    4    0    0  0.16400330996E+02 -0.59041283667E+01  0.42410473400E+01  0.17939232734E+02  0.00000000000E+00 0.  1.
        -11    1    3    3    0    0 -0.33443848008E+02 -0.17232871725E+02 -0.22345711387E+03  0.22660217248E+03  0.00000000000E+00 0.  1.
         11    1    3    3    0    0  0.45228481855E+02  0.25421492710E+02 -0.28842936117E+03  0.29305863620E+03  0.00000000000E+00 0. -1.
          4    1    1    2  501    0  0.37931330106E+02 -0.14277684324E+02 -0.31451548332E+02  0.51301442141E+02  0.00000000000E+00 0. -1.
<scales pt_clust_5="13000.00000" pt_clust_6="13000.00000" pt_clust_7="13000.00000" pt_clust_8="13000.00000" pt_clust_9="40.52947"></scales>
<clustering>
<clus scale="   40.529">  1  9  2 -1</clus>
<clus scale="   86.025">  5  6 -1 -1</clus>
<clus scale="   88.010">  1  5  2 -1</clus>
<clus scale="   88.395">  7  8 -1 -1</clus>
<clus scale="   40.529">  1  5  2 -1</clus>
</clustering>
</event>
<event>
 9    1  0.8429841E-005  0.9684863E+02  0.7546771E-02  0.1292912E+00
         21   -1    0    0  501  502  0.00000000000E+00  0.00000000000E+00  0.14595185385E+03  0.14595185385E+03  0.00000000000E+00 0.  1.
          1   -1    0    0  502    0 -0.00000000000E+00 -0.00000000000E+00 -0.15818387494E+03  0.15818387494E+03  0.00000000000E+00 0. -1.
         23    2    1    2    0    0  0.22397578244E+02  0.54355158063E+02 -0.34646398471E+02  0.11375693334E+03  0.91017208467E+02 0.  0.
        -24    2    1    2    0    0  0.19280684380E+02  0.13840759721E+02  0.59089974915E+02  0.10244211236E+03  0.80246182648E+02 0.  0.
         13    1    4    4    0    0  0.72582296835E+01 -0.23824718682E+02 -0.66053196467E+01  0.25766826852E+02  0.00000000000E+00 0. -1.
        -14    1    4    4    0    0  0.12022454696E+02  0.37665478402E+02  0.65695294562E+02  0.76675285508E+02  0.00000000000E+00 0.  1.
        -13    1    3    3    0    0 -0.19684569297E+02  0.59842438826E+02 -0.76500551084E+01  0.63459617839E+02  0.00000000000E+00 0.  1.
         13    1    3    3    0    0  0.42082147541E+02 -0.54872807632E+01 -0.26996343363E+02  0.50297315503E+02  0.00000000000E+00 0. -1.
          2    1    1    2  501    0 -0.41678262623E+02 -0.68195917784E+02 -0.36675597534E+02  0.87936683086E+02  0.00000000000E+00 0. -1.
<scales pt_clust_5="13000.00000" pt_clust_6="13000.00000" pt_clust_7="13000.00000" pt_clust_8="13000.00000" pt_clust_9="79.92351"></scales>
<clustering>
<clus scale="   79.924">  1  9  2 -1</clus>
<clus scale="   80.246">  5  6 -1 -1</clus>
<clus scale="   86.804">  1  5  2 -1</clus>
<clus scale="   91.017">  7  8 -1 -1</clus>
<clus scale="   79.924">  1  5  2 -1</clus>
</clustering>
</event>
<event>
 9    1  0.8429841E-005  0.1982847E+03  0.7546771E-02  0.1178465E+00
         21   -1    0    0  501  502  0.00000000000E+00  0.00000000000E+00  0.25818447307E+03  0.25818447307E+03  0.00000000000E+00 0. -1.
          1   -1    0    0  502    0 -0.00000000000E+00 -0.00000000000E+00 -0.30081037402E+03  0.30081037402E+03  0.00000000000E+00 0. -1.
        -24    2    1    2    0    0  0.57337506686E+02 -0.38281104754E+02 -0.35211440331E+02  0.11136702098E+03  0.80060821734E+02 0.  0.
         23    2    1    2    0    0  0.99884472767E+02 -0.12414306492E+03  0.86537452101E+02  0.20282724683E+03  0.90894185569E+02 0.  0.
         11    1    3    3    0    0  0.60362847381E+02 -0.52769115745E+02 -0.46561203285E+02  0.92715686762E+02  0.00000000000E+00 0. -1.
        -12    1    3    3    0    0 -0.30253406954E+01  0.14488010991E+02  0.11349762955E+02  0.18651334213E+02  0.00000000000E+00 0.  1.
        -11    1    4    4    0    0  0.55100169322E+02 -0.53502329140E+02 -0.72718609358E+01  0.77145368261E+02  0.00000000000E+00 0.  1.
         11    1    4    4    0    0  0.44784303445E+02 -0.70640735784E+02  0.93809313037E+02  0.12568187856E+03  0.00000000000E+00 0. -1.
          2    1    1    2  501    0 -0.15722197945E+03  0.16242416968E+03 -0.93951912717E+02  0.24480057929E+03  0.00000000000E+00 0. -1.
<scales pt_clust_5="13000.00000" pt_clust_6="13000.00000" pt_clust_7="13000.00000" pt_clust_8="13000.00000" pt_clust_9="176.22453"></scales>
<clustering>
<clus scale="   80.061">  5  6 -1 -1</clus>
<clus scale="   90.894">  7  8 -1 -1</clus>
<clus scale="  105.654">  2  5  1 -1</clus>
<clus scale="  176.225">  1  9  2 -1</clus>
<clus scale="  176.225">  1  5  2 -1</clus>
</clustering>
</event>
<event>
 9    1  0.8429841E-005  0.1499802E+03  0.7546771E-02  0.1202826E+00
          1   -1    0    0  502    0 -0.00000000000E+00  0.00000000000E+00  0.98882517451E+02  0.98882517451E+02  0.00000000000E+00 0. -1.
         21   -1    0    0  501  502  0.00000000000E+00 -0.00000000000E+00 -0.47123836042E+03  0.47123836042E+03  0.00000000000E+00 0.  1.
         23    2    1    2    0    0  0.59729342833E+01 -0.11508510477E+03 -0.88339173214E+02  0.17188221014E+03  0.91975145306E+02 0.  0.
        -24    2    1    2    0    0 -0.10962629578E+03  0.10244289469E+03 -0.21108050974E+03  0.27086705291E+03  0.79382034248E+02 0.  0.
         13    1    4    4    0    0 -0.33628872691E+02  0.29100329690E+02 -0.12907659018E+02  0.46306996533E+02  0.00000000000E+00 0. -1.
        -14    1    4    4    0    0 -0.75997423087E+02  0.73342564997E+02 -0.19817285072E+03  0.22456005638E+03  0.00000000000E+00 0.  1.
        -11    1    3    3    0    0  0.32444049870E+02 -0.96247091873E+02 -0.94594486445E+02  0.13879566251E+03  0.00000000000E+00 0. -1.
         11    1    3    3    0    0 -0.26471115587E+02 -0.18838012900E+02  0.62553132312E+01  0.33086547630E+02  0.00000000000E+00 0.  1.
          2    1    1    2  501    0  0.10365336149E+03  0.12642210085E+02 -0.72936160017E+02  0.12737161482E+03  0.00000000000E+00 0. -1.
<scales pt_clust_5="13000.00000" pt_clust_6="13000.00000" pt_clust_7="13000.00000" pt_clust_8="13000.00000" pt_clust_9="104.42153"></scales>
<clustering>
<clus scale="   79.382">  5  6 -1 -1</clus>
<clus scale="   91.975">  7  8 -1 -1</clus>
<clus scale="  104.422">  2  9  1 -1</clus>
<clus scale="  142.605">  2  5  1 -1</clus>
<clus scale="  104.422">  2  5  1 -1</clus>
</clustering>
</event>
<event>
 9    1  0.8429841E-005  0.1437229E+03  0.7546771E-02  0.1210352E+00
         21   -1    0    0  501  502  0.00000000000E+00  0.00000000000E+00  0.14430544947E+03  0.14430544947E+03  0.00000000000E+00 0.  1.
          1   -1    0    0  502    0 -0.00000000000E+00 -0.00000000000E+00 -0.27287924092E+03  0.27287924092E+03  0.00000000000E+00 0. -1.
         23    2    1    2    0    0  0.85876014758E+02 -0.34790927045E+02 -0.84962722073E+01  0.13030411663E+03  0.91224326005E+02 0.  0.
        -24    2    1    2    0    0 -0.13885102498E+03 -0.25790000076E+02 -0.29637339634E+02  0.16581932262E+03  0.81688093448E+02 0.  0.
         13    1    4    4    0    0 -0.13935837274E+03 -0.25988966164E+01 -0.30195981114E+02  0.14261594438E+03  0.00000000000E+00 0. -1.
        -14    1    4    4    0    0  0.50734775680E+00 -0.23191103460E+02  0.55864148085E+00  0.23203378240E+02  0.00000000000E+00 0.  1.
        -11    1    3    3    0    0  0.66756066177E+02 -0.57270138986E+02 -0.30928615838E+02  0.93235296259E+02  0.00000000000E+00 0. -1.
         11    1    3    3    0    0  0.19119948581E+02  0.22479211941E+02  0.22432343631E+02  0.37068820375E+02  0.00000000000E+00 0.  1.
          2    1    1    2  501    0  0.52975010225E+02  0.60580927121E+02 -0.90440179604E+02  0.12106125113E+03  0.00000000000E+00 0. -1.
<scales pt_clust_5="13000.00000" pt_clust_6="13000.00000" pt_clust_7="13000.00000" pt_clust_8="13000.00000" pt_clust_9="80.47613"></scales>
<clustering>
<clus scale="   80.476">  1  9  2 -1</clus>
<clus scale="   81.688">  5  6 -1 -1</clus>
<clus scale="   91.224">  7  8 -1 -1</clus>
<clus scale="  137.867">  1  5  2 -1</clus>
<clus scale="   80.476">  1  5  2 -1</clus>
</clustering>
</event>
<event>
 9    1  0.8429841E-005  0.1727889E+03  0.7546771E-02  0.1175111E+00
          1   -1    0    0  502    0 -0.00000000000E+00  0.00000000000E+00  0.97793555399E+03  0.97793555399E+03  0.00000000000E+00 0. -1.
         21   -1    0    0  501  502  0.00000000000E+00 -0.00000000000E+00 -0.40229188799E+02  0.40229188799E+02  0.00000000000E+00 0.  1.
        -24    2    1    2    0    0  0.72476209624E+02 -0.10990856615E+03  0.35895675045E+03  0.39202277874E+03  0.86598016632E+02 0.  0.
         23    2    1    2    0    0 -0.65412734376E+02  0.15475044627E+03  0.50673076778E+03  0.54101029419E+03  0.87690027756E+02 0.  0.
         11    1    3    3    0    0  0.79432698666E+02 -0.93742513878E+02  0.35245945171E+03  0.37326247819E+03  0.00000000000E+00 0. -1.
        -12    1    3    3    0    0 -0.69564890420E+01 -0.16166052272E+02  0.64972987390E+01  0.18760300550E+02  0.00000000000E+00 0.  1.
        -13    1    4    4    0    0 -0.73249587486E+02  0.12900368640E+03  0.48251988531E+03  0.50480975911E+03  0.00000000000E+00 0.  1.
         13    1    4    4    0    0  0.78368531102E+01  0.25746759864E+02  0.24210882466E+02  0.36200535078E+02  0.00000000000E+00 0. -1.
          2    1    1    2  501    0 -0.70634752475E+01 -0.44841880115E+02  0.72018846963E+02  0.85131669858E+02  0.00000000000E+00 0. -1.
<scales pt_clust_5="13000.00000" pt_clust_6="13000.00000" pt_clust_7="13000.00000" pt_clust_8="13000.00000" pt_clust_9="45.39479"></scales>
<clustering>
<clus scale="   45.395">  2  9  1 -1</clus>
<clus scale="   86.598">  5  6 -1 -1</clus>
<clus scale="   87.690">  7  8 -1 -1</clus>
<clus scale="  172.237">  1  5  2 -1</clus>
<clus scale="   45.395">  2  5  1 -1</clus>
</clustering>
</event>
<event>
 9    1  0.8429841E-005  0.1347479E+03  0.7546771E-02  0.1223289E+00
         21   -1    0    0  501  502  0.00000000000E+00  0.00000000000E+00  0.20080207071E+03  0.20080207071E+03  0.00000000000E+00 0.  1.
         -4   -1    0    0    0  501 -0.00000000000E+00 -0.00000000000E+00 -0.36807750103E+03  0.36807750103E+03  0.00000000000E+00 0.  1.
        -24    2    1    2    0    0 -0.10806778892E+03  0.51893475462E+01 -0.19581506451E+03  0.23814846062E+03  0.81642963428E+02 0.  0.
         23    2    1    2    0    0  0.15113203346E+02 -0.26874371759E+02  0.14826236109E+03  0.17761570827E+03  0.92816869897E+02 0.  0.
         11    1    3    3    0    0 -0.31809634557E+02 -0.27034484649E+02 -0.25871162280E+02  0.49112455127E+02  0.00000000000E+00 0. -1.
        -12    1    3    3    0    0 -0.76258154365E+02  0.32223832196E+02 -0.16994390223E+03  0.18903600549E+03  0.00000000000E+00 0.  1.
        -13    1    4    4    0    0 -0.28219071475E+02 -0.14270134875E+02  0.12061625403E+03  0.12469255584E+03  0.00000000000E+00 0.  1.
         13    1    4    4    0    0  0.43332274821E+02 -0.12604236884E+02  0.27646107054E+02  0.52923152436E+02  0.00000000000E+00 0. -1.
         -3    1    1    2    0  502  0.92954585576E+02  0.21685024213E+02 -0.11972272690E+03  0.15311540285E+03  0.00000000000E+00 0.  1.
<scales pt_clust_5="13000.00000" pt_clust_6="13000.00000" pt_clust_7="13000.00000" pt_clust_8="13000.00000" pt_clust_9="95.45053"></scales>
<clustering>
<clus scale="   81.643">  5  6 -1 -1</clus>
<clus scale="   92.817">  7  8 -1 -1</clus>
<clus scale="   95.451">  1  9  2 -1</clus>
<clus scale="  127.309">  2  5  1 -1</clus>
<clus scale="   95.451">  1  5  2 -1</clus>
</clustering>
</event>
<event>
 9    1  0.8429841E-005  0.1386900E+03  0.7546771E-02  0.1241230E+00
         21   -1    0    0  501  502  0.00000000000E+00  0.00000000000E+00  0.19165889335E+03  0.19165889335E+03  0.00000000000E+00 0. -1.
          1   -1    0    0  502    0 -0.00000000000E+00 -0.00000000000E+00 -0.22875244908E+03  0.22875244908E+03  0.00000000000E+00 0. -1.
        -24    2    1    2    0    0 -0.20826634088E+02  0.20893764001E+02 -0.38184904698E+02  0.89299112992E+02  0.75139514058E+02 0.  0.
         23    2    1    2    0    0  0.10937827858E+03 -0.83375622478E+02 -0.95487905045E+02  0.18594705219E+03  0.80890444193E+02 0.  0.
         13    1    3    3    0    0 -0.38161760953E+02 -0.12811015993E+02 -0.30797141070E+02  0.50684376566E+02  0.00000000000E+00 0. -1.
        -14    1    3    3    0    0  0.17335126865E+02  0.33704779994E+02 -0.73877636274E+01  0.38614736426E+02  0.00000000000E+00 0.  1.
        -13    1    4    4    0    0  0.51961838246E+02  0.53989518055E+01 -0.44239903840E+02  0.68456923727E+02  0.00000000000E+00 0.  1.
         13    1    4    4    0    0  0.57416440330E+02 -0.88774574284E+02 -0.51248001205E+02  0.11749012847E+03  0.00000000000E+00 0. -1.
          2    1    1    2  501    0 -0.88551644487E+02  0.62481858477E+02  0.96579254014E+02  0.14516517725E+03  0.00000000000E+00 0. -1.
<scales pt_clust_5="13000.00000" pt_clust_6="13000.00000" pt_clust_7="13000.00000" pt_clust_8="13000.00000" pt_clust_9="112.65720"></scales>
<clustering>
<clus scale="   75.140">  5  6 -1 -1</clus>
<clus scale="   80.723">  2  5  1 -1</clus>
<clus scale="   80.890">  7  8 -1 -1</clus>
<clus scale="  112.657">  1  9  2 -1</clus>
<clus scale="  112.657">  1  5  2 -1</clus>
</clustering>
</event>
<event>
 9    1  0.8429841E-005  0.1612853E+03  0.7546771E-02  0.1189039E+00
          1   -1    0    0  502    0 -0.00000000000E+00  0.00000000000E+00  0.50289799976E+03  0.50289799976E+03  0.00000000000E+00 0. -1.
         21   -1    0    0  501  502  0.00000000000E+00 -0.00000000000E+00 -0.13929838942E+03  0.13929838942E+03  0.00000000000E+00 0. -1.
        -24    2    1    2    0    0 -0.14541259941E+03  0.43245873754E+01  0.38836253823E+03  0.42195005732E+03  0.77800151973E+02 0.  0.
         23    2    1    2    0    0  0.75133116724E+02  0.45789682784E+02 -0.41589787254E+02  0.13230436829E+03  0.89627312733E+02 0.  0.
         11    1    3    3    0    0 -0.11849545264E+03 -0.74594845011E+01  0.21048987130E+03  0.24166671704E+03  0.00000000000E+00 0. -1.
        -12    1    3    3    0    0 -0.26917146766E+02  0.11784071877E+02  0.17787266693E+03  0.18028334028E+03  0.00000000000E+00 0.  1.
        -13    1    4    4    0    0 -0.34110694992E+01 -0.21667408502E+02 -0.50325787656E+01  0.22504195950E+02  0.00000000000E+00 0.  1.
         13    1    4    4    0    0  0.78544186223E+02  0.67457091286E+02 -0.36557208488E+02  0.10980017234E+03  0.00000000000E+00 0. -1.
          2    1    1    2  501    0  0.70279482685E+02 -0.50114270159E+02  0.16826859366E+02  0.87941963568E+02  0.00000000000E+00 0. -1.
<scales pt_clust_5="13000.00000" pt_clust_6="13000.00000" pt_clust_7="13000.00000" pt_clust_8="13000.00000" pt_clust_9="86.31712"></scales>
<clustering>
<clus scale="   77.800">  5  6 -1 -1</clus>
<clus scale="   86.317">  2  9  1 -1</clus>
<clus scale="   89.627">  7  8 -1 -1</clus>
<clus scale="  155.025">  1  5  2 -1</clus>
<clus scale="   86.317">  2  5  1 -1</clus>
</clustering>
</event>
<event>
 9    1  0.8429841E-005  0.9548740E+02  0.7546771E-02  0.1296679E+00
         21   -1    0    0  501  502  0.00000000000E+00  0.00000000000E+00  0.38226254692E+02  0.38226254692E+02  0.00000000000E+00 0. -1.
          1   -1    0    0  502    0 -0.00000000000E+00 -0.00000000000E+00 -0.53680561138E+03  0.53680561138E+03  0.00000000000E+00 0. -1.
        -24    2    1    2    0    0  0.22732154103E+02  0.72482931882E+01 -0.34724245834E+03  0.35705251830E+03  0.79623409687E+02 0.  0.
         23    2    1    2    0    0 -0.49354845909E+02 -0.24674641352E+02 -0.62471311522E+02  0.12358899947E+03  0.91251505668E+02 0.  0.
         13    1    3    3    0    0  0.45694262261E+02 -0.10963127643E+02 -0.13831205953E+03  0.14607662915E+03  0.00000000000E+00 0. -1.
        -14    1    3    3    0    0 -0.22962108158E+02  0.18211420831E+02 -0.20893039881E+03  0.21097588916E+03  0.00000000000E+00 0.  1.
        -13    1    4    4    0    0 -0.76124620898E+02 -0.23356760033E+02 -0.43326203907E+02  0.90651288414E+02  0.00000000000E+00 0. -1.
         13    1    4    4    0    0  0.26769774989E+02 -0.13178813186E+01 -0.19145107615E+02  0.32937711058E+02  0.00000000000E+00 0.  1.
          2    1    1    2  501    0  0.26622691806E+02  0.17426348164E+02 -0.88865586833E+02  0.94390348302E+02  0.00000000000E+00 0. -1.
<scales pt_clust_5="13000.00000" pt_clust_6="13000.00000" pt_clust_7="13000.00000" pt_clust_8="13000.00000" pt_clust_9="31.81896"></scales>
<clustering>
<clus scale="   31.819">  1  9  2 -1</clus>
<clus scale="   79.623">  5  6 -1 -1</clus>
<clus scale="   84.445">  2  5  1 -1</clus>
<clus scale="   91.252">  7  8 -1 -1</clus>
<clus scale="   31.819">  1  5  2 -1</clus>
</clustering>
</event>
<event>
 9    1  0.8429841E-005  0.2134319E+03  0.7546771E-02  0.1139396E+00
          1   -1    0    0  502    0 -0.00000000000E+00  0.00000000000E+00  0.18425277221E+03  0.18425277221E+03  0.00000000000E+00 0. -1.
         21   -1    0    0  501  502  0.00000000000E+00 -0.00000000000E+00 -0.50255312655E+03  0.50255312655E+03  0.00000000000E+00 0. -1.
        -24    2    1    2    0    0 -0.22284861150E+02 -0.14636175715E+03 -0.13969015143E+03  0.22050353392E+03  0.84794404730E+02 0.  0.
         23    2    1    2    0    0  0.20532521262E+02  0.26172302856E+03 -0.20812557024E+03  0.34721227061E+03  0.91211730432E+02 0.  0.
         11    1    3    3    0    0 -0.35049271660E+02 -0.45516286969E+02 -0.91428067608E+02  0.10797812450E+03  0.00000000000E+00 0. -1.
        -12    1    3    3    0    0  0.12764410509E+02 -0.10084547018E+03 -0.48262083820E+02  0.11252540942E+03  0.00000000000E+00 0.  1.
        -13    1    4    4    0    0  0.37299494128E+01  0.16337126933E+03 -0.18091535027E+03  0.24379181309E+03  0.00000000000E+00 0. -1.
         13    1    4    4    0    0  0.16802571849E+02  0.98351759223E+02 -0.27210219972E+02  0.10342045752E+03  0.00000000000E+00 0.  1.
          2    1    1    2  501    0  0.17523398882E+01 -0.11536127141E+03  0.29515367332E+02  0.11909009423E+03  0.00000000000E+00 0. -1.
<scales pt_clust_5="13000.00000" pt_clust_6="13000.00000" pt_clust_7="13000.00000" pt_clust_8="13000.00000" pt_clust_9="115.37464"></scales>
<clustering>
<clus scale="   84.794">  5  6 -1 -1</clus>
<clus scale="   91.212">  7  8 -1 -1</clus>
<clus scale="  115.375">  2  9  1 -1</clus>
<clus scale="  210.769">  1  5  2 -1</clus>
<clus scale="  115.375">  2  5  1 -1</clus>
</clustering>
</event>
<event>
 9    1  0.8429841E-005  0.9785113E+02  0.7546771E-02  0.1288768E+00
         -2   -1    0    0    0  501 -0.00000000000E+00  0.00000000000E+00  0.12446090429E+03  0.12446090429E+03  0.00000000000E+00 0.  1.
         21   -1    0    0  501  502  0.00000000000E+00 -0.00000000000E+00 -0.20162934516E+03  0.20162934516E+03  0.00000000000E+00 0. -1.
         23    2    1    2    0    0 -0.40173218525E+02 -0.50633711091E+01  0.82728267667E+02  0.12861090866E+03  0.89762321389E+02 0.  0.
        -24    2    1    2    0    0  0.31537686551E+02 -0.19145442832E+02 -0.12077813173E+03  0.15067226721E+03  0.82180297823E+02 0.  0.
         13    1    4    4    0    0  0.36292034653E+02  0.19243362193E+02 -0.96814783654E+02  0.10516901208E+03  0.00000000000E+00 0. -1.
        -14    1    4    4    0    0 -0.47543481018E+01 -0.38388805025E+02 -0.23963348072E+02  0.45503255136E+02  0.00000000000E+00 0.  1.
        -11    1    3    3    0    0 -0.56199731942E+02 -0.31040338099E+02  0.38461889186E+02  0.74841361421E+02  0.00000000000E+00 0.  1.
         11    1    3    3    0    0  0.16026513417E+02  0.25976966990E+02  0.44266378481E+02  0.53769547237E+02  0.00000000000E+00 0. -1.
         -1    1    1    2    0  502  0.86355319738E+01  0.24208813941E+02 -0.39118576811E+02  0.46807073575E+02  0.00000000000E+00 0.  1.
<scales pt_clust_5="13000.00000" pt_clust_6="13000.00000" pt_clust_7="13000.00000" pt_clust_8="13000.00000" pt_clust_9="25.70290"></scales>
<clustering>
<clus scale="   25.703">  2  9  1 -1</clus>
<clus scale="   82.180">  5  6 -1 -1</clus>
<clus scale="   89.762">  7  8 -1 -1</clus>
<clus scale="   90.946">  2  5  1 -1</clus>
<clus scale="   25.703">  2  5  1 -1</clus>
</clustering>
</event>
<event>
 9    1  0.8429841E-005  0.9480417E+02  0.7546771E-02  0.1297457E+00
         -2   -1    0    0    0  501 -0.00000000000E+00  0.00000000000E+00  0.87608942629E+02  0.87608942629E+02  0.00000000000E+00 0.  1.
         21   -1    0    0  501  502  0.00000000000E+00 -0.00000000000E+00 -0.28001093650E+03  0.28001093650E+03  0.00000000000E+00 0.  1.
        -24    2    1    2    0    0 -0.12520520773E+02  0.29983061102E+01  0.58558034005E+01  0.81699353849E+02  0.80465773506E+02 0.  0.
         23    2    1    2    0    0  0.78887344700E+02 -0.43426018233E+02 -0.13272311935E+03  0.18426547505E+03  0.90715526092E+02 0.  0.
         11    1    3    3    0    0 -0.13439334861E+02  0.26848907222E+02 -0.27478646814E+02  0.40700805536E+02  0.00000000000E+00 0. -1.
        -12    1    3    3    0    0  0.91881408762E+00 -0.23850601111E+02  0.33334450215E+02  0.40998548314E+02  0.00000000000E+00 0.  1.
        -13    1    4    4    0    0  0.19923406072E+02  0.17782219672E+02 -0.50067147602E-01  0.26704905031E+02  0.00000000000E+00 0. -1.
         13    1    4    4    0    0  0.58963938628E+02 -0.61208237905E+02 -0.13267305220E+03  0.15756057002E+03  0.00000000000E+00 0.  1.
         -1    1    1    2    0  502 -0.66366823927E+02  0.40427712122E+02 -0.65534677923E+02  0.10165505022E+03  0.00000000000E+00 0.  1.
<scales pt_clust_5="13000.00000" pt_clust_6="13000.00000" pt_clust_7="13000.00000" pt_clust_8="13000.00000" pt_clust_9="77.71071"></scales>
<clustering>
<clus scale="   77.711">  2  9  1 -1</clus>
<clus scale="   80.466">  5  6 -1 -1</clus>
<clus scale="   85.049">  1  5  2 -1</clus>
<clus scale="   90.716">  7  8 -1 -1</clus>
<clus scale="   77.711">  2  5  1 -1</clus>
</clustering>
</event>
<event>
 9    1  0.8429841E-005  0.1141069E+03  0.7546771E-02  0.1257970E+00
         21   -1    0    0  501  502  0.00000000000E+00  0.00000000000E+00  0.60093041553E+02  0.60093041553E+02  0.00000000000E+00 0. -1.
          3   -1    0    0  502    0 -0.00000000000E+00 -0.00000000000E+00 -0.35834924518E+03  0.35834924518E+03  0.00000000000E+00 0. -1.
         23    2    1    2    0    0 -0.45362905020E+02 -0.64753002932E+02 -0.24097219053E+03  0.27014741260E+03  0.93066016273E+02 0.  0.
        -24    2    1    2    0    0  0.27872167298E+02  0.23009714721E+02 -0.20914287575E+02  0.90232967938E+02  0.79989226753E+02 0.  0.
         11    1    4    4    0    0  0.98217488766E+01 -0.28658661403E+02  0.31248774332E+01  0.30455713477E+02  0.00000000000E+00 0. -1.
        -12    1    4    4    0    0  0.18050418422E+02  0.51668376124E+02 -0.24039165009E+02  0.59777254461E+02  0.00000000000E+00 0.  1.
        -13    1    3    3    0    0 -0.64922654121E+02 -0.74619129191E+02 -0.21090190685E+03  0.23294329733E+03  0.00000000000E+00 0. -1.
         13    1    3    3    0    0  0.19559749100E+02  0.98661262588E+01 -0.30070283681E+02  0.37204115268E+02  0.00000000000E+00 0.  1.
          4    1    1    2  501    0  0.17490737722E+02  0.41743288211E+02 -0.36369725524E+02  0.58061906198E+02  0.00000000000E+00 0. -1.
<scales pt_clust_5="13000.00000" pt_clust_6="13000.00000" pt_clust_7="13000.00000" pt_clust_8="13000.00000" pt_clust_9="45.25956"></scales>
<clustering>
<clus scale="   45.260">  1  9  2 -1</clus>
<clus scale="   79.989">  5  6 -1 -1</clus>
<clus scale="   93.066">  7  8 -1 -1</clus>
<clus scale="  103.718">  1  5  2 -1</clus>
<clus scale="   45.260">  1  5  2 -1</clus>
</clustering>
</event>
<event>
 9    1  0.8429841E-005  0.1139898E+03  0.7546771E-02  0.1258049E+00
         -4   -1    0    0    0  501 -0.00000000000E+00  0.00000000000E+00  0.73326527216E+02  0.73326527216E+02  0.00000000000E+00 0.  1.
         21   -1    0    0  501  502  0.00000000000E+00 -0.00000000000E+00 -0.39233583288E+03  0.39233583288E+03  0.00000000000E+00 0. -1.
        -24    2    1    2    0    0  0.75345733728E+02 -0.35235422154E+02 -0.85856623155E+01  0.11505486640E+03  0.79027805995E+02 0.  0.
         23    2    1    2    0    0 -0.28941195653E+02 -0.93771963790E+01 -0.16039617613E+03  0.18735337336E+03  0.91917509614E+02 0.  0.
         11    1    3    3    0    0  0.58509646599E+02  0.15672668824E+02 -0.10125896226E+02  0.61412906360E+02  0.00000000000E+00 0. -1.
        -12    1    3    3    0    0  0.16836087130E+02 -0.50908090978E+02  0.15402339104E+01  0.53641960044E+02  0.00000000000E+00 0.  1.
        -11    1    4    4    0    0 -0.57732358024E+02  0.14115265705E+02 -0.10486870695E+03  0.12053925330E+03  0.00000000000E+00 0.  1.
         11    1    4    4    0    0  0.28791162371E+02 -0.23492462084E+02 -0.55527469184E+02  0.66814120061E+02  0.00000000000E+00 0. -1.
         -3    1    1    2    0  502 -0.46404538076E+02  0.44612618533E+02 -0.15002746722E+03  0.16325412034E+03  0.00000000000E+00 0.  1.
<scales pt_clust_5="13000.00000" pt_clust_6="13000.00000" pt_clust_7="13000.00000" pt_clust_8="13000.00000" pt_clust_9="64.37132"></scales>
<clustering>
<clus scale="   64.371">  2  9  1 -1</clus>
<clus scale="   79.028">  5  6 -1 -1</clus>
<clus scale="   91.918">  7  8 -1 -1</clus>
<clus scale="  103.876">  1  5  2 -1</clus>
<clus scale="   64.371">  2  5  1 -1</clus>
</clustering>
</event>
<event>
 9    1  0.8429841E-005  0.9342255E+02  0.7546771E-02  0.1300830E+00
         21   -1    0    0  501  502  0.00000000000E+00  0.00000000000E+00  0.31925250099E+03  0.31925250099E+03  0.00000000000E+00 0. -1.
         -2   -1    0    0    0  501 -0.00000000000E+00 -0.00000000000E+00 -0.71041792302E+02  0.71041792302E+02  0.00000000000E+00 0.  1.
         23    2    1    2    0    0  0.24483820707E+02  0.27625505145E+01  0.22276992891E+02  0.96789755233E+02  0.90911512715E+02 0.  0.
        -24    2    1    2    0    0  0.29591993409E+01 -0.39414507868E+02  0.23059224015E+03  0.24748077054E+03  0.80695044957E+02 0.  0.
         11    1    4    4    0    0  0.25098017968E+02  0.67610459236E+01  0.14826910232E+03  0.15053022604E+03  0.00000000000E+00 0. -1.
        -12    1    4    4    0    0 -0.22138818627E+02 -0.46175553791E+02  0.82323137831E+02  0.96950544509E+02  0.00000000000E+00 0.  1.
        -11    1    3    3    0    0 -0.34129023631E+02  0.27551472420E+01  0.44494563607E+00  0.34242941856E+02  0.00000000000E+00 0. -1.
         11    1    3    3    0    0  0.58612844338E+02  0.74032725149E-02  0.21832047255E+02  0.62546813377E+02  0.00000000000E+00 0.  1.
         -1    1    1    2    0  502 -0.27443020047E+02  0.36651957353E+02 -0.46585243536E+01  0.46023767515E+02  0.00000000000E+00 0.  1.
<scales pt_clust_5="13000.00000" pt_clust_6="13000.00000" pt_clust_7="13000.00000" pt_clust_8="13000.00000" pt_clust_9="45.78742"></scales>
<clustering>
<clus scale="   45.787">  1  9  2 -1</clus>
<clus scale="   80.695">  5  6 -1 -1</clus>
<clus scale="   83.514">  1  5  2 -1</clus>
<clus scale="   90.912">  7  8 -1 -1</clus>
<clus scale="   45.787">  1  5  2 -1</clus>
</clustering>
</event>
<event>
 9    1  0.8429841E-005  0.9308211E+02  0.7546771E-02  0.1302992E+00
          3   -1    0    0  502    0 -0.00000000000E+00  0.00000000000E+00  0.12640481960E+03  0.12640481960E+03  0.00000000000E+00 0. -1.
         21   -1    0    0  501  502  0.00000000000E+00 -0.00000000000E+00 -0.22822541058E+03  0.22822541058E+03  0.00000000000E+00 0.  1.
        -24    2    1    2    0    0  0.22446864751E+02 -0.19443158006E+02  0.75527031273E+02  0.11247239721E+03  0.77870466491E+02 0.  0.
         23    2    1    2    0    0  0.53748840333E+01 -0.39610724740E+02 -0.11897745061E+03  0.15458793112E+03  0.90243536064E+02 0.  0.
         13    1    3    3    0    0  0.38567485616E+02 -0.36724308310E+02  0.29866551416E+02  0.61058469200E+02  0.00000000000E+00 0. -1.
        -14    1    3    3    0    0 -0.16120620865E+02  0.17281150304E+02  0.45660479858E+02  0.51413928013E+02  0.00000000000E+00 0.  1.
        -13    1    4    4    0    0  0.19796755109E+02 -0.59170461451E+02 -0.11373752322E+03  0.12972771180E+03  0.00000000000E+00 0.  1.
         13    1    4    4    0    0 -0.14421871076E+02  0.19559736710E+02 -0.52399273900E+01  0.24860219318E+02  0.00000000000E+00 0. -1.
          4    1    1    2  501    0 -0.27821748785E+02  0.59053882747E+02 -0.58370171641E+02  0.87569901852E+02  0.00000000000E+00 0. -1.
<scales pt_clust_5="13000.00000" pt_clust_6="13000.00000" pt_clust_7="13000.00000" pt_clust_8="13000.00000" pt_clust_9="65.27948"></scales>
<clustering>
<clus scale="   65.279">  2  9  1 -1</clus>
<clus scale="   77.870">  5  6 -1 -1</clus>
<clus scale="   81.143">  1  5  2 -1</clus>
<clus scale="   90.244">  7  8 -1 -1</clus>
<clus scale="   65.279">  2  5  1 -1</clus>
</clustering>
</event>
<event>
 9    1  0.8429841E-005  0.1155287E+03  0.7546771E-02  0.1254069E+00
         -4   -1    0    0    0  501 -0.00000000000E+00  0.00000000000E+00  0.18911249103E+03  0.18911249103E+03  0.00000000000E+00 0.  1.
         21   -1    0    0  501  502  0.00000000000E+00 -0.00000000000E+00 -0.12453538072E+03  0.12453538072E+03  0.00000000000E+00 0.  1.
         23    2    1    2    0    0 -0.74053685330E+02  0.18018578990E+02  0.12238222412E+03  0.17043309585E+03  0.90892320256E+02 0.  0.
        -24    2    1    2    0    0  0.58569039783E+02  0.84534669355E+01 -0.43429481526E+02  0.10934440143E+03  0.81044955021E+02 0.  0.
         13    1    4    4    0    0  0.66911463272E+02 -0.14296756988E+02 -0.11691307325E+02  0.69413455789E+02  0.00000000000E+00 0. -1.
        -14    1    4    4    0    0 -0.83424234891E+01  0.22750223924E+02 -0.31738174202E+02  0.39930945643E+02  0.00000000000E+00 0.  1.
        -13    1    3    3    0    0 -0.94052291655E+02  0.39679835004E+01  0.95337744970E+02  0.13398083473E+03  0.00000000000E+00 0.  1.
         13    1    3    3    0    0  0.19998606325E+02  0.14050595490E+02  0.27044479147E+02  0.36452261122E+02  0.00000000000E+00 0. -1.
         -3    1    1    2    0  502  0.15484645548E+02 -0.26472045926E+02 -0.14375632278E+02  0.33870374468E+02  0.00000000000E+00 0.  1.
<scales pt_clust_5="13000.00000" pt_clust_6="13000.00000" pt_clust_7="13000.00000" pt_clust_8="13000.00000" pt_clust_9="30.66828"></scales>
<clustering>
<clus scale="   30.668">  2  9  1 -1</clus>
<clus scale="   81.045">  5  6 -1 -1</clus>
<clus scale="   90.892">  7  8 -1 -1</clus>
<clus scale="  107.953">  2  5  1 -1</clus>
<clus scale="   30.668">  2  5  1 -1</clus>
</clustering>
</event>
<event>
 9    1  0.8429841E-005  0.1178193E+03  0.7546771E-02  0.1249516E+00
          1   -1    0    0  502    0 -0.00000000000E+00  0.00000000000E+00  0.13040374905E+03  0.13040374905E+03  0.00000000000E+00 0. -1.
         21   -1    0    0  501  502  0.00000000000E+00 -0.00000000000E+00 -0.20834156654E+03  0.20834156654E+03  0.00000000000E+00 0.  1.
         23    2    1    2    0    0 -0.44397337404E+02 -0.54119283040E+02  0.52041802101E+02  0.12433033361E+03  0.88598320096E+02 0.  0.
        -24    2    1    2    0    0  0.78062933358E+02  0.70498580135E+02 -0.91288767763E+02  0.16057600225E+03  0.79919597172E+02 0.  0.
         11    1    4    4    0    0  0.24092823357E+02 -0.29006890316E+01  0.82569984769E+01  0.25633106679E+02  0.00000000000E+00 0. -1.
        -12    1    4    4    0    0  0.53970110001E+02  0.73399269166E+02 -0.99545766240E+02  0.13494289557E+03  0.00000000000E+00 0.  1.
        -11    1    3    3    0    0 -0.61386862300E+02 -0.63983987834E+01  0.34602262914E+02  0.70757352755E+02  0.00000000000E+00 0. -1.
         11    1    3    3    0    0  0.16989524896E+02 -0.47720884256E+02  0.17439539187E+02  0.53572980853E+02  0.00000000000E+00 0.  1.
          2    1    1    2  501    0 -0.33665595955E+02 -0.16379297095E+02 -0.38690851822E+02  0.53838979736E+02  0.00000000000E+00 0. -1.
<scales pt_clust_5="13000.00000" pt_clust_6="13000.00000" pt_clust_7="13000.00000" pt_clust_8="13000.00000" pt_clust_9="37.43867"></scales>
<clustering>
<clus scale="   37.439">  2  9  1 -1</clus>
<clus scale="   79.920">  5  6 -1 -1</clus>
<clus scale="   88.598">  7  8 -1 -1</clus>
<clus scale="  111.440">  2  5  1 -1</clus>
<clus scale="   37.439">  2  5  1 -1</clus>
</clustering>
</event>
<event>
 9    1  0.8429841E-005  0.1226166E+03  0.7546771E-02  0.1241127E+00
          1   -1    0    0  502    0 -0.00000000000E+00  0.00000000000E+00  0.35908453072E+03  0.35908453072E+03  0.00000000000E+00 0. -1.
         21   -1    0    0  501  502  0.00000000000E+00 -0.00000000000E+00 -0.13229466691E+03  0.13229466691E+03  0.00000000000E+00 0.  1.
         23    2    1    2    0    0  0.58771060791E+02 -0.85013390829E+02  0.13955879312E+03  0.19482502144E+03  0.88310916858E+02 0.  0.
        -24    2    1    2    0    0 -0.98530914019E+02 -0.20179131137E+02  0.12347403750E+03  0.17840230253E+03  0.80411474684E+02 0.  0.
         13    1    4    4    0    0 -0.14306244927E+02  0.22873336651E+02  0.56163987048E+02  0.62307717135E+02  0.00000000000E+00 0. -1.
        -14    1    4    4    0    0 -0.84224669092E+02 -0.43052467788E+02  0.67310050453E+02  0.11609458540E+03  0.00000000000E+00 0.  1.
        -13    1    3    3    0    0  0.14153548944E+02  0.15943373255E+02  0.72436389379E+01  0.22516314164E+02  0.00000000000E+00 0.  1.
         13    1    3    3    0    0  0.44617511847E+02 -0.10095676408E+03  0.13231515418E+03  0.17230870728E+03  0.00000000000E+00 0. -1.
          2    1    1    2  501    0  0.39759853228E+02  0.10519252197E+03 -0.36242966812E+02  0.11815187366E+03  0.00000000000E+00 0. -1.
<scales pt_clust_5="13000.00000" pt_clust_6="13000.00000" pt_clust_7="13000.00000" pt_clust_8="13000.00000" pt_clust_9="112.45583"></scales>
<clustering>
<clus scale="   80.411">  5  6 -1 -1</clus>
<clus scale="   88.311">  7  8 -1 -1</clus>
<clus scale="  112.456">  2  9  1 -1</clus>
<clus scale="  117.056">  2  5  1 -1</clus>
<clus scale="  112.456">  2  5  1 -1</clus>
</clustering>
</event>
<event>
 9    1  0.8429841E-005  0.2121764E+03  0.7546771E-02  0.1151594E+00
         21   -1    0    0  501  502  0.00000000000E+00  0.00000000000E+00  0.10748605586E+03  0.10748605586E+03  0.00000000000E+00 0. -1.
          1   -1    0    0  502    0 -0.00000000000E+00 -0.00000000000E+00 -0.16885190634E+04  0.16885190634E+04  0.00000000000E+00 0. -1.
         23    2    1    2    0    0 -0.41668188856E+02 -0.12515507939E+03 -0.27935473604E+01  0.16033495954E+03  0.91101391216E+02 0.  0.
        -24    2    1    2    0    0 -0.12569340745E+03 -0.65562201883E+02 -0.82433199657E+03  0.84020837623E+03  0.79559034232E+02 0.  0.
         13    1    4    4    0    0 -0.13244932455E+03 -0.53376412589E+02 -0.65921092651E+03  0.67450048972E+03  0.00000000000E+00 0. -1.
        -14    1    4    4    0    0  0.67559170941E+01 -0.12185789294E+02 -0.16512107006E+03  0.16570788651E+03  0.00000000000E+00 0.  1.
        -11    1    3    3    0    0 -0.26120559877E+02 -0.94236769028E+02 -0.43394805210E+02  0.10698580001E+03  0.00000000000E+00 0.  1.
         11    1    3    3    0    0 -0.15547628979E+02 -0.30918310367E+02  0.40601257850E+02  0.53349159523E+02  0.00000000000E+00 0. -1.
          2    1    1    2  501    0  0.16736159631E+03  0.19071728128E+03 -0.75390746363E+03  0.79546178350E+03  0.00000000000E+00 0. -1.
<scales pt_clust_5="13000.00000" pt_clust_6="13000.00000" pt_clust_7="13000.00000" pt_clust_8="13000.00000" pt_clust_9="196.69576"></scales>
<clustering>
<clus scale="   79.559">  5  6 -1 -1</clus>
<clus scale="   91.101">  7  8 -1 -1</clus>
<clus scale="  160.311">  2  7  1 -1</clus>
<clus scale="  196.696">  1  9  2 -1</clus>
<clus scale="  196.696">  1  5  2 -1</clus>
</clustering>
</event>
<event>
 9    1  0.8429841E-005  0.3875832E+03  0.7546771E-02  0.1048291E+00
         21   -1    0    0  501  502  0.00000000000E+00  0.00000000000E+00  0.16535219394E+04  0.16535219394E+04  0.00000000000E+00 0.  1.
          1   -1    0    0  502    0 -0.00000000000E+00 -0.00000000000E+00 -0.17546141023E+03  0.17546141023E+03  0.00000000000E+00 0. -1.
        -24    2    1    2    0    0 -0.20044408233E+03  0.22905205425E+03  0.64601434809E+03  0.71873360949E+03  0.81245244579E+02 0.  0.
         23    2    1    2    0    0  0.21259608104E+03 -0.42341265980E+03  0.76539114111E+03  0.90441823034E+03  0.87597730181E+02 0.  0.
         13    1    3    3    0    0 -0.12669820276E+02  0.62843697120E+02  0.14075157848E+03  0.15466370440E+03  0.00000000000E+00 0. -1.
        -14    1    3    3    0    0 -0.18777426205E+03  0.16620835713E+03  0.50526276961E+03  0.56406990509E+03  0.00000000000E+00 0.  1.
        -11    1    4    4    0    0  0.16034659834E+03 -0.37382195372E+03  0.68326095893E+03  0.79517257415E+03  0.00000000000E+00 0.  1.
         11    1    4    4    0    0  0.52249482701E+02 -0.49590706076E+02  0.82130182182E+02  0.10924565619E+03  0.00000000000E+00 0. -1.
          2    1    1    2  501    0 -0.12151998712E+02  0.19436060555E+03  0.66655039926E+02  0.20583150976E+03  0.00000000000E+00 0. -1.
<scales pt_clust_5="13000.00000" pt_clust_6="13000.00000" pt_clust_7="13000.00000" pt_clust_8="13000.00000" pt_clust_9="194.74022"></scales>
<clustering>
<clus scale="   81.245">  5  6 -1 -1</clus>
<clus scale="   87.598">  7  8 -1 -1</clus>
<clus scale="  194.740">  1  9  2 -1</clus>
<clus scale="  386.197">  2  5  1 -1</clus>
<clus scale="  194.740">  1  5  2 -1</clus>
</clustering>
</event>
<event>
 9    1  0.8429841E-005  0.1101583E+03  0.7546771E-02  0.1262596E+00
          1   -1    0    0  502    0 -0.00000000000E+00  0.00000000000E+00  0.51704327205E+03  0.51704327205E+03  0.00000000000E+00 0. -1.
         21   -1    0    0  501  502  0.00000000000E+00 -0.00000000000E+00 -0.46077831391E+02  0.46077831391E+02  0.00000000000E+00 0.  1.
        -24    2    1    2    0    0 -0.49344675424E+02 -0.24330697173E+02  0.25652499952E+03  0.27604033651E+03  0.85827222876E+02 0.  0.
         23    2    1    2    0    0  0.44837570652E+02  0.58848779416E+02  0.22209485348E+03  0.25143806749E+03  0.91768138585E+02 0.  0.
         11    1    3    3    0    0  0.20692925403E+02 -0.29031962516E+01  0.11290975884E+03  0.11482699748E+03  0.00000000000E+00 0. -1.
        -12    1    3    3    0    0 -0.70037600827E+02 -0.21427500922E+02  0.14361524068E+03  0.16121333903E+03  0.00000000000E+00 0.  1.
        -11    1    4    4    0    0  0.58431186459E+02  0.78286489641E+01  0.76603838300E+02  0.96662502233E+02  0.00000000000E+00 0.  1.
         11    1    4    4    0    0 -0.13593615808E+02  0.51020130452E+02  0.14549101518E+03  0.15477556526E+03  0.00000000000E+00 0. -1.
          2    1    1    2  501    0  0.45071047728E+01 -0.34518082243E+02 -0.76544123393E+01  0.35642699441E+02  0.00000000000E+00 0. -1.
<scales pt_clust_5="13000.00000" pt_clust_6="13000.00000" pt_clust_7="13000.00000" pt_clust_8="13000.00000" pt_clust_9="34.81109"></scales>
<clustering>
<clus scale="   34.811">  2  9  1 -1</clus>
<clus scale="   85.827">  5  6 -1 -1</clus>
<clus scale="   91.768">  7  8 -1 -1</clus>
<clus scale="  105.261">  1  5  2 -1</clus>
<clus scale="   34.811">  2  5  1 -1</clus>
</clustering>
</event>
<event>
 9    1  0.8429841E-005  0.1055853E+03  0.7546771E-02  0.1272752E+00
         21   -1    0    0  501  502  0.00000000000E+00  0.00000000000E+00  0.67772654455E+02  0.67772654455E+02  0.00000000000E+00 0.  1.
          1   -1    0    0  502    0 -0.00000000000E+00 -0.00000000000E+00 -0.38339213234E+03  0.38339213234E+03  0.00000000000E+00 0. -1.
        -24    2    1    2    0    0 -0.44651411419E+02  0.26666082902E+02 -0.29179930454E+03  0.30742294721E+03  0.81591701928E+02 0.  0.
         23    2    1    2    0    0  0.58787029995E+02 -0.42728879818E+02 -0.64295525238E+01  0.11616897521E+03  0.90400329584E+02 0.  0.
         13    1    3    3    0    0 -0.68810793223E+02  0.18689288161E+02 -0.21715338186E+03  0.22856028966E+03  0.00000000000E+00 0. -1.
        -14    1    3    3    0    0  0.24159381805E+02  0.79767947407E+01 -0.74645922681E+02  0.78862657553E+02  0.00000000000E+00 0.  1.
        -11    1    4    4    0    0 -0.20021979811E+02 -0.28064528440E+02 -0.10098846341E+02  0.35923309000E+02  0.00000000000E+00 0.  1.
         11    1    4    4    0    0  0.78809009806E+02 -0.14664351378E+02  0.36692938173E+01  0.80245666208E+02  0.00000000000E+00 0. -1.
          2    1    1    2  501    0 -0.14135618577E+02  0.16062796916E+02 -0.17390620821E+02  0.27572864375E+02  0.00000000000E+00 0. -1.
<scales pt_clust_5="13000.00000" pt_clust_6="13000.00000" pt_clust_7="13000.00000" pt_clust_8="13000.00000" pt_clust_9="21.39694"></scales>
<clustering>
<clus scale="   21.397">  1  9  2 -1</clus>
<clus scale="   81.592">  5  6 -1 -1</clus>
<clus scale="   90.400">  7  8 -1 -1</clus>
<clus scale="   98.149">  2  5  1 -1</clus>
<clus scale="   21.397">  1  5  2 -1</clus>
</clustering>
</event>
<event>
 9    1  0.8429841E-005  0.1475970E+03  0.7546771E-02  0.1221350E+00
          1   -1    0    0  502    0 -0.00000000000E+00  0.00000000000E+00  0.92630342863E+02  0.92630342863E+02  0.00000000000E+00 0. -1.
         21   -1    0    0  501  502  0.00000000000E+00 -0.00000000000E+00 -0.42366022920E+03  0.42366022920E+03  0.00000000000E+00 0. -1.
         23    2    1    2    0    0  0.11875909567E+02  0.40037761142E+02 -0.24416672488E+02  0.10379337172E+03  0.91830444690E+02 0.  0.
        -24    2    1    2    0    0 -0.34979331285E+02  0.10048336396E+03 -0.12664800439E+03  0.18300334136E+03  0.78294609550E+02 0.  0.
         11    1    4    4    0    0 -0.16347085205E+02  0.85080039140E+02 -0.44548803312E+02  0.97418869483E+02  0.00000000000E+00 0. -1.
        -12    1    4    4    0    0 -0.18632246080E+02  0.15403324817E+02 -0.82099201076E+02  0.85584471879E+02  0.00000000000E+00 0.  1.
        -13    1    3    3    0    0  0.35138859598E+01  0.20830637243E+02  0.34950460818E+02  0.40838677181E+02  0.00000000000E+00 0.  1.
         13    1    3    3    0    0  0.83620236070E+01  0.19207123899E+02 -0.59367133307E+02  0.62954694538E+02  0.00000000000E+00 0. -1.
          2    1    1    2  501    0  0.23103421718E+02 -0.14052112510E+03 -0.17996520946E+03  0.22949385898E+03  0.00000000000E+00 0. -1.
<scales pt_clust_5="13000.00000" pt_clust_6="13000.00000" pt_clust_7="13000.00000" pt_clust_8="13000.00000" pt_clust_9="125.11932"></scales>
<clustering>
<clus scale="   78.295">  5  6 -1 -1</clus>
<clus scale="   91.830">  7  8 -1 -1</clus>
<clus scale="  100.881">  1  7  2 -1</clus>
<clus scale="  125.119">  2  9  1 -1</clus>
<clus scale="  125.119">  2  5  1 -1</clus>
</clustering>
</event>
<event>
 9    1  0.8429841E-005  0.1387589E+03  0.7546771E-02  0.1217820E+00
          1   -1    0    0  502    0 -0.00000000000E+00  0.00000000000E+00  0.11390378153E+03  0.11390378153E+03  0.00000000000E+00 0. -1.
         21   -1    0    0  501  502  0.00000000000E+00 -0.00000000000E+00 -0.58177014863E+03  0.58177014863E+03  0.00000000000E+00 0. -1.
        -24    2    1    2    0    0  0.99770757345E+02  0.17896453003E+02  0.49559546535E+02  0.13821283083E+03  0.79825753382E+02 0.  0.
         23    2    1    2    0    0 -0.12228193944E+03  0.92273039372E+01 -0.29794687351E+03  0.33516962273E+03  0.92348907483E+02 0.  0.
         13    1    3    3    0    0  0.10786187100E+03  0.25971031320E+02  0.56842979060E+02  0.12465874198E+03  0.00000000000E+00 0. -1.
        -14    1    3    3    0    0 -0.80911136589E+01 -0.80745783167E+01 -0.72834325251E+01  0.13554088851E+02  0.00000000000E+00 0.  1.
        -11    1    4    4    0    0  0.23478357592E+01  0.23359165788E+02 -0.83473957962E+02  0.86712540136E+02  0.00000000000E+00 0.  1.
         11    1    4    4    0    0 -0.12462977520E+03 -0.14131861851E+02 -0.21447291555E+03  0.24845708259E+03  0.00000000000E+00 0. -1.
          2    1    1    2  501    0  0.22511182098E+02 -0.27123756940E+02 -0.21947904013E+03  0.22229147660E+03  0.00000000000E+00 0. -1.
<scales pt_clust_5="13000.00000" pt_clust_6="13000.00000" pt_clust_7="13000.00000" pt_clust_8="13000.00000" pt_clust_9="35.24843"></scales>
<clustering>
<clus scale="   35.248">  2  9  1 -1</clus>
<clus scale="   79.826">  5  6 -1 -1</clus>
<clus scale="   92.349">  7  8 -1 -1</clus>
<clus scale="  130.759">  1  5  2 -1</clus>
<clus scale="   35.248">  2  5  1 -1</clus>
</clustering>
</event>
<event>
 9    1  0.8429841E-005  0.1674238E+03  0.7546771E-02  0.1199362E+00
          1   -1    0    0  502    0 -0.00000000000E+00  0.00000000000E+00  0.17915652774E+03  0.17915652774E+03  0.00000000000E+00 0. -1.
         21   -1    0    0  501  502  0.00000000000E+00 -0.00000000000E+00 -0.33998846464E+03  0.33998846464E+03  0.00000000000E+00 0. -1.
        -24    2    1    2    0    0 -0.59838198982E+02 -0.44132624458E+02 -0.31613822883E+01  0.11055407942E+03  0.81755192732E+02 0.  0.
         23    2    1    2    0    0 -0.62475687872E+02 -0.31531691125E+02  0.66898254435E+02  0.14191334442E+03  0.10376204392E+03 0.  0.
         11    1    3    3    0    0 -0.65911205820E+02 -0.54703440708E+02 -0.21704889099E+02  0.88362071551E+02  0.00000000000E+00 0. -1.
        -12    1    3    3    0    0  0.60730068387E+01  0.10570816251E+02  0.18543506810E+02  0.22192007865E+02  0.00000000000E+00 0.  1.
        -11    1    4    4    0    0 -0.90989296205E+02 -0.20630474315E+02  0.58975245923E+02  0.11037548698E+03  0.00000000000E+00 0. -1.
         11    1    4    4    0    0  0.28513608332E+02 -0.10901216810E+02  0.79230085119E+01  0.31537857440E+02  0.00000000000E+00 0.  1.
          2    1    1    2  501    0  0.12231388685E+03  0.75664315582E+02 -0.22456880904E+03  0.26667756855E+03  0.00000000000E+00 0. -1.
<scales pt_clust_5="13000.00000" pt_clust_6="13000.00000" pt_clust_7="13000.00000" pt_clust_8="13000.00000" pt_clust_9="131.39319"></scales>
<clustering>
<clus scale="   81.755">  5  6 -1 -1</clus>
<clus scale="  103.762">  7  8 -1 -1</clus>
<clus scale="  110.509">  1  5  2 -1</clus>
<clus scale="  131.393">  2  9  1 -1</clus>
<clus scale="  131.393">  2  5  1 -1</clus>
</clustering>
</event>
<event>
 9    1  0.8429841E-005  0.9571423E+02  0.7546771E-02  0.1294401E+00
         21   -1    0    0  501  502  0.00000000000E+00  0.00000000000E+00  0.57896037630E+03  0.57896037630E+03  0.00000000000E+00 0. -1.
          1   -1    0    0  502    0 -0.00000000000E+00 -0.00000000000E+00 -0.47253587864E+02  0.47253587864E+02  0.00000000000E+00 0. -1.
        -24    2    1    2    0    0 -0.99261157509E+01 -0.33612074553E+02  0.11570534925E+03  0.14493871004E+03  0.79944996659E+02 0.  0.
         23    2    1    2    0    0  0.76964841060E+02 -0.78406362859E+01  0.37366198385E+03  0.39180376479E+03  0.88892348325E+02 0.  0.
         11    1    3    3    0    0  0.64409413908E+01  0.20144077866E+02  0.65015554929E+01  0.22125546838E+02  0.00000000000E+00 0. -1.
        -12    1    3    3    0    0 -0.16367057142E+02 -0.53756152420E+02  0.10920379376E+03  0.12281316320E+03  0.00000000000E+00 0.  1.
        -11    1    4    4    0    0  0.78790582995E+02 -0.37897558219E+02  0.28966856696E+03  0.30257570883E+03  0.00000000000E+00 0. -1.
         11    1    4    4    0    0 -0.18257419345E+01  0.30056921933E+02  0.83993416890E+02  0.89228055961E+02  0.00000000000E+00 0.  1.
          2    1    1    2  501    0 -0.67038725309E+02  0.41452710839E+02  0.42339455332E+02  0.89471489341E+02  0.00000000000E+00 0. -1.
<scales pt_clust_5="13000.00000" pt_clust_6="13000.00000" pt_clust_7="13000.00000" pt_clust_8="13000.00000" pt_clust_9="78.81957"></scales>
<clustering>
<clus scale="   78.820">  1  9  2 -1</clus>
<clus scale="   79.945">  5  6 -1 -1</clus>
<clus scale="   87.468">  2  5  1 -1</clus>
<clus scale="   88.892">  7  8 -1 -1</clus>
<clus scale="   78.820">  1  5  2 -1</clus>
</clustering>
</event>
<event>
 9    1  0.8429841E-005  0.1252228E+03  0.7546771E-02  0.1238144E+00
         21   -1    0    0  501  502  0.00000000000E+00  0.00000000000E+00  0.12360368634E+03  0.12360368634E+03  0.00000000000E+00 0. -1.
          3   -1    0    0  502    0 -0.00000000000E+00 -0.00000000000E+00 -0.76768250203E+03  0.76768250203E+03  0.00000000000E+00 0. -1.
        -24    2    1    2    0    0 -0.42721043237E+02  0.88628101860E+02 -0.56210340405E+03  0.57626641071E+03  0.80266501676E+02 0.  0.
         23    2    1    2    0    0  0.93909196465E+02  0.24794320095E+02 -0.12519105554E+03  0.18329102335E+03  0.92136330320E+02 0.  0.
         13    1    3    3    0    0 -0.29030589111E+02  0.10286730237E+03 -0.45814058785E+03  0.47044367913E+03  0.00000000000E+00 0. -1.
        -14    1    3    3    0    0 -0.13690454126E+02 -0.14239200515E+02 -0.10396281620E+03  0.10582273158E+03  0.00000000000E+00 0.  1.
        -13    1    4    4    0    0  0.21464880187E+02  0.51430603199E+02 -0.63449211348E+02  0.84449099744E+02  0.00000000000E+00 0. -1.
         13    1    4    4    0    0  0.72444316278E+02 -0.26636283104E+02 -0.61741844193E+02  0.98841923610E+02  0.00000000000E+00 0.  1.
          4    1    1    2  501    0 -0.51188153227E+02 -0.11342242195E+03  0.43215643902E+02  0.13172875431E+03  0.00000000000E+00 0. -1.
<scales pt_clust_5="13000.00000" pt_clust_6="13000.00000" pt_clust_7="13000.00000" pt_clust_8="13000.00000" pt_clust_9="124.43823"></scales>
<clustering>
<clus scale="   80.267">  5  6 -1 -1</clus>
<clus scale="   92.136">  7  8 -1 -1</clus>
<clus scale="  124.438">  1  9  2 -1</clus>
<clus scale="  116.766">  2  5  1 -1</clus>
<clus scale="  124.438">  1  5  2 -1</clus>
</clustering>
</event>
<event>
 9    1  0.8429841E-005  0.1227412E+03  0.7546771E-02  0.1248639E+00
         21   -1    0    0  501  502  0.00000000000E+00  0.00000000000E+00  0.96398980791E+02  0.96398980791E+02  0.00000000000E+00 0. -1.
         -4   -1    0    0    0  501 -0.00000000000E+00 -0.00000000000E+00 -0.28502400679E+03  0.28502400679E+03  0.00000000000E+00 0.  1.
        -24    2    1    2    0    0  0.20214998998E+02  0.46868026821E+02 -0.30812840918E+01  0.10035618904E+03  0.86351677712E+02 0.  0.
         23    2    1    2    0    0  0.30761276920E+02  0.41671320309E+02 -0.12132662285E+03  0.16039519842E+03  0.91234396859E+02 0.  0.
         13    1    3    3    0    0  0.23841940077E+02  0.71266942356E+02  0.19796065860E+01  0.75175355148E+02  0.00000000000E+00 0. -1.
        -14    1    3    3    0    0 -0.36269410789E+01 -0.24398915535E+02 -0.50608906778E+01  0.25180833889E+02  0.00000000000E+00 0.  1.
        -13    1    4    4    0    0  0.67508792483E+01  0.60865013442E+02 -0.11303474182E+03  0.12855729108E+03  0.00000000000E+00 0.  1.
         13    1    4    4    0    0  0.24010397671E+02 -0.19193693133E+02 -0.82918810216E+01  0.31837907332E+02  0.00000000000E+00 0. -1.
         -3    1    1    2    0  502 -0.50976275918E+02 -0.88539347130E+02 -0.64217119063E+02  0.12067160013E+03  0.00000000000E+00 0.  1.
<scales pt_clust_5="13000.00000" pt_clust_6="13000.00000" pt_clust_7="13000.00000" pt_clust_8="13000.00000" pt_clust_9="82.10780"></scales>
<clustering>
<clus scale="   86.352">  5  6 -1 -1</clus>
<clus scale="   91.234">  7  8 -1 -1</clus>
<clus scale="  100.309">  2  5  1 -1</clus>
<clus scale="   82.108">  1  9  2 -1</clus>
<clus scale="   82.108">  1  5  2 -1</clus>
</clustering>
</event>
<event>
 9    1  0.8429841E-005  0.1167041E+03  0.7546771E-02  0.1256839E+00
         21   -1    0    0  501  502  0.00000000000E+00  0.00000000000E+00  0.66504871568E+03  0.66504871568E+03  0.00000000000E+00 0. -1.
         -2   -1    0    0    0  501 -0.00000000000E+00 -0.00000000000E+00 -0.53107493257E+02  0.53107493257E+02  0.00000000000E+00 0.  1.
         23    2    1    2    0    0 -0.28286117512E+02 -0.36041609858E+02  0.18593604040E+03  0.21071247112E+03  0.87911502549E+02 0.  0.
        -24    2    1    2    0    0  0.58860023852E+02 -0.60093334149E+02  0.37895071808E+03  0.39612970552E+03  0.78989781923E+02 0.  0.
         11    1    4    4    0    0  0.52648447850E+02 -0.79231397722E+02  0.30503850587E+03  0.31952771947E+03  0.00000000000E+00 0. -1.
        -12    1    4    4    0    0  0.62115760026E+01  0.19138063573E+02  0.73912212203E+02  0.76601986048E+02  0.00000000000E+00 0.  1.
        -11    1    3    3    0    0  0.31418003777E+02 -0.20138254648E+02  0.67520984064E+02  0.77147414413E+02  0.00000000000E+00 0. -1.
         11    1    3    3    0    0 -0.59704121289E+02 -0.15903355210E+02  0.11841505634E+03  0.13356505671E+03  0.00000000000E+00 0.  1.
         -1    1    1    2    0  502 -0.30573906340E+02  0.96134944008E+02  0.47054463939E+02  0.11131403229E+03  0.00000000000E+00 0.  1.
<scales pt_clust_5="13000.00000" pt_clust_6="13000.00000" pt_clust_7="13000.00000" pt_clust_8="13000.00000" pt_clust_9="85.90962"></scales>
<clustering>
<clus scale="   78.990">  5  6 -1 -1</clus>
<clus scale="   87.912">  7  8 -1 -1</clus>
<clus scale="   99.134">  2  7  1 -1</clus>
<clus scale="   85.910">  1  9  2 -1</clus>
<clus scale="   85.910">  1  5  2 -1</clus>
</clustering>
</event>
<event>
 9    1  0.8429841E-005  0.2430145E+03  0.7546771E-02  0.1118284E+00
         21   -1    0    0  501  502  0.00000000000E+00  0.00000000000E+00  0.12295060595E+03  0.12295060595E+03  0.00000000000E+00 0. -1.
          1   -1    0    0  502    0 -0.00000000000E+00 -0.00000000000E+00 -0.65902666348E+03  0.65902666348E+03  0.00000000000E+00 0. -1.
         23    2    1    2    0    0  0.23274732336E+03  0.58102937050E+02 -0.41456756579E+03  0.48714369651E+03  0.88856325666E+02 0.  0.
        -24    2    1    2    0    0 -0.19256915301E+03 -0.38889221487E+02 -0.63304468566E+02  0.22154537093E+03  0.80496244642E+02 0.  0.
         13    1    4    4    0    0 -0.87271850655E+02  0.50661979707E+01  0.67062878991E+01  0.87675632738E+02  0.00000000000E+00 0. -1.
        -14    1    4    4    0    0 -0.10529730236E+03 -0.43955419457E+02 -0.70010756465E+02  0.13386973820E+03  0.00000000000E+00 0.  1.
        -13    1    3    3    0    0  0.13435593993E+03 -0.81921916267E+01 -0.25446282391E+03  0.28787142851E+03  0.00000000000E+00 0.  1.
         13    1    3    3    0    0  0.98391383427E+02  0.66295128677E+02 -0.16010474189E+03  0.19927226800E+03  0.00000000000E+00 0. -1.
          2    1    1    2  501    0 -0.40178170348E+02 -0.19213715564E+02 -0.58204023173E+02  0.73288201996E+02  0.00000000000E+00 0. -1.
<scales pt_clust_5="13000.00000" pt_clust_6="13000.00000" pt_clust_7="13000.00000" pt_clust_8="13000.00000" pt_clust_9="44.53599"></scales>
<clustering>
<clus scale="   44.536">  1  9  2 -1</clus>
<clus scale="   80.496">  5  6 -1 -1</clus>
<clus scale="   88.856">  7  8 -1 -1</clus>
<clus scale="  240.084">  1  5  2 -1</clus>
<clus scale="   44.536">  1  5  2 -1</clus>
</clustering>
</event>
<event>
 9    1  0.8429841E-005  0.1073919E+03  0.7546771E-02  0.1267767E+00
         21   -1    0    0  501  502  0.00000000000E+00  0.00000000000E+00  0.37832610992E+03  0.37832610992E+03  0.00000000000E+00 0.  1.
          1   -1    0    0  502    0 -0.00000000000E+00 -0.00000000000E+00 -0.14253158679E+03  0.14253158679E+03  0.00000000000E+00 0. -1.
         23    2    1    2    0    0 -0.52585105319E+02 -0.22514369956E+02 -0.10800580451E+03  0.15259983146E+03  0.91374857572E+02 0.  0.
        -24    2    1    2    0    0  0.48833755349E+02 -0.34429112972E+00  0.32063713207E+03  0.33549928405E+03  0.85829743899E+02 0.  0.
         11    1    4    4    0    0 -0.16737919160E+02 -0.17565886640E+02  0.39952150002E+02  0.46742834756E+02  0.00000000000E+00 0. -1.
        -12    1    4    4    0    0  0.65571674509E+02  0.17221595510E+02  0.28068498207E+03  0.28875644929E+03  0.00000000000E+00 0.  1.
        -13    1    3    3    0    0  0.87537718724E+01 -0.20488502490E+02 -0.83658312348E+02  0.86574363879E+02  0.00000000000E+00 0.  1.
         13    1    3    3    0    0 -0.61338877191E+02 -0.20258674664E+01 -0.24347492165E+02  0.66025467577E+02  0.00000000000E+00 0. -1.
          2    1    1    2  501    0  0.37513499701E+01  0.22858661086E+02  0.23163195574E+02  0.32758581203E+02  0.00000000000E+00 0. -1.
<scales pt_clust_5="13000.00000" pt_clust_6="13000.00000" pt_clust_7="13000.00000" pt_clust_8="13000.00000" pt_clust_9="23.16443"></scales>
<clustering>
<clus scale="   23.164">  1  9  2 -1</clus>
<clus scale="   85.830">  5  6 -1 -1</clus>
<clus scale="   91.375">  7  8 -1 -1</clus>
<clus scale="  102.715">  1  5  2 -1</clus>
<clus scale="   23.164">  1  5  2 -1</clus>
</clustering>
</event>
<event>
 9    1  0.8429841E-005  0.1237813E+03  0.7546771E-02  0.1242137E+00
         -4   -1    0    0    0  501 -0.00000000000E+00  0.00000000000E+00  0.81034745601E+02  0.81034745601E+02  0.00000000000E+00 0.  1.
         21   -1    0    0  501  502  0.00000000000E+00 -0.00000000000E+00 -0.43637411519E+03  0.43637411519E+03  0.00000000000E+00 0. -1.
         23    2    1    2    0    0 -0.11395759717E+02  0.81971031655E+02 -0.40598410771E+02  0.13128238485E+03  0.93475773569E+02 0.  0.
        -24    2    1    2    0    0 -0.41269624979E+02 -0.78028481010E+02 -0.31212123382E+03  0.33324879246E+03  0.76442575065E+02 0.  0.
         13    1    4    4    0    0 -0.60458572580E+02 -0.62904263476E+02 -0.27736757495E+03  0.29076615518E+03  0.00000000000E+00 0. -1.
        -14    1    4    4    0    0  0.19188947601E+02 -0.15124217533E+02 -0.34753658864E+02  0.42482637283E+02  0.00000000000E+00 0.  1.
        -13    1    3    3    0    0 -0.45736782099E+02  0.13728372897E+02 -0.22416584581E+02  0.52752485472E+02  0.00000000000E+00 0. -1.
         13    1    3    3    0    0  0.34341022382E+02  0.68242658758E+02 -0.18181826190E+02  0.78529899377E+02  0.00000000000E+00 0.  1.
         -3    1    1    2    0  502  0.52665384695E+02 -0.39425506455E+01 -0.26197249941E+01  0.52877683476E+02  0.00000000000E+00 0.  1.
<scales pt_clust_5="13000.00000" pt_clust_6="13000.00000" pt_clust_7="13000.00000" pt_clust_8="13000.00000" pt_clust_9="52.81278"></scales>
<clustering>
<clus scale="   52.813">  2  9  1 -1</clus>
<clus scale="   76.443">  5  6 -1 -1</clus>
<clus scale="   93.476">  7  8 -1 -1</clus>
<clus scale="  111.479">  2  5  1 -1</clus>
<clus scale="   52.813">  2  5  1 -1</clus>
</clustering>
</event>
<event>
 9    1  0.8429841E-005  0.1050577E+03  0.7546771E-02  0.1274168E+00
         21   -1    0    0  501  502  0.00000000000E+00  0.00000000000E+00  0.27256553350E+02  0.27256553350E+02  0.00000000000E+00 0. -1.
         -4   -1    0    0    0  501 -0.00000000000E+00 -0.00000000000E+00 -0.70456470258E+03  0.70456470258E+03  0.00000000000E+00 0.  1.
         23    2    1    2    0    0 -0.39120838434E+02  0.16103328171E+02 -0.32056416769E+03  0.33575634516E+03  0.90449878546E+02 0.  0.
        -24    2    1    2    0    0  0.67336094837E+02  0.24316198335E+01 -0.34437726345E+03  0.36011243231E+03  0.80902421962E+02 0.  0.
         13    1    4    4    0    0 -0.10163838752E+02  0.21412802889E+02 -0.11002941929E+03  0.11255347554E+03  0.00000000000E+00 0. -1.
        -14    1    4    4    0    0  0.77499933589E+02 -0.18981183055E+02 -0.23434784415E+03  0.24755895677E+03  0.00000000000E+00 0.  1.
        -13    1    3    3    0    0 -0.54709024911E+02  0.31339863986E+01 -0.30580468059E+03  0.31067571831E+03  0.00000000000E+00 0.  1.
         13    1    3    3    0    0  0.15588186477E+02  0.12969341772E+02 -0.14759487104E+02  0.25080626850E+02  0.00000000000E+00 0. -1.
         -3    1    1    2    0  502 -0.28215256403E+02 -0.18534948004E+02 -0.12366718091E+02  0.35952478465E+02  0.00000000000E+00 0.  1.
<scales pt_clust_5="13000.00000" pt_clust_6="13000.00000" pt_clust_7="13000.00000" pt_clust_8="13000.00000" pt_clust_9="33.75863"></scales>
<clustering>
<clus scale="   33.759">  1  9  2 -1</clus>
<clus scale="   80.902">  5  6 -1 -1</clus>
<clus scale="   90.450">  7  8 -1 -1</clus>
<clus scale="   96.960">  1  5  2 -1</clus>
<clus scale="   33.759">  1  5  2 -1</clus>
</clustering>
</event>
<event>
 9    1  0.8429841E-005  0.9276053E+02  0.7546771E-02  0.1302594E+00
         21   -1    0    0  501  502  0.00000000000E+00  0.00000000000E+00  0.64383162535E+03  0.64383162535E+03  0.00000000000E+00 0.  1.
          1   -1    0    0  502    0 -0.00000000000E+00 -0.00000000000E+00 -0.60556551250E+02  0.60556551250E+02  0.00000000000E+00 0. -1.
         23    2    1    2    0    0 -0.89438572189E+01 -0.13513481466E+02 -0.10086964183E+02  0.92826924911E+02  0.90843185648E+02 0.  0.
        -24    2    1    2    0    0  0.50197464404E+02  0.49488042886E+01  0.28651905824E+03  0.30183907263E+03  0.80432449507E+02 0.  0.
         11    1    4    4    0    0 -0.20234761245E+02  0.87138636139E+01  0.43060190928E+02  0.48368967577E+02  0.00000000000E+00 0. -1.
        -12    1    4    4    0    0  0.70432225649E+02 -0.37650593253E+01  0.24345886731E+03  0.25347010505E+03  0.00000000000E+00 0.  1.
        -13    1    3    3    0    0 -0.47254657041E+02  0.38331580018E+00 -0.19299439591E+02  0.51045253565E+02  0.00000000000E+00 0. -1.
         13    1    3    3    0    0  0.38310799822E+02 -0.13896797267E+02  0.92124754076E+01  0.41781671345E+02  0.00000000000E+00 0.  1.
          2    1    1    2  501    0 -0.41253607185E+02  0.85646771778E+01  0.30684298005E+03  0.30972217907E+03  0.00000000000E+00 0. -1.
<scales pt_clust_5="13000.00000" pt_clust_6="13000.00000" pt_clust_7="13000.00000" pt_clust_8="13000.00000" pt_clust_9="42.13329"></scales>
<clustering>
<clus scale="   42.133">  1  9  2 -1</clus>
<clus scale="   80.432">  5  6 -1 -1</clus>
<clus scale="   82.592">  1  5  2 -1</clus>
<clus scale="   90.843">  7  8 -1 -1</clus>
<clus scale="   42.133">  1  5  2 -1</clus>
</clustering>
</event>
<event>
 9    1  0.8429841E-005  0.9208966E+02  0.7546771E-02  0.1305490E+00
         21   -1    0    0  501  502  0.00000000000E+00  0.00000000000E+00  0.57240795818E+02  0.57240795818E+02  0.00000000000E+00 0. -1.
          1   -1    0    0  502    0 -0.00000000000E+00 -0.00000000000E+00 -0.27869967067E+03  0.27869967067E+03  0.00000000000E+00 0. -1.
         23    2    1    2    0    0 -0.30553159724E+01 -0.14287866444E+02 -0.17825049726E+03  0.20109308457E+03  0.91933186646E+02 0.  0.
        -24    2    1    2    0    0  0.57149166385E+01 -0.16010902816E+02 -0.58842031107E+02  0.10064942852E+03  0.79868100985E+02 0.  0.
         11    1    4    4    0    0  0.20024740730E+02 -0.39535246439E+02 -0.11341952421E+02  0.45745664680E+02  0.00000000000E+00 0. -1.
        -12    1    4    4    0    0 -0.14309824092E+02  0.23524343623E+02 -0.47500078686E+02  0.54903763838E+02  0.00000000000E+00 0.  1.
        -11    1    3    3    0    0  0.17130247754E+02 -0.45087923931E+02 -0.13964805369E+03  0.14774283458E+03  0.00000000000E+00 0. -1.
         11    1    3    3    0    0 -0.20185563726E+02  0.30800057487E+02 -0.38602443572E+02  0.53350249989E+02  0.00000000000E+00 0.  1.
          2    1    1    2  501    0 -0.26596006661E+01  0.30298769260E+02  0.15633653513E+02  0.34197953397E+02  0.00000000000E+00 0. -1.
<scales pt_clust_5="13000.00000" pt_clust_6="13000.00000" pt_clust_7="13000.00000" pt_clust_8="13000.00000" pt_clust_9="30.41527"></scales>
<clustering>
<clus scale="   30.415">  1  9  2 -1</clus>
<clus scale="   79.868">  5  6 -1 -1</clus>
<clus scale="   80.048">  1  5  2 -1</clus>
<clus scale="   91.933">  7  8 -1 -1</clus>
<clus scale="   30.415">  1  5  2 -1</clus>
</clustering>
</event>
<event>
 9    1  0.8429841E-005  0.1250663E+03  0.7546771E-02  0.1239578E+00
         21   -1    0    0  501  502  0.00000000000E+00  0.00000000000E+00  0.81491005891E+02  0.81491005891E+02  0.00000000000E+00 0.  1.
         -2   -1    0    0    0  501 -0.00000000000E+00 -0.00000000000E+00 -0.66697714738E+03  0.66697714738E+03  0.00000000000E+00 0.  1.
        -24    2    1    2    0    0  0.52536896003E+01 -0.85898710512E+02 -0.51989547888E+03  0.53336784784E+03  0.82363598954E+02 0.  0.
         23    2    1    2    0    0 -0.59642725430E+02  0.34417410274E+02 -0.73108669815E+02  0.13983403193E+03  0.97297821445E+02 0.  0.
         13    1    3    3    0    0  0.39845378745E+02 -0.30354788456E+02 -0.16298289595E+03  0.17050657395E+03  0.00000000000E+00 0. -1.
        -14    1    3    3    0    0 -0.34591689145E+02 -0.55543922057E+02 -0.35691258293E+03  0.36286127389E+03  0.00000000000E+00 0.  1.
        -13    1    4    4    0    0  0.19682064985E+02  0.26783165295E+02 -0.24477426108E+01  0.33327362169E+02  0.00000000000E+00 0. -1.
         13    1    4    4    0    0 -0.79324790415E+02  0.76342449791E+01 -0.70660927205E+02  0.10650666976E+03  0.00000000000E+00 0.  1.
         -1    1    1    2    0  502  0.54389035830E+02  0.51481300238E+02  0.75180072098E+01  0.75266273490E+02  0.00000000000E+00 0.  1.
<scales pt_clust_5="13000.00000" pt_clust_6="13000.00000" pt_clust_7="13000.00000" pt_clust_8="13000.00000" pt_clust_9="74.88986"></scales>
<clustering>
<clus scale="   74.890">  1  9  2 -1</clus>
<clus scale="   82.364">  5  6 -1 -1</clus>
<clus scale="   97.298">  7  8 -1 -1</clus>
<clus scale="  113.835">  2  5  1 -1</clus>
<clus scale="   74.890">  1  5  2 -1</clus>
</clustering>
</event>
<event>
 9    1  0.8429841E-005  0.1420192E+03  0.7546771E-02  0.1235154E+00
         21   -1    0    0  501  502  0.00000000000E+00  0.00000000000E+00  0.82964593080E+02  0.82964593080E+02  0.00000000000E+00 0.  1.
          1   -1    0    0  502    0 -0.00000000000E+00 -0.00000000000E+00 -0.52789065409E+03  0.52789065409E+03  0.00000000000E+00 0. -1.
        -24    2    1    2    0    0 -0.25826911705E+02  0.14525651723E+02 -0.24661147699E+03  0.26087618109E+03  0.79756738596E+02 0.  0.
         23    2    1    2    0    0 -0.76937016353E+02 -0.70784764698E+02 -0.26651910114E+02  0.14214839867E+03  0.92552987708E+02 0.  0.
         11    1    3    3    0    0 -0.12519345399E+01  0.45421948813E+02 -0.12380199383E+03  0.13187742206E+03  0.00000000000E+00 0. -1.
        -12    1    3    3    0    0 -0.24574977165E+02 -0.30896297090E+02 -0.12280948316E+03  0.12899875902E+03  0.00000000000E+00 0.  1.
        -13    1    4    4    0    0  0.20804997482E+02 -0.41934230616E+01 -0.18376163233E+01  0.21302806175E+02  0.00000000000E+00 0. -1.
         13    1    4    4    0    0 -0.97742013835E+02 -0.66591341636E+02 -0.24814293791E+02  0.12084559250E+03  0.00000000000E+00 0.  1.
          2    1    1    2  501    0  0.10276392806E+03  0.56259112974E+02 -0.17166267391E+03  0.20783066741E+03  0.00000000000E+00 0. -1.
<scales pt_clust_5="13000.00000" pt_clust_6="13000.00000" pt_clust_7="13000.00000" pt_clust_8="13000.00000" pt_clust_9="107.71913"></scales>
<clustering>
<clus scale="   79.757">  5  6 -1 -1</clus>
<clus scale="   85.083">  2  5  1 -1</clus>
<clus scale="   92.553">  7  8 -1 -1</clus>
<clus scale="  107.719">  1  9  2 -1</clus>
<clus scale="  107.719">  1  5  2 -1</clus>
</clustering>
</event>
<event>
 9    1  0.8429841E-005  0.9598287E+02  0.7546771E-02  0.1295467E+00
         -4   -1    0    0    0  501 -0.00000000000E+00  0.00000000000E+00  0.74606206265E+03  0.74606206265E+03  0.00000000000E+00 0.  1.
         21   -1    0    0  501  502  0.00000000000E+00 -0.00000000000E+00 -0.45931772108E+02  0.45931772108E+02  0.00000000000E+00 0. -1.
        -24    2    1    2    0    0  0.35650053478E+02 -0.13880557653E+02  0.29390443011E+03  0.30709623683E+03  0.80403286260E+02 0.  0.
         23    2    1    2    0    0  0.17398391426E+02 -0.43983011386E+02  0.40780123439E+02  0.11111568716E+03  0.91904668824E+02 0.  0.
         11    1    3    3    0    0  0.53262584484E+02 -0.21414527719E+02  0.13044321480E+03  0.14251637516E+03  0.00000000000E+00 0. -1.
        -12    1    3    3    0    0 -0.17612531006E+02  0.75339700661E+01  0.16346121531E+03  0.16457986166E+03  0.00000000000E+00 0.  1.
        -11    1    4    4    0    0  0.16063927554E+02  0.18462246224E+02  0.42039081671E+02  0.48643485605E+02  0.00000000000E+00 0.  1.
         11    1    4    4    0    0  0.13344638719E+01 -0.62445257610E+02 -0.12589582321E+01  0.62472201559E+02  0.00000000000E+00 0. -1.
         -3    1    1    2    0  502 -0.53048444904E+02  0.57863569040E+02  0.36544573699E+03  0.37378191077E+03  0.00000000000E+00 0.  1.
<scales pt_clust_5="13000.00000" pt_clust_6="13000.00000" pt_clust_7="13000.00000" pt_clust_8="13000.00000" pt_clust_9="78.50055"></scales>
<clustering>
<clus scale="   78.501">  2  9  1 -1</clus>
<clus scale="   80.403">  5  6 -1 -1</clus>
<clus scale="   85.035">  1  5  2 -1</clus>
<clus scale="   91.905">  7  8 -1 -1</clus>
<clus scale="   78.501">  2  5  1 -1</clus>
</clustering>
</event>
<event>
 9    1  0.8429841E-005  0.1908417E+03  0.7546771E-02  0.1159386E+00
          1   -1    0    0  502    0 -0.00000000000E+00  0.00000000000E+00  0.20237953087E+03  0.20237953087E+03  0.00000000000E+00 0. -1.
         21   -1    0    0  501  502  0.00000000000E+00 -0.00000000000E+00 -0.29947684018E+03  0.29947684018E+03  0.00000000000E+00 0.  1.
         23    2    1    2    0    0  0.16855983435E+03  0.82615102860E+02 -0.95461529996E+01  0.21152418999E+03  0.97024125538E+02 0.  0.
        -24    2    1    2    0    0 -0.14566229187E+03  0.10213544067E+02 -0.98439155976E+02  0.19410326816E+03  0.81633274625E+02 0.  0.
         11    1    4    4    0    0 -0.72178587880E+02 -0.33587086972E+02 -0.32060936746E+02  0.85823916391E+02  0.00000000000E+00 0. -1.
        -12    1    4    4    0    0 -0.73483703992E+02  0.43800631039E+02 -0.66378219230E+02  0.10827935177E+03  0.00000000000E+00 0.  1.
        -13    1    3    3    0    0  0.93245266702E+02  0.95358059513E+02 -0.18374018801E+02  0.13463076856E+03  0.00000000000E+00 0. -1.
         13    1    3    3    0    0  0.75314567646E+02 -0.12742956653E+02  0.88278658015E+01  0.76893421426E+02  0.00000000000E+00 0.  1.
          2    1    1    2  501    0 -0.22897542476E+02 -0.92828646927E+02  0.10887999667E+02  0.96228912903E+02  0.00000000000E+00 0. -1.
<scales pt_clust_5="13000.00000" pt_clust_6="13000.00000" pt_clust_7="13000.00000" pt_clust_8="13000.00000" pt_clust_9="95.61101"></scales>
<clustering>
<clus scale="   81.633">  5  6 -1 -1</clus>
<clus scale="   95.611">  2  9  1 -1</clus>
<clus scale="   97.024">  7  8 -1 -1</clus>
<clus scale="  183.496">  2  5  1 -1</clus>
<clus scale="   95.611">  2  5  1 -1</clus>
</clustering>
</event>
<event>
 9    1  0.8429841E-005  0.1154278E+03  0.7546771E-02  0.1261721E+00
         21   -1    0    0  501  502  0.00000000000E+00  0.00000000000E+00  0.48945092125E+02  0.48945092125E+02  0.00000000000E+00 0. -1.
         -4   -1    0    0    0  501 -0.00000000000E+00 -0.00000000000E+00 -0.48359793075E+03  0.48359793075E+03  0.00000000000E+00 0.  1.
        -24    2    1    2    0    0 -0.25644789376E+02  0.36922722961E+02 -0.33629960148E+03  0.34890846405E+03  0.81355710531E+02 0.  0.
         23    2    1    2    0    0  0.44096055538E+02 -0.25573542887E+02 -0.45097952838E+02  0.12614213830E+03  0.10620520465E+03 0.  0.
         11    1    3    3    0    0 -0.46369993255E+02  0.49983710714E+02 -0.25872005320E+03  0.26755301071E+03  0.00000000000E+00 0. -1.
        -12    1    3    3    0    0  0.20725203879E+02 -0.13060987753E+02 -0.77579548282E+02  0.81355453342E+02  0.00000000000E+00 0.  1.
        -13    1    4    4    0    0  0.70456642980E+02 -0.40423219025E+01 -0.56333589370E+02  0.90299236972E+02  0.00000000000E+00 0.  1.
         13    1    4    4    0    0 -0.26360587442E+02 -0.21531220984E+02  0.11235636532E+02  0.35842901328E+02  0.00000000000E+00 0. -1.
         -3    1    1    2    0  502 -0.18451266162E+02 -0.11349180074E+02 -0.53255284313E+02  0.57492420532E+02  0.00000000000E+00 0.  1.
<scales pt_clust_5="13000.00000" pt_clust_6="13000.00000" pt_clust_7="13000.00000" pt_clust_8="13000.00000" pt_clust_9="21.66226"></scales>
<clustering>
<clus scale="   21.662">  1  9  2 -1</clus>
<clus scale="   81.356">  5  6 -1 -1</clus>
<clus scale="   93.074">  2  5  1 -1</clus>
<clus scale="  106.205">  7  8 -1 -1</clus>
<clus scale="   21.662">  1  5  2 -1</clus>
</clustering>
</event>
<event>
 9    1  0.8429841E-005  0.3186047E+03  0.7546771E-02  0.1107670E+00
         21   -1    0    0  501  502  0.00000000000E+00  0.00000000000E+00  0.23695363345E+03  0.23695363345E+03  0.00000000000E+00 0.  1.
          3   -1    0    0  502    0 -0.00000000000E+00 -0.00000000000E+00 -0.66881615382E+03  0.66881615382E+03  0.00000000000E+00 0. -1.
        -24    2    1    2    0    0  0.99608412663E+02  0.73412522450E+02 -0.82093470631E+02  0.16178249312E+03  0.64210613101E+02 0.  0.
         23    2    1    2    0    0 -0.23418620245E+03  0.20019587394E+03 -0.75692890086E+02  0.33399890729E+03  0.10442361371E+03 0.  0.
         13    1    3    3    0    0  0.10205882977E+03  0.49601279553E+02 -0.56578097747E+02  0.12679658045E+03  0.00000000000E+00 0. -1.
        -14    1    3    3    0    0 -0.24504171117E+01  0.23811242898E+02 -0.25515372884E+02  0.34985912676E+02  0.00000000000E+00 0.  1.
        -13    1    4    4    0    0 -0.81365474772E+02  0.13686356289E+03 -0.26482635524E+02  0.16141036310E+03  0.00000000000E+00 0. -1.
         13    1    4    4    0    0 -0.15282072768E+03  0.63332311045E+02 -0.49210254562E+02  0.17258854418E+03  0.00000000000E+00 0.  1.
          4    1    1    2  501    0  0.13457778978E+03 -0.27360839639E+03 -0.27407615965E+03  0.40998838687E+03  0.00000000000E+00 0. -1.
<scales pt_clust_5="13000.00000" pt_clust_6="13000.00000" pt_clust_7="13000.00000" pt_clust_8="13000.00000" pt_clust_9="301.00622"></scales>
<clustering>
<clus scale="   64.211">  5  6 -1 -1</clus>
<clus scale="  104.424">  7  8 -1 -1</clus>
<clus scale="  139.407">  2  5  1 -1</clus>
<clus scale="  301.006">  1  9  2 -1</clus>
<clus scale="  301.006">  1  5  2 -1</clus>
</clustering>
</event>
<event>
 9    1  0.8429841E-005  0.8234726E+02  0.7546771E-02  0.1323889E+00
         21   -1    0    0  501  502  0.00000000000E+00  0.00000000000E+00  0.31097151635E+02  0.31097151635E+02  0.00000000000E+00 0. -1.
         -2   -1    0    0    0  501 -0.00000000000E+00 -0.00000000000E+00 -0.48217639148E+03  0.48217639148E+03  0.00000000000E+00 0.  1.
        -24    2    1    2    0    0  0.14174715259E+01  0.14184417368E+01 -0.33219421111E+03  0.34171967837E+03  0.80095714564E+02 0.  0.
         23    2    1    2    0    0 -0.30492329115E+02  0.96395083515E+01 -0.65530147257E+02  0.10979328685E+03  0.82083271019E+02 0.  0.
         11    1    3    3    0    0 -0.11446843059E+02 -0.23886606622E+02 -0.38940725049E+02  0.47095437776E+02  0.00000000000E+00 0. -1.
        -12    1    3    3    0    0  0.12864314585E+02  0.25305048359E+02 -0.29325348606E+03  0.29462424060E+03  0.00000000000E+00 0.  1.
        -13    1    4    4    0    0 -0.57439874672E+02  0.11893237529E+02 -0.56066966833E+02  0.81143656999E+02  0.00000000000E+00 0. -1.
         13    1    4    4    0    0  0.26947545557E+02 -0.22537291775E+01 -0.94631804241E+01  0.28649629849E+02  0.00000000000E+00 0.  1.
         -1    1    1    2    0  502  0.29074857589E+02 -0.11057950088E+02 -0.53354881480E+02  0.61760577894E+02  0.00000000000E+00 0.  1.
<scales pt_clust_5="13000.00000" pt_clust_6="13000.00000" pt_clust_7="13000.00000" pt_clust_8="13000.00000" pt_clust_9="31.10668"></scales>
<clustering>
<clus scale="   31.107">  1  9  2 -1</clus>
<clus scale="   80.096">  5  6 -1 -1</clus>
<clus scale="   80.366">  2  5  1 -1</clus>
<clus scale="   82.083">  7  8 -1 -1</clus>
<clus scale="   31.107">  1  5  2 -1</clus>
</clustering>
</event>
<event>
 9    1  0.8429841E-005  0.1240729E+03  0.7546771E-02  0.1239045E+00
         21   -1    0    0  501  502  0.00000000000E+00  0.00000000000E+00  0.52094506000E+03  0.52094506000E+03  0.00000000000E+00 0.  1.
          3   -1    0    0  502    0 -0.00000000000E+00 -0.00000000000E+00 -0.27748150556E+03  0.27748150556E+03  0.00000000000E+00 0. -1.
        -24    2    1    2    0    0  0.54560364720E+02 -0.67724448851E+02 -0.22161095367E+03  0.25127862641E+03  0.80412057150E+02 0.  0.
         23    2    1    2    0    0  0.45112873713E+02  0.11713237785E+03  0.37010964553E+03  0.40088029737E+03  0.89267562903E+02 0.  0.
         13    1    3    3    0    0 -0.63037501458E+01 -0.53743607460E+02 -0.80859691184E+02  0.97295438059E+02  0.00000000000E+00 0. -1.
        -14    1    3    3    0    0  0.60864114865E+02 -0.13980841391E+02 -0.14075126248E+03  0.15398318835E+03  0.00000000000E+00 0.  1.
        -11    1    4    4    0    0  0.63253262011E+02  0.44740171316E+02  0.21996208804E+03  0.23320801500E+03  0.00000000000E+00 0.  1.
         11    1    4    4    0    0 -0.18140388299E+02  0.72392206529E+02  0.15014755749E+03  0.16767228236E+03  0.00000000000E+00 0. -1.
          4    1    1    2  501    0 -0.99673238432E+02 -0.49407928994E+02  0.94964862580E+02  0.14626764178E+03  0.00000000000E+00 0. -1.
<scales pt_clust_5="13000.00000" pt_clust_6="13000.00000" pt_clust_7="13000.00000" pt_clust_8="13000.00000" pt_clust_9="111.24701"></scales>
<clustering>
<clus scale="   80.412">  5  6 -1 -1</clus>
<clus scale="   89.268">  7  8 -1 -1</clus>
<clus scale="  111.247">  1  9  2 -1</clus>
<clus scale="  117.862">  2  5  1 -1</clus>
<clus scale="  111.247">  1  5  2 -1</clus>
</clustering>
</event>
<event>
 9    1  0.8429841E-005  0.1653809E+03  0.7546771E-02  0.1184552E+00
          3   -1    0    0  502    0 -0.00000000000E+00  0.00000000000E+00  0.10645275035E+03  0.10645275035E+03  0.00000000000E+00 0. -1.
         21   -1    0    0  501  502  0.00000000000E+00 -0.00000000000E+00 -0.59885111753E+03  0.59885111753E+03  0.00000000000E+00 0.  1.
         23    2    1    2    0    0  0.26380075381E+02 -0.17576174428E+03 -0.16410602317E+03  0.25869272652E+03  0.91668101237E+02 0.  0.
        -24    2    1    2    0    0 -0.51433558341E+02  0.66992893292E+02 -0.31324460545E+03  0.33398443764E+03  0.79309287395E+02 0.  0.
         13    1    4    4    0    0 -0.23237187217E+02  0.21527875209E+02 -0.23758717456E+02  0.39596627835E+02  0.00000000000E+00 0. -1.
        -14    1    4    4    0    0 -0.28196371124E+02  0.45465018083E+02 -0.28948588799E+03  0.29438780980E+03  0.00000000000E+00 0.  1.
        -11    1    3    3    0    0 -0.27002701332E+02 -0.74290678314E+02 -0.36264825086E+02  0.86967742883E+02  0.00000000000E+00 0. -1.
         11    1    3    3    0    0  0.53382776713E+02 -0.10147106597E+03 -0.12784119808E+03  0.17172498364E+03  0.00000000000E+00 0.  1.
          4    1    1    2  501    0  0.25053482960E+02  0.10876885099E+03 -0.15047738567E+02  0.11262670372E+03  0.00000000000E+00 0. -1.
<scales pt_clust_5="13000.00000" pt_clust_6="13000.00000" pt_clust_7="13000.00000" pt_clust_8="13000.00000" pt_clust_9="111.61699"></scales>
<clustering>
<clus scale="   79.309">  5  6 -1 -1</clus>
<clus scale="   91.668">  7  8 -1 -1</clus>
<clus scale="  111.617">  2  9  1 -1</clus>
<clus scale="  158.864">  2  5  1 -1</clus>
<clus scale="  111.617">  2  5  1 -1</clus>
</clustering>
</event>
<event>
 9    1  0.8429841E-005  0.1208910E+03  0.7546771E-02  0.1244850E+00
         21   -1    0    0  501  502  0.00000000000E+00  0.00000000000E+00  0.39278416558E+02  0.39278416558E+02  0.00000000000E+00 0.  1.
          1   -1    0    0  502    0 -0.00000000000E+00 -0.00000000000E+00 -0.92315343206E+03  0.92315343206E+03  0.00000000000E+00 0. -1.
        -24    2    1    2    0    0 -0.29826185408E+02 -0.75510250882E+02 -0.62250558754E+03  0.63274200638E+03  0.79106515474E+02 0.  0.
         23    2    1    2    0    0  0.89253624810E+02  0.46158527772E+02 -0.17610463383E+03  0.22169341025E+03  0.89656605258E+02 0.  0.
         13    1    3    3    0    0 -0.49903011613E+02 -0.31808820913E+02 -0.23830179952E+03  0.24553993425E+03  0.00000000000E+00 0. -1.
        -14    1    3    3    0    0  0.20076826205E+02 -0.43701429969E+02 -0.38420378802E+03  0.38720207213E+03  0.00000000000E+00 0.  1.
        -11    1    4    4    0    0  0.77213570588E+02 -0.83074546480E+01 -0.11695611331E+03  0.14039117396E+03  0.00000000000E+00 0.  1.
         11    1    4    4    0    0  0.12040054222E+02  0.54465982420E+02 -0.59148520517E+02  0.81302236292E+02  0.00000000000E+00 0. -1.
          2    1    1    2  501    0 -0.59427439401E+02  0.29351723110E+02 -0.85264794134E+02  0.10799643199E+03  0.00000000000E+00 0. -1.
<scales pt_clust_5="13000.00000" pt_clust_6="13000.00000" pt_clust_7="13000.00000" pt_clust_8="13000.00000" pt_clust_9="66.28080"></scales>
<clustering>
<clus scale="   66.281">  1  9  2 -1</clus>
<clus scale="   79.107">  5  6 -1 -1</clus>
<clus scale="   89.657">  7  8 -1 -1</clus>
<clus scale="  113.288">  2  5  1 -1</clus>
<clus scale="   66.281">  1  5  2 -1</clus>
</clustering>
</event>
<event>
 9    1  0.8429841E-005  0.1039781E+03  0.7546771E-02  0.1277276E+00
         21   -1    0    0  501  502  0.00000000000E+00  0.00000000000E+00  0.14123478331E+03  0.14123478331E+03  0.00000000000E+00 0. -1.
         -2   -1    0    0    0  501 -0.00000000000E+00 -0.00000000000E+00 -0.41801266166E+03  0.41801266166E+03  0.00000000000E+00 0.  1.
        -24    2    1    2    0    0 -0.26453133560E+02  0.39561684080E+02 -0.33243074707E+03  0.34549131341E+03  0.81173585147E+02 0.  0.
         23    2    1    2    0    0  0.67239716063E+02 -0.10897527905E+02 -0.26423306088E+02  0.11772656511E+03  0.92311524179E+02 0.  0.
         13    1    3    3    0    0 -0.30750269464E+02  0.49981358995E+01 -0.38600730645E+02  0.49604201847E+02  0.00000000000E+00 0. -1.
        -14    1    3    3    0    0  0.42971359037E+01  0.34563548180E+02 -0.29383001642E+03  0.29588711157E+03  0.00000000000E+00 0.  1.
        -13    1    4    4    0    0 -0.74268665272E+01  0.27405687419E+02  0.35523455385E+01  0.28615541375E+02  0.00000000000E+00 0.  1.
         13    1    4    4    0    0  0.74666582590E+02 -0.38303215325E+02 -0.29975651626E+02  0.89111023731E+02  0.00000000000E+00 0. -1.
         -1    1    1    2    0  502 -0.40786582502E+02 -0.28664156174E+02  0.82076174805E+02  0.96029566447E+02  0.00000000000E+00 0.  1.
<scales pt_clust_5="13000.00000" pt_clust_6="13000.00000" pt_clust_7="13000.00000" pt_clust_8="13000.00000" pt_clust_9="49.85157"></scales>
<clustering>
<clus scale="   49.852">  1  9  2 -1</clus>
<clus scale="   81.174">  5  6 -1 -1</clus>
<clus scale="   92.312">  7  8 -1 -1</clus>
<clus scale="   94.229">  2  5  1 -1</clus>
<clus scale="   49.852">  1  5  2 -1</clus>
</clustering>
</event>
<event>
 9    1  0.8429841E-005  0.1542461E+03  0.7546771E-02  0.1196532E+00
         21   -1    0    0  501  502  0.00000000000E+00  0.00000000000E+00  0.52261688095E+02  0.52261688095E+02  0.00000000000E+00 0.  1.
         -2   -1    0    0    0  501 -0.00000000000E+00 -0.00000000000E+00 -0.65108317812E+03  0.65108317812E+03  0.00000000000E+00 0.  1.
         23    2    1    2    0    0  0.13230527912E+03  0.33262192320E+02 -0.29594532302E+03  0.33785909314E+03  0.89185605763E+02 0.  0.
        -24    2    1    2    0    0 -0.94582448779E+02 -0.75767365602E+02 -0.23584443689E+03  0.27760543098E+03  0.82192722270E+02 0.  0.
         13    1    4    4    0    0 -0.99419166842E+00 -0.47309072591E+02 -0.60340501081E+02  0.76681893803E+02  0.00000000000E+00 0. -1.
        -14    1    4    4    0    0 -0.93588257111E+02 -0.28458293012E+02 -0.17550393581E+03  0.20092353718E+03  0.00000000000E+00 0.  1.
        -13    1    3    3    0    0  0.11605670869E+03  0.54652321445E+02 -0.19508268384E+03  0.23348081165E+03  0.00000000000E+00 0.  1.
         13    1    3    3    0    0  0.16248570431E+02 -0.21390129125E+02 -0.10086263918E+03  0.10437828149E+03  0.00000000000E+00 0. -1.
         -1    1    1    2    0  502 -0.37722830340E+02  0.42505173282E+02 -0.67031730119E+02  0.87880342098E+02  0.00000000000E+00 0.  1.
<scales pt_clust_5="13000.00000" pt_clust_6="13000.00000" pt_clust_7="13000.00000" pt_clust_8="13000.00000" pt_clust_9="56.83046"></scales>
<clustering>
<clus scale="   56.830">  1  9  2 -1</clus>
<clus scale="   82.193">  5  6 -1 -1</clus>
<clus scale="   89.186">  7  8 -1 -1</clus>
<clus scale="  150.311">  1  5  2 -1</clus>
<clus scale="   56.830">  1  5  2 -1</clus>
</clustering>
</event>
<event>
 9    1  0.8429841E-005  0.3012941E+03  0.7546771E-02  0.1085151E+00
         21   -1    0    0  501  502  0.00000000000E+00  0.00000000000E+00  0.24105748423E+03  0.24105748423E+03  0.00000000000E+00 0.  1.
          1   -1    0    0  502    0 -0.00000000000E+00 -0.00000000000E+00 -0.60793920434E+03  0.60793920434E+03  0.00000000000E+00 0. -1.
        -24    2    1    2    0    0 -0.27624144126E+03 -0.85094264102E+02 -0.43196823703E+03  0.52571469365E+03  0.78924100698E+02 0.  0.
         23    2    1    2    0    0  0.25806207760E+03  0.98079556722E+02  0.49106532216E+02  0.29581443225E+03  0.94228931226E+02 0.  0.
         13    1    3    3    0    0 -0.88486843877E+02 -0.31536733616E+02 -0.21026689487E+03  0.23029688271E+03  0.00000000000E+00 0. -1.
        -14    1    3    3    0    0 -0.18775459738E+03 -0.53557530486E+02 -0.22170134216E+03  0.29541781095E+03  0.00000000000E+00 0.  1.
        -13    1    4    4    0    0  0.67109908525E+02 -0.16303072357E+02  0.91115908002E+01  0.69660254646E+02  0.00000000000E+00 0.  1.
         13    1    4    4    0    0  0.19095216907E+03  0.11438262908E+03  0.39994941416E+02  0.22615417760E+03  0.00000000000E+00 0. -1.
          2    1    1    2  501    0  0.18179363660E+02 -0.12985292620E+02  0.15979984708E+02  0.27467562665E+02  0.00000000000E+00 0. -1.
<scales pt_clust_5="13000.00000" pt_clust_6="13000.00000" pt_clust_7="13000.00000" pt_clust_8="13000.00000" pt_clust_9="22.34070"></scales>
<clustering>
<clus scale="   22.341">  1  9  2 -1</clus>
<clus scale="   78.924">  5  6 -1 -1</clus>
<clus scale="   94.229">  7  8 -1 -1</clus>
<clus scale="  296.864">  2  5  1 -1</clus>
<clus scale="   22.341">  1  5  2 -1</clus>
</clustering>
</event>
<event>
 9    1  0.8429841E-005  0.1175070E+03  0.7546771E-02  0.1251540E+00
          1   -1    0    0  502    0 -0.00000000000E+00  0.00000000000E+00  0.18850490868E+03  0.18850490868E+03  0.00000000000E+00 0. -1.
         21   -1    0    0  501  502  0.00000000000E+00 -0.00000000000E+00 -0.96959382343E+02  0.96959382343E+02  0.00000000000E+00 0.  1.
        -24    2    1    2    0    0  0.14543738682E+02  0.67864015030E+02  0.60595606635E+02  0.12167972427E+03  0.79480078533E+02 0.  0.
         23    2    1    2    0    0  0.10018465227E+02 -0.82210159363E+02  0.30068347432E+01  0.12391064401E+03  0.92119089744E+02 0.  0.
         13    1    3    3    0    0  0.20859173994E+02  0.60473739481E+02  0.78525601629E+02  0.10128399882E+03  0.00000000000E+00 0. -1.
        -14    1    3    3    0    0 -0.63154353126E+01  0.73902755493E+01 -0.17929994994E+02  0.20395725444E+02  0.00000000000E+00 0.  1.
        -11    1    4    4    0    0  0.31506425300E+02 -0.56169858203E+02 -0.34816400807E+02  0.73211266694E+02  0.00000000000E+00 0.  1.
         11    1    4    4    0    0 -0.21487960073E+02 -0.26040301160E+02  0.37823235550E+02  0.50699377315E+02  0.00000000000E+00 0. -1.
          2    1    1    2  501    0 -0.24562203909E+02  0.14346144334E+02  0.27943084956E+02  0.39873922743E+02  0.00000000000E+00 0. -1.
<scales pt_clust_5="13000.00000" pt_clust_6="13000.00000" pt_clust_7="13000.00000" pt_clust_8="13000.00000" pt_clust_9="28.44494"></scales>
<clustering>
<clus scale="   28.445">  2  9  1 -1</clus>
<clus scale="   79.480">  5  6 -1 -1</clus>
<clus scale="   92.119">  7  8 -1 -1</clus>
<clus scale="  107.884">  1  5  2 -1</clus>
<clus scale="   28.445">  2  5  1 -1</clus>
</clustering>
</event>
<event>
 9    1  0.8429841E-005  0.9220834E+02  0.7546771E-02  0.1305369E+00
         21   -1    0    0  501  502  0.00000000000E+00  0.00000000000E+00  0.14974117641E+03  0.14974117641E+03  0.00000000000E+00 0.  1.
          1   -1    0    0  502    0 -0.00000000000E+00 -0.00000000000E+00 -0.14778365545E+03  0.14778365545E+03  0.00000000000E+00 0. -1.
         23    2    1    2    0    0 -0.89904726426E+01  0.46739611302E+01 -0.10612421818E+03  0.14083234350E+03  0.92025674569E+02 0.  0.
        -24    2    1    2    0    0 -0.15643685763E+02  0.13332340837E+02  0.85879326878E+02  0.11895635473E+03  0.79704951718E+02 0.  0.
         11    1    4    4    0    0 -0.21234233242E+02 -0.28708247077E+02  0.20940113839E+02  0.41394981328E+02  0.00000000000E+00 0. -1.
        -12    1    4    4    0    0  0.55905474787E+01  0.42040587914E+02  0.64939213039E+02  0.77561373398E+02  0.00000000000E+00 0.  1.
        -11    1    3    3    0    0 -0.57295811237E+01  0.48053712118E+02 -0.64387030504E+02  0.80546117506E+02  0.00000000000E+00 0.  1.
         11    1    3    3    0    0 -0.32608915189E+01 -0.43379750988E+02 -0.41737187676E+02  0.60286225992E+02  0.00000000000E+00 0. -1.
          2    1    1    2  501    0  0.24634158406E+02 -0.18006301968E+02  0.22202412261E+02  0.37736133627E+02  0.00000000000E+00 0. -1.
<scales pt_clust_5="13000.00000" pt_clust_6="13000.00000" pt_clust_7="13000.00000" pt_clust_8="13000.00000" pt_clust_9="30.51342"></scales>
<clustering>
<clus scale="   30.513">  1  9  2 -1</clus>
<clus scale="   79.705">  5  6 -1 -1</clus>
<clus scale="   79.916">  1  5  2 -1</clus>
<clus scale="   92.026">  7  8 -1 -1</clus>
<clus scale="   30.513">  1  5  2 -1</clus>
</clustering>
</event>
<event>
 9    1  0.8429841E-005  0.1433904E+03  0.7546771E-02  0.1228444E+00
          1   -1    0    0  502    0 -0.00000000000E+00  0.00000000000E+00  0.20535369022E+03  0.20535369022E+03  0.00000000000E+00 0. -1.
         21   -1    0    0  501  502  0.00000000000E+00 -0.00000000000E+00 -0.19947738070E+03  0.19947738070E+03  0.00000000000E+00 0. -1.
        -24    2    1    2    0    0  0.51096241524E+02  0.50656700531E+00  0.87181093124E+02  0.12887532015E+03  0.79982639609E+02 0.  0.
         23    2    1    2    0    0  0.45706694981E+02  0.77027180664E+02 -0.22562084156E+00  0.12777977033E+03  0.91133584772E+02 0.  0.
         13    1    3    3    0    0  0.65666561188E+02 -0.20114921601E+02  0.71559436340E+02  0.99183971783E+02  0.00000000000E+00 0. -1.
        -14    1    3    3    0    0 -0.14570319664E+02  0.20621488607E+02  0.15621656783E+02  0.29691348372E+02  0.00000000000E+00 0.  1.
        -11    1    4    4    0    0 -0.11992392819E+02  0.41304099150E+02 -0.31247870169E+02  0.53162726437E+02  0.00000000000E+00 0. -1.
         11    1    4    4    0    0  0.57699087800E+02  0.35723081513E+02  0.31022249328E+02  0.74617043891E+02  0.00000000000E+00 0.  1.
          2    1    1    2  501    0 -0.96802936504E+02 -0.77533747669E+02 -0.81079162760E+02  0.14817598043E+03  0.00000000000E+00 0. -1.
<scales pt_clust_5="13000.00000" pt_clust_6="13000.00000" pt_clust_7="13000.00000" pt_clust_8="13000.00000" pt_clust_9="110.70445"></scales>
<clustering>
<clus scale="   79.983">  5  6 -1 -1</clus>
<clus scale="   91.134">  7  8 -1 -1</clus>
<clus scale="   94.912">  1  5  2 -1</clus>
<clus scale="  110.704">  2  9  1 -1</clus>
<clus scale="  110.704">  2  5  1 -1</clus>
</clustering>
</event>
<event>
 9    1  0.8429841E-005  0.9861045E+02  0.7546771E-02  0.1289211E+00
         21   -1    0    0  501  502  0.00000000000E+00  0.00000000000E+00  0.48703720143E+03  0.48703720143E+03  0.00000000000E+00 0.  1.
          3   -1    0    0  502    0 -0.00000000000E+00 -0.00000000000E+00 -0.72087121763E+02  0.72087121763E+02  0.00000000000E+00 0. -1.
         23    2    1    2    0    0  0.71124263587E+01  0.23225890839E+02  0.19735485665E+02  0.97772388663E+02  0.92627868250E+02 0.  0.
        -24    2    1    2    0    0  0.16838601152E+02 -0.97075443848E+02  0.34743837390E+03  0.37019286802E+03  0.81376628035E+02 0.  0.
         13    1    4    4    0    0  0.13884167425E+02 -0.63917530054E+02  0.93648152972E+02  0.11422870615E+03  0.00000000000E+00 0. -1.
        -14    1    4    4    0    0  0.29544337269E+01 -0.33157913794E+02  0.25379022093E+03  0.25596416188E+03  0.00000000000E+00 0.  1.
        -11    1    3    3    0    0  0.47564798420E+02  0.21859859812E+02 -0.86800826817E+00  0.52354722405E+02  0.00000000000E+00 0. -1.
         11    1    3    3    0    0 -0.40452372061E+02  0.13660310269E+01  0.20603493933E+02  0.45417666259E+02  0.00000000000E+00 0.  1.
          4    1    1    2  501    0 -0.23951027511E+02  0.73849553010E+02  0.47776220098E+02  0.91159066501E+02  0.00000000000E+00 0. -1.
<scales pt_clust_5="13000.00000" pt_clust_6="13000.00000" pt_clust_7="13000.00000" pt_clust_8="13000.00000" pt_clust_9="77.63642"></scales>
<clustering>
<clus scale="   77.636">  1  9  2 -1</clus>
<clus scale="   81.377">  5  6 -1 -1</clus>
<clus scale="   88.126">  1  5  2 -1</clus>
<clus scale="   92.628">  7  8 -1 -1</clus>
<clus scale="   77.636">  1  5  2 -1</clus>
</clustering>
</event>
<event>
 9    1  0.8429841E-005  0.3303719E+03  0.7546771E-02  0.1071363E+00
          3   -1    0    0  502    0 -0.00000000000E+00  0.00000000000E+00  0.23229099722E+03  0.23229099722E+03  0.00000000000E+00 0. -1.
         21   -1    0    0  501  502  0.00000000000E+00 -0.00000000000E+00 -0.99954077070E+03  0.99954077070E+03  0.00000000000E+00 0. -1.
         23    2    1    2    0    0  0.22968764654E+03 -0.22293474672E+03 -0.64191223622E+02  0.33950358534E+03  0.93197934542E+02 0.  0.
        -24    2    1    2    0    0 -0.18984466452E+03  0.24110434282E+03 -0.75824510993E+03  0.82187852785E+03  0.79852157360E+02 0.  0.
         13    1    4    4    0    0 -0.39465321013E+02  0.37364736146E+02 -0.22631671922E+03  0.23275070884E+03  0.00000000000E+00 0. -1.
        -14    1    4    4    0    0 -0.15037934351E+03  0.20373960667E+03 -0.53192839072E+03  0.58912781901E+03  0.00000000000E+00 0.  1.
        -13    1    3    3    0    0  0.12458116101E+03 -0.17837953602E+03 -0.58003924053E+02  0.22517588626E+03  0.00000000000E+00 0. -1.
         13    1    3    3    0    0  0.10510648553E+03 -0.44555210699E+02 -0.61872995691E+01  0.11432769908E+03  0.00000000000E+00 0.  1.
          4    1    1    2  501    0 -0.39842982014E+02 -0.18169596100E+02  0.55186560078E+02  0.70449654729E+02  0.00000000000E+00 0. -1.
<scales pt_clust_5="13000.00000" pt_clust_6="13000.00000" pt_clust_7="13000.00000" pt_clust_8="13000.00000" pt_clust_9="43.79040"></scales>
<clustering>
<clus scale="   43.790">  2  9  1 -1</clus>
<clus scale="   79.852">  5  6 -1 -1</clus>
<clus scale="   93.198">  7  8 -1 -1</clus>
<clus scale="  326.858">  2  5  1 -1</clus>
<clus scale="   43.790">  2  5  1 -1</clus>
</clustering>
</event>
<event>
 9    1  0.8429841E-005  0.1061088E+03  0.7546771E-02  0.1272243E+00
         21   -1    0    0  501  502  0.00000000000E+00  0.00000000000E+00  0.44527293300E+03  0.44527293300E+03  0.00000000000E+00 0. -1.
          1   -1    0    0  502    0 -0.00000000000E+00 -0.00000000000E+00 -0.99604065278E+02  0.99604065278E+02  0.00000000000E+00 0. -1.
        -24    2    1    2    0    0 -0.38123118199E+01 -0.68435021317E+02 -0.47654170943E+02  0.11567497343E+03  0.80074300533E+02 0.  0.
         23    2    1    2    0    0  0.31522282071E+01 -0.30040524158E+01  0.14508202864E+03  0.17088521157E+03  0.90188689001E+02 0.  0.
         13    1    3    3    0    0 -0.11027241780E+02 -0.72873768170E+02 -0.63774328436E+02  0.97464614687E+02  0.00000000000E+00 0. -1.
        -14    1    3    3    0    0  0.72149299605E+01  0.44387468538E+01  0.16120157493E+02  0.18210358743E+02  0.00000000000E+00 0.  1.
        -13    1    4    4    0    0 -0.59953580524E+01 -0.38459575981E+02  0.27301833393E+02  0.47544436157E+02  0.00000000000E+00 0. -1.
         13    1    4    4    0    0  0.91475862595E+01  0.35455523566E+02  0.11778019525E+03  0.12334077541E+03  0.00000000000E+00 0.  1.
          2    1    1    2  501    0  0.66008361278E+00  0.71439073732E+02  0.24824101002E+03  0.25831681328E+03  0.00000000000E+00 0. -1.
<scales pt_clust_5="13000.00000" pt_clust_6="13000.00000" pt_clust_7="13000.00000" pt_clust_8="13000.00000" pt_clust_9="71.44212"></scales>
<clustering>
<clus scale="   71.442">  1  9  2 -1</clus>
<clus scale="   80.074">  5  6 -1 -1</clus>
<clus scale="   90.189">  7  8 -1 -1</clus>
<clus scale="   97.657">  2  5  1 -1</clus>
<clus scale="   71.442">  1  5  2 -1</clus>
</clustering>
</event>
<event>
 9    1  0.8429841E-005  0.1645140E+03  0.7546771E-02  0.1203937E+00
         -4   -1    0    0    0  501 -0.00000000000E+00  0.00000000000E+00  0.20600177562E+03  0.20600177562E+03  0.00000000000E+00 0.  1.
         21   -1    0    0  501  502  0.00000000000E+00 -0.00000000000E+00 -0.34090608703E+03  0.34090608703E+03  0.00000000000E+00 0. -1.
        -24    2    1    2    0    0 -0.27093313974E+02  0.37557041377E+02  0.10939796939E+03  0.15197215252E+03  0.94778902796E+02 0.  0.
         23    2    1    2    0    0  0.63658926039E+02 -0.14374918222E+03 -0.20944162301E+03  0.27733860038E+03  0.91294137594E+02 0.  0.
         13    1    3    3    0    0  0.28369814597E+02  0.32935363015E+02  0.22944223621E+02  0.49153045834E+02  0.00000000000E+00 0. -1.
        -14    1    3    3    0    0 -0.55463128571E+02  0.46216783619E+01  0.86453745768E+02  0.10281910668E+03  0.00000000000E+00 0.  1.
        -13    1    4    4    0    0  0.27562822323E+02 -0.71222108434E+02 -0.17179667504E+03  0.18800637079E+03  0.00000000000E+00 0. -1.
         13    1    4    4    0    0  0.36096103716E+02 -0.72527073782E+02 -0.37644947968E+02  0.89332229584E+02  0.00000000000E+00 0.  1.
         -3    1    1    2    0  502 -0.36565612065E+02  0.10619214084E+03 -0.34860657781E+02  0.11759710975E+03  0.00000000000E+00 0.  1.
<scales pt_clust_5="13000.00000" pt_clust_6="13000.00000" pt_clust_7="13000.00000" pt_clust_8="13000.00000" pt_clust_9="136.85853"></scales>
<clustering>
<clus scale="   91.294">  7  8 -1 -1</clus>
<clus scale="   94.779">  5  6 -1 -1</clus>
<clus scale="  105.488">  1  5  2 -1</clus>
<clus scale="  136.859">  2  9  1 -1</clus>
<clus scale="  136.859">  2  5  1 -1</clus>
</clustering>
</event>
<event>
 9    1  0.8429841E-005  0.2316869E+03  0.7546771E-02  0.1125458E+00
         21   -1    0    0  501  502  0.00000000000E+00  0.00000000000E+00  0.28289802309E+03  0.28289802309E+03  0.00000000000E+00 0. -1.
          3   -1    0    0  502    0 -0.00000000000E+00 -0.00000000000E+00 -0.15043989521E+03  0.15043989521E+03  0.00000000000E+00 0. -1.
        -24    2    1    2    0    0 -0.51706813330E+02  0.18898618075E+02  0.82802905286E+02  0.12755545202E+03  0.79895681405E+02 0.  0.
         23    2    1    2    0    0 -0.95148088917E+02  0.56853705060E+02  0.52057972316E+02  0.14052342725E+03  0.68929663576E+02 0.  0.
         11    1    3    3    0    0 -0.60331332498E+02 -0.10347561437E+01  0.86557958988E+02  0.10551407804E+03  0.00000000000E+00 0. -1.
        -12    1    3    3    0    0  0.86245191675E+01  0.19933374219E+02 -0.37550537014E+01  0.22041373980E+02  0.00000000000E+00 0.  1.
        -13    1    4    4    0    0 -0.83137672439E+02  0.39744838937E+02  0.89108355042E+01  0.92579305409E+02  0.00000000000E+00 0.  1.
         13    1    4    4    0    0 -0.12010416478E+02  0.17108866123E+02  0.43147136812E+02  0.47944121841E+02  0.00000000000E+00 0. -1.
          4    1    1    2  501    0  0.14685490225E+03 -0.75752323136E+02 -0.24027497275E+01  0.16525903903E+03  0.00000000000E+00 0. -1.
<scales pt_clust_5="13000.00000" pt_clust_6="13000.00000" pt_clust_7="13000.00000" pt_clust_8="13000.00000" pt_clust_9="165.24165"></scales>
<clustering>
<clus scale="   68.930">  7  8 -1 -1</clus>
<clus scale="   79.896">  5  6 -1 -1</clus>
<clus scale="   89.001">  5  7 -1 -1</clus>
<clus scale="  165.242">  1  9  2 -1</clus>
<clus scale="  165.242">  1  5  2 -1</clus>
</clustering>
</event>
<event>
 9    1  0.8429841E-005  0.1203563E+03  0.7546771E-02  0.1245843E+00
         -2   -1    0    0    0  501 -0.00000000000E+00  0.00000000000E+00  0.55160168119E+03  0.55160168119E+03  0.00000000000E+00 0.  1.
         21   -1    0    0  501  502  0.00000000000E+00 -0.00000000000E+00 -0.40842834676E+02  0.40842834676E+02  0.00000000000E+00 0. -1.
        -24    2    1    2    0    0  0.75430303665E+02  0.46982104760E+02  0.34885432164E+03  0.36856223348E+03  0.79004641269E+02 0.  0.
         23    2    1    2    0    0 -0.56796338823E+02 -0.32118708734E+02  0.16600359579E+03  0.19969659303E+03  0.89800333506E+02 0.  0.
         13    1    3    3    0    0 -0.13282582604E+02  0.23400516506E+02  0.70332560669E+02  0.75303919311E+02  0.00000000000E+00 0. -1.
        -14    1    3    3    0    0  0.88712886269E+02  0.23581588255E+02  0.27852176097E+03  0.29325831417E+03  0.00000000000E+00 0.  1.
        -11    1    4    4    0    0 -0.65258283151E+02  0.48149435565E+01  0.13751844893E+03  0.15229297750E+03  0.00000000000E+00 0.  1.
         11    1    4    4    0    0  0.84619443274E+01 -0.36933652290E+02  0.28485146866E+02  0.47403615529E+02  0.00000000000E+00 0. -1.
         -1    1    1    2    0  502 -0.18633964842E+02 -0.14863396027E+02 -0.40990709182E+01  0.24185689355E+02  0.00000000000E+00 0.  1.
<scales pt_clust_5="13000.00000" pt_clust_6="13000.00000" pt_clust_7="13000.00000" pt_clust_8="13000.00000" pt_clust_9="23.83580"></scales>
<clustering>
<clus scale="   23.836">  2  9  1 -1</clus>
<clus scale="   79.005">  5  6 -1 -1</clus>
<clus scale="   89.800">  7  8 -1 -1</clus>
<clus scale="  112.531">  1  5  2 -1</clus>
<clus scale="   23.836">  2  5  1 -1</clus>
</clustering>
</event>
<event>
 9    1  0.8429841E-005  0.1498046E+03  0.7546771E-02  0.1212383E+00
         21   -1    0    0  501  502  0.00000000000E+00  0.00000000000E+00  0.66469450848E+02  0.66469450848E+02  0.00000000000E+00 0. -1.
          3   -1    0    0  502    0 -0.00000000000E+00 -0.00000000000E+00 -0.10803894785E+04  0.10803894785E+04  0.00000000000E+00 0. -1.
        -24    2    1    2    0    0  0.30300984188E+02 -0.79171633817E+02 -0.64631646347E+03  0.65674829248E+03  0.80044059606E+02 0.  0.
         23    2    1    2    0    0  0.98694318959E+02  0.62076772559E+02 -0.32036234829E+03  0.35167742193E+03  0.86318483587E+02 0.  0.
         13    1    3    3    0    0  0.24084244023E+02 -0.27674305225E+02 -0.79424142974E+02  0.87487784673E+02  0.00000000000E+00 0. -1.
        -14    1    3    3    0    0  0.62167401645E+01 -0.51497328592E+02 -0.56689232049E+03  0.56926050780E+03  0.00000000000E+00 0.  1.
        -13    1    4    4    0    0  0.72080130614E+02  0.20601067666E+02 -0.95137882938E+02  0.12112458870E+03  0.00000000000E+00 0.  1.
         13    1    4    4    0    0  0.26614188346E+02  0.41475704892E+02 -0.22522446535E+03  0.23055283323E+03  0.00000000000E+00 0. -1.
          4    1    1    2  501    0 -0.12899530315E+03  0.17094861259E+02 -0.47241215874E+02  0.13843321492E+03  0.00000000000E+00 0. -1.
<scales pt_clust_5="13000.00000" pt_clust_6="13000.00000" pt_clust_7="13000.00000" pt_clust_8="13000.00000" pt_clust_9="122.43588"></scales>
<clustering>
<clus scale="   80.044">  5  6 -1 -1</clus>
<clus scale="   86.318">  7  8 -1 -1</clus>
<clus scale="  116.591">  2  5  1 -1</clus>
<clus scale="  122.436">  1  9  2 -1</clus>
<clus scale="  122.436">  1  5  2 -1</clus>
</clustering>
</event>
<event>
 9    1  0.8429841E-005  0.1661010E+03  0.7546771E-02  0.1208526E+00
         21   -1    0    0  501  502  0.00000000000E+00  0.00000000000E+00  0.40459316650E+02  0.40459316650E+02  0.00000000000E+00 0. -1.
          1   -1    0    0  502    0 -0.00000000000E+00 -0.00000000000E+00 -0.15618114181E+04  0.15618114181E+04  0.00000000000E+00 0. -1.
        -24    2    1    2    0    0 -0.41909377050E+02 -0.15810547046E+02 -0.74756952031E+02  0.11921937607E+03  0.81352863933E+02 0.  0.
         23    2    1    2    0    0 -0.23122598670E+02  0.13966772690E+03 -0.53450319255E+03  0.56029380837E+03  0.90519392111E+02 0.  0.
         11    1    3    3    0    0 -0.16362623835E+02 -0.39364470894E+02 -0.71773812692E+01  0.43229756296E+02  0.00000000000E+00 0. -1.
        -12    1    3    3    0    0 -0.25546753215E+02  0.23553923848E+02 -0.67579570762E+02  0.75989619770E+02  0.00000000000E+00 0.  1.
        -11    1    4    4    0    0 -0.51000696248E+02  0.78902517419E+02 -0.38871319074E+03  0.39990576756E+03  0.00000000000E+00 0. -1.
         11    1    4    4    0    0  0.27878097578E+02  0.60765209485E+02 -0.14579000181E+03  0.16038804082E+03  0.00000000000E+00 0.  1.
          2    1    1    2  501    0  0.65031975721E+02 -0.12385717986E+03 -0.91209195684E+03  0.92275755028E+03  0.00000000000E+00 0. -1.
<scales pt_clust_5="13000.00000" pt_clust_6="13000.00000" pt_clust_7="13000.00000" pt_clust_8="13000.00000" pt_clust_9="139.26877"></scales>
<clustering>
<clus scale="   81.353">  5  6 -1 -1</clus>
<clus scale="   90.519">  7  8 -1 -1</clus>
<clus scale="   92.869">  2  5  1 -1</clus>
<clus scale="  139.269">  1  9  2 -1</clus>
<clus scale="  139.269">  1  5  2 -1</clus>
</clustering>
</event>
<event>
 9    1  0.8429841E-005  0.1356075E+03  0.7546771E-02  0.1222372E+00
         21   -1    0    0  501  502  0.00000000000E+00  0.00000000000E+00  0.73257186029E+02  0.73257186029E+02  0.00000000000E+00 0. -1.
          1   -1    0    0  502    0 -0.00000000000E+00 -0.00000000000E+00 -0.11028581627E+04  0.11028581627E+04  0.00000000000E+00 0. -1.
        -24    2    1    2    0    0 -0.44951523290E+02 -0.87331122711E+02 -0.95064766429E+03  0.95898263458E+03  0.79179210408E+02 0.  0.
         23    2    1    2    0    0  0.45958920471E+02  0.11482595806E+03 -0.24373643271E+02  0.15601053242E+03  0.91912941012E+02 0.  0.
         13    1    3    3    0    0 -0.53903043483E+02 -0.79700125537E+02 -0.56343364875E+03  0.57158999698E+03  0.00000000000E+00 0. -1.
        -14    1    3    3    0    0  0.89515201933E+01 -0.76309971740E+01 -0.38721401554E+03  0.38739263760E+03  0.00000000000E+00 0.  1.
        -11    1    4    4    0    0  0.30468328663E+02  0.12910492188E+03 -0.24744531768E+02  0.13493958558E+03  0.00000000000E+00 0. -1.
         11    1    4    4    0    0  0.15490591808E+02 -0.14278963822E+02  0.37088849650E+00  0.21070946838E+02  0.00000000000E+00 0.  1.
          2    1    1    2  501    0 -0.10073971813E+01 -0.27494835348E+02 -0.54579669151E+02  0.61122181771E+02  0.00000000000E+00 0. -1.
<scales pt_clust_5="13000.00000" pt_clust_6="13000.00000" pt_clust_7="13000.00000" pt_clust_8="13000.00000" pt_clust_9="27.51330"></scales>
<clustering>
<clus scale="   27.513">  1  9  2 -1</clus>
<clus scale="   79.179">  5  6 -1 -1</clus>
<clus scale="   91.913">  7  8 -1 -1</clus>
<clus scale="  127.321">  2  5  1 -1</clus>
<clus scale="   27.513">  1  5  2 -1</clus>
</clustering>
</event>
<event>
 9    1  0.8429841E-005  0.1007823E+03  0.7546771E-02  0.1283707E+00
          1   -1    0    0  502    0 -0.00000000000E+00  0.00000000000E+00  0.15308346234E+02  0.15308346234E+02  0.00000000000E+00 0. -1.
         21   -1    0    0  501  502  0.00000000000E+00 -0.00000000000E+00 -0.11073623307E+04  0.11073623307E+04  0.00000000000E+00 0.  1.
         23    2    1    2    0    0  0.25030455206E+02  0.43736452083E+02 -0.28685725120E+03  0.30507977966E+03  0.90814032297E+02 0.  0.
        -24    2    1    2    0    0  0.18067661923E+02 -0.38547543544E+02 -0.65333360033E+03  0.65964538889E+03  0.80466715173E+02 0.  0.
         11    1    4    4    0    0  0.26346631919E+02  0.12066517450E+02 -0.10521739195E+03  0.10913498718E+03  0.00000000000E+00 0. -1.
        -12    1    4    4    0    0 -0.82789699961E+01 -0.50614060994E+02 -0.54811620838E+03  0.55051040172E+03  0.00000000000E+00 0.  1.
        -11    1    3    3    0    0 -0.23760474117E+02 -0.13771625471E+02 -0.96356823478E+02  0.10019408780E+03  0.00000000000E+00 0.  1.
         11    1    3    3    0    0  0.48790929322E+02  0.57508077554E+02 -0.19050042772E+03  0.20488569186E+03  0.00000000000E+00 0. -1.
          2    1    1    2  501    0 -0.43098117128E+02 -0.51889085392E+01 -0.15186313290E+03  0.15794550835E+03  0.00000000000E+00 0. -1.
<scales pt_clust_5="13000.00000" pt_clust_6="13000.00000" pt_clust_7="13000.00000" pt_clust_8="13000.00000" pt_clust_9="43.40938"></scales>
<clustering>
<clus scale="   43.409">  2  9  1 -1</clus>
<clus scale="   80.467">  5  6 -1 -1</clus>
<clus scale="   90.814">  7  8 -1 -1</clus>
<clus scale="   91.568">  2  5  1 -1</clus>
<clus scale="   43.409">  2  5  1 -1</clus>
</clustering>
</event>
<event>
 9    1  0.8429841E-005  0.1179450E+03  0.7546771E-02  0.1256507E+00
         21   -1    0    0  501  502  0.00000000000E+00  0.00000000000E+00  0.55353600803E+03  0.55353600803E+03  0.00000000000E+00 0. -1.
          1   -1    0    0  502    0 -0.00000000000E+00 -0.00000000000E+00 -0.52476548941E+02  0.52476548941E+02  0.00000000000E+00 0. -1.
        -24    2    1    2    0    0  0.46342095687E+02  0.25315408510E+02  0.50554864505E+02  0.10909132264E+03  0.80973221559E+02 0.  0.
         23    2    1    2    0    0  0.32034566662E+02  0.40423432618E+02  0.26142311855E+03  0.28194146548E+03  0.92134009364E+02 0.  0.
         11    1    3    3    0    0  0.36523301410E+02 -0.22648752517E+02  0.69591691198E+01  0.43535589709E+02  0.00000000000E+00 0. -1.
        -12    1    3    3    0    0  0.98187942764E+01  0.47964161027E+02  0.43595695385E+02  0.65555732931E+02  0.00000000000E+00 0.  1.
        -11    1    4    4    0    0  0.59922628695E+02  0.46329667154E+02  0.16844080836E+03  0.18468748038E+03  0.00000000000E+00 0. -1.
         11    1    4    4    0    0 -0.27888062033E+02 -0.59062345364E+01  0.92982310191E+02  0.97253985105E+02  0.00000000000E+00 0.  1.
          2    1    1    2  501    0 -0.78376662348E+02 -0.65738841128E+02  0.18908147603E+03  0.21497976884E+03  0.00000000000E+00 0. -1.
<scales pt_clust_5="13000.00000" pt_clust_6="13000.00000" pt_clust_7="13000.00000" pt_clust_8="13000.00000" pt_clust_9="73.63668"></scales>
<clustering>
<clus scale="   80.973">  5  6 -1 -1</clus>
<clus scale="   92.134">  7  8 -1 -1</clus>
<clus scale="   96.670">  2  5  1 -1</clus>
<clus scale="   73.637">  1  9  2 -1</clus>
<clus scale="   73.637">  1  5  2 -1</clus>
</clustering>
</event>
<event>
 9    1  0.8429841E-005  0.9036234E+02  0.7546771E-02  0.1308040E+00
         21   -1    0    0  501  502  0.00000000000E+00  0.00000000000E+00  0.60688389266E+02  0.60688389266E+02  0.00000000000E+00 0. -1.
          1   -1    0    0  502    0 -0.00000000000E+00 -0.00000000000E+00 -0.59872214338E+03  0.59872214338E+03  0.00000000000E+00 0. -1.
         23    2    1    2    0    0  0.28462359173E+00  0.14017511099E+02 -0.50558256103E+03  0.51369142318E+03  0.89825278168E+02 0.  0.
        -24    2    1    2    0    0  0.63476115718E+01  0.10428101899E+02 -0.65328462538E+02  0.10421622541E+03  0.80275626057E+02 0.  0.
         13    1    4    4    0    0  0.35665700272E+02  0.15058279997E+02 -0.78146847807E+01  0.39495104388E+02  0.00000000000E+00 0. -1.
        -14    1    4    4    0    0 -0.29318088700E+02 -0.46301780982E+01 -0.57513777757E+02  0.64721121021E+02  0.00000000000E+00 0.  1.
        -11    1    3    3    0    0 -0.38056206931E+02 -0.16894493519E+02 -0.22561824270E+03  0.22942818100E+03  0.00000000000E+00 0.  1.
         11    1    3    3    0    0  0.38340830523E+02  0.30912004618E+02 -0.27996431833E+03  0.28426324218E+03  0.00000000000E+00 0. -1.
          2    1    1    2  501    0 -0.66322351636E+01 -0.24445612998E+02  0.32877269458E+02  0.41502884058E+02  0.00000000000E+00 0. -1.
<scales pt_clust_5="13000.00000" pt_clust_6="13000.00000" pt_clust_7="13000.00000" pt_clust_8="13000.00000" pt_clust_9="25.32932"></scales>
<clustering>
<clus scale="   25.329">  1  9  2 -1</clus>
<clus scale="   80.276">  5  6 -1 -1</clus>
<clus scale="   80.876">  1  5  2 -1</clus>
<clus scale="   89.825">  7  8 -1 -1</clus>
<clus scale="   25.329">  1  5  2 -1</clus>
</clustering>
</event>
<event>
 9    1  0.8429841E-005  0.2084708E+03  0.7546771E-02  0.1167635E+00
         21   -1    0    0  501  502  0.00000000000E+00  0.00000000000E+00  0.78084820316E+02  0.78084820316E+02  0.00000000000E+00 0.  1.
          1   -1    0    0  502    0 -0.00000000000E+00 -0.00000000000E+00 -0.87765875784E+03  0.87765875784E+03  0.00000000000E+00 0. -1.
        -24    2    1    2    0    0 -0.13296407864E+01 -0.84823791379E+02 -0.18345672906E+03  0.21722193806E+03  0.79574841563E+02 0.  0.
         23    2    1    2    0    0 -0.18830846516E+02  0.23559224530E+03 -0.34767339619E+03  0.42997723114E+03  0.90251437976E+02 0.  0.
         13    1    3    3    0    0 -0.39374974327E+02 -0.53313542624E+02 -0.93736507276E+02  0.11480093739E+03  0.00000000000E+00 0. -1.
        -14    1    3    3    0    0  0.38045333541E+02 -0.31510248755E+02 -0.89720221782E+02  0.10242100067E+03  0.00000000000E+00 0.  1.
        -13    1    4    4    0    0 -0.12782056943E+02  0.20683186531E+03 -0.23400927997E+03  0.31257502236E+03  0.00000000000E+00 0.  1.
         13    1    4    4    0    0 -0.60487895738E+01  0.28760379990E+02 -0.11366411622E+03  0.11740220879E+03  0.00000000000E+00 0. -1.
          2    1    1    2  501    0  0.20160487303E+02 -0.15076845392E+03 -0.26844381228E+03  0.30854440895E+03  0.00000000000E+00 0. -1.
<scales pt_clust_5="13000.00000" pt_clust_6="13000.00000" pt_clust_7="13000.00000" pt_clust_8="13000.00000" pt_clust_9="187.92219"></scales>
<clustering>
<clus scale="   79.575">  5  6 -1 -1</clus>
<clus scale="   90.251">  7  8 -1 -1</clus>
<clus scale="  116.314">  2  5  1 -1</clus>
<clus scale="  187.922">  1  9  2 -1</clus>
<clus scale="  187.922">  1  5  2 -1</clus>
</clustering>
</event>
<event>
 9    1  0.8429841E-005  0.9687033E+02  0.7546771E-02  0.1292503E+00
          1   -1    0    0  502    0 -0.00000000000E+00  0.00000000000E+00  0.23184642851E+03  0.23184642851E+03  0.00000000000E+00 0. -1.
         21   -1    0    0  501  502  0.00000000000E+00 -0.00000000000E+00 -0.21825433126E+03  0.21825433126E+03  0.00000000000E+00 0. -1.
         23    2    1    2    0    0  0.15742700399E+02  0.17357839273E+02  0.15271597599E+03  0.17964907205E+03  0.91665110965E+02 0.  0.
        -24    2    1    2    0    0  0.53847640857E+01 -0.74039179673E+02  0.87703761971E+01  0.11066478354E+03  0.81602567402E+02 0.  0.
         13    1    4    4    0    0 -0.60872384899E+01 -0.39274550455E+02  0.44393427258E+02  0.59584571573E+02  0.00000000000E+00 0. -1.
        -14    1    4    4    0    0  0.11472002576E+02 -0.34764629219E+02 -0.35623051061E+02  0.51080211968E+02  0.00000000000E+00 0.  1.
        -11    1    3    3    0    0 -0.18850821861E+02  0.36813631233E+02  0.31177032775E+02  0.51793863555E+02  0.00000000000E+00 0.  1.
         11    1    3    3    0    0  0.34593522260E+02 -0.19455791960E+02  0.12153894321E+03  0.12785520850E+03  0.00000000000E+00 0. -1.
          2    1    1    2  501    0 -0.21127464485E+02  0.56681340401E+02 -0.14789425493E+03  0.15978690418E+03  0.00000000000E+00 0. -1.
<scales pt_clust_5="13000.00000" pt_clust_6="13000.00000" pt_clust_7="13000.00000" pt_clust_8="13000.00000" pt_clust_9="60.49086"></scales>
<clustering>
<clus scale="   60.491">  2  9  1 -1</clus>
<clus scale="   81.603">  5  6 -1 -1</clus>
<clus scale="   87.409">  2  5  1 -1</clus>
<clus scale="   91.665">  7  8 -1 -1</clus>
<clus scale="   60.491">  2  5  1 -1</clus>
</clustering>
</event>
<event>
 9    1  0.8429841E-005  0.9330401E+02  0.7546771E-02  0.1300827E+00
         21   -1    0    0  501  502  0.00000000000E+00  0.00000000000E+00  0.44885652483E+02  0.44885652483E+02  0.00000000000E+00 0. -1.
          1   -1    0    0  502    0 -0.00000000000E+00 -0.00000000000E+00 -0.42933016390E+03  0.42933016390E+03  0.00000000000E+00 0. -1.
        -24    2    1    2    0    0  0.11111770947E+02  0.84850810680E+01 -0.14822303450E+03  0.16948929339E+03  0.81000522000E+02 0.  0.
         23    2    1    2    0    0 -0.24271431389E+02  0.66221006984E+02 -0.12209130503E+03  0.16768684848E+03  0.90764906441E+02 0.  0.
         13    1    3    3    0    0  0.75334628641E+01  0.44874883183E+02 -0.86894906199E+02  0.98087883690E+02  0.00000000000E+00 0. -1.
        -14    1    3    3    0    0  0.35783080830E+01 -0.36389802115E+02 -0.61328128300E+02  0.71401409703E+02  0.00000000000E+00 0.  1.
        -13    1    4    4    0    0 -0.54418697777E+02  0.36225264336E+02 -0.10075992064E+03  0.12010922551E+03  0.00000000000E+00 0.  1.
         13    1    4    4    0    0  0.30147266388E+02  0.29995742648E+02 -0.21331384382E+02  0.47577622968E+02  0.00000000000E+00 0. -1.
          2    1    1    2  501    0  0.13159660442E+02 -0.74706088052E+02 -0.11413017189E+03  0.13703967451E+03  0.00000000000E+00 0. -1.
<scales pt_clust_5="13000.00000" pt_clust_6="13000.00000" pt_clust_7="13000.00000" pt_clust_8="13000.00000" pt_clust_9="75.85632"></scales>
<clustering>
<clus scale="   75.856">  1  9  2 -1</clus>
<clus scale="   81.001">  5  6 -1 -1</clus>
<clus scale="   83.836">  2  5  1 -1</clus>
<clus scale="   90.765">  7  8 -1 -1</clus>
<clus scale="   75.856">  1  5  2 -1</clus>
</clustering>
</event>
<event>
 9    1  0.8429841E-005  0.1280899E+03  0.7546771E-02  0.1245240E+00
          1   -1    0    0  502    0 -0.00000000000E+00  0.00000000000E+00  0.39111635681E+03  0.39111635681E+03  0.00000000000E+00 0. -1.
         21   -1    0    0  501  502  0.00000000000E+00 -0.00000000000E+00 -0.10957280988E+03  0.10957280988E+03  0.00000000000E+00 0. -1.
         23    2    1    2    0    0 -0.23489567889E+02  0.18988645289E+02  0.14441960552E+03  0.17258676372E+03  0.89536808643E+02 0.  0.
        -24    2    1    2    0    0  0.97661326630E+02  0.47403809314E+02  0.17570118264E+03  0.22134280684E+03  0.79604501769E+02 0.  0.
         13    1    4    4    0    0  0.86217030454E+02  0.31769603483E+02  0.17945203807E+03  0.20160783222E+03  0.00000000000E+00 0. -1.
        -14    1    4    4    0    0  0.11444296177E+02  0.15634205831E+02 -0.37508554245E+01  0.19734974622E+02  0.00000000000E+00 0.  1.
        -13    1    3    3    0    0 -0.14748899811E+02 -0.30139167991E+02  0.21311481313E+02  0.39750204133E+02  0.00000000000E+00 0. -1.
         13    1    3    3    0    0 -0.87406680778E+01  0.49127813280E+02  0.12310812421E+03  0.13283655958E+03  0.00000000000E+00 0.  1.
          2    1    1    2  501    0 -0.74171758741E+02 -0.66392454602E+02 -0.38577241237E+02  0.10675959612E+03  0.00000000000E+00 0. -1.
<scales pt_clust_5="13000.00000" pt_clust_6="13000.00000" pt_clust_7="13000.00000" pt_clust_8="13000.00000" pt_clust_9="100.35017"></scales>
<clustering>
<clus scale="   79.605">  5  6 -1 -1</clus>
<clus scale="   89.537">  7  8 -1 -1</clus>
<clus scale="   94.494">  1  7  2 -1</clus>
<clus scale="  100.350">  2  9  1 -1</clus>
<clus scale="  100.350">  2  5  1 -1</clus>
</clustering>
</event>
<event>
 9    1  0.8429841E-005  0.1458029E+03  0.7546771E-02  0.1207241E+00
         -2   -1    0    0    0  501 -0.00000000000E+00  0.00000000000E+00  0.10010531124E+04  0.10010531124E+04  0.00000000000E+00 0.  1.
         21   -1    0    0  501  502  0.00000000000E+00 -0.00000000000E+00 -0.52852721678E+02  0.52852721678E+02  0.00000000000E+00 0. -1.
         23    2    1    2    0    0 -0.65709259099E+02  0.63110920042E+02  0.34763037403E+03  0.37046198710E+03  0.89969505851E+02 0.  0.
        -24    2    1    2    0    0  0.89139597459E+02 -0.16555471922E+03  0.28761927907E+03  0.35331981434E+03  0.82193726137E+02 0.  0.
         13    1    4    4    0    0  0.83650785665E+02 -0.15414354618E+03  0.29139954916E+03  0.34010496030E+03  0.00000000000E+00 0. -1.
        -14    1    4    4    0    0  0.54888117939E+01 -0.11411173047E+02 -0.37802700887E+01  0.13214854035E+02  0.00000000000E+00 0.  1.
        -11    1    3    3    0    0 -0.33401782006E+02  0.83347029942E+02  0.23621673719E+03  0.25270685264E+03  0.00000000000E+00 0. -1.
         11    1    3    3    0    0 -0.32307477093E+02 -0.20236109900E+02  0.11141363684E+03  0.11775513447E+03  0.00000000000E+00 0.  1.
         -1    1    1    2    0  502 -0.23430338360E+02  0.10244379918E+03  0.31295073764E+03  0.33012403266E+03  0.00000000000E+00 0.  1.
<scales pt_clust_5="13000.00000" pt_clust_6="13000.00000" pt_clust_7="13000.00000" pt_clust_8="13000.00000" pt_clust_9="105.08912"></scales>
<clustering>
<clus scale="   82.194">  5  6 -1 -1</clus>
<clus scale="   89.970">  7  8 -1 -1</clus>
<clus scale="  105.089">  2  9  1 -1</clus>
<clus scale="  141.137">  2  5  1 -1</clus>
<clus scale="  105.089">  2  5  1 -1</clus>
</clustering>
</event>
<event>
 9    1  0.8429841E-005  0.9904793E+02  0.7546771E-02  0.1288365E+00
          1   -1    0    0  502    0 -0.00000000000E+00  0.00000000000E+00  0.37479183160E+03  0.37479183160E+03  0.00000000000E+00 0. -1.
         21   -1    0    0  501  502  0.00000000000E+00 -0.00000000000E+00 -0.60436261739E+02  0.60436261739E+02  0.00000000000E+00 0. -1.
        -24    2    1    2    0    0  0.26409689775E+02 -0.37684178346E+02  0.20564409210E+03  0.22509282488E+03  0.79118380826E+02 0.  0.
         23    2    1    2    0    0  0.44205588149E+02  0.40308259401E+02  0.72196213903E+02  0.13059428674E+03  0.90904810812E+02 0.  0.
         13    1    3    3    0    0  0.47020870476E+02 -0.40520700401E+02  0.10216747874E+03  0.11954531833E+03  0.00000000000E+00 0. -1.
        -14    1    3    3    0    0 -0.20611180701E+02  0.28365220550E+01  0.10347661336E+03  0.10554750655E+03  0.00000000000E+00 0.  1.
        -13    1    4    4    0    0  0.22042231698E+02  0.18557033715E+02  0.90205993207E+02  0.94696064802E+02  0.00000000000E+00 0.  1.
         13    1    4    4    0    0  0.22163356451E+02  0.21751225687E+02 -0.18009779304E+02  0.35898221943E+02  0.00000000000E+00 0. -1.
          2    1    1    2  501    0 -0.70615277924E+02 -0.26240810553E+01  0.36515263859E+02  0.79540981716E+02  0.00000000000E+00 0. -1.
<scales pt_clust_5="13000.00000" pt_clust_6="13000.00000" pt_clust_7="13000.00000" pt_clust_8="13000.00000" pt_clust_9="70.66402"></scales>
<clustering>
<clus scale="   70.664">  2  9  1 -1</clus>
<clus scale="   79.118">  5  6 -1 -1</clus>
<clus scale="   88.355">  1  5  2 -1</clus>
<clus scale="   90.905">  7  8 -1 -1</clus>
<clus scale="   70.664">  2  5  1 -1</clus>
</clustering>
</event>
<event>
 9    1  0.8429841E-005  0.1741343E+03  0.7546771E-02  0.1174886E+00
         21   -1    0    0  501  502  0.00000000000E+00  0.00000000000E+00  0.55357639801E+03  0.55357639801E+03  0.00000000000E+00 0. -1.
          1   -1    0    0  502    0 -0.00000000000E+00 -0.00000000000E+00 -0.29931836407E+03  0.29931836407E+03  0.00000000000E+00 0. -1.
        -24    2    1    2    0    0 -0.28405375410E+02 -0.15427426539E+03 -0.24854468383E+03  0.30476993034E+03  0.80640165313E+02 0.  0.
         23    2    1    2    0    0  0.37677439793E+02  0.78556214014E+02  0.20312516647E+03  0.23889056902E+03  0.90654302072E+02 0.  0.
         11    1    3    3    0    0 -0.52605286654E+02 -0.79545068230E+02 -0.16122549955E+03  0.18731896799E+03  0.00000000000E+00 0. -1.
        -12    1    3    3    0    0  0.24199911244E+02 -0.74729197158E+02 -0.87319184287E+02  0.11745096235E+03  0.00000000000E+00 0.  1.
        -13    1    4    4    0    0 -0.26568545350E+02  0.46968736700E+02  0.93660909500E+02  0.10809401370E+03  0.00000000000E+00 0.  1.
         13    1    4    4    0    0  0.64245985143E+02  0.31587477314E+02  0.10946425697E+03  0.13079655532E+03  0.00000000000E+00 0. -1.
          2    1    1    2  501    0 -0.92720643837E+01  0.75718051373E+02  0.29967755130E+03  0.30923426271E+03  0.00000000000E+00 0. -1.
<scales pt_clust_5="13000.00000" pt_clust_6="13000.00000" pt_clust_7="13000.00000" pt_clust_8="13000.00000" pt_clust_9="76.28364"></scales>
<clustering>
<clus scale="   76.284">  1  9  2 -1</clus>
<clus scale="   80.640">  5  6 -1 -1</clus>
<clus scale="   90.654">  7  8 -1 -1</clus>
<clus scale="  169.137">  2  5  1 -1</clus>
<clus scale="   76.284">  1  5  2 -1</clus>
</clustering>
</event>
<event>
 9    1  0.8429841E-005  0.3086947E+03  0.7546771E-02  0.1111994E+00
         21   -1    0    0  501  502  0.00000000000E+00  0.00000000000E+00  0.11722937638E+03  0.11722937638E+03  0.00000000000E+00 0.  1.
         -4   -1    0    0    0  501 -0.00000000000E+00 -0.00000000000E+00 -0.12340092636E+04  0.12340092636E+04  0.00000000000E+00 0.  1.
        -24    2    1    2    0    0 -0.10485909236E+03  0.37094805413E+02 -0.14298944738E+03  0.19822010383E+03  0.80459764249E+02 0.  0.
         23    2    1    2    0    0  0.18038281391E+03 -0.28947277973E+03 -0.55989459254E+03  0.66239826868E+03  0.94641755259E+02 0.  0.
         11    1    3    3    0    0 -0.29556219981E+01  0.26624867364E+02 -0.62308947859E+02  0.67823478581E+02  0.00000000000E+00 0. -1.
        -12    1    3    3    0    0 -0.10190347036E+03  0.10469938049E+02 -0.80680499517E+02  0.13039662525E+03  0.00000000000E+00 0.  1.
        -11    1    4    4    0    0  0.13000687236E+03 -0.13501706096E+03 -0.34939882732E+03  0.39649834065E+03  0.00000000000E+00 0.  1.
         11    1    4    4    0    0  0.50375941554E+02 -0.15445571878E+03 -0.21049576522E+03  0.26589992803E+03  0.00000000000E+00 0. -1.
         -3    1    1    2    0  502 -0.75523721555E+02  0.25237797432E+03 -0.41389584729E+03  0.49062026746E+03  0.00000000000E+00 0.  1.
<scales pt_clust_5="13000.00000" pt_clust_6="13000.00000" pt_clust_7="13000.00000" pt_clust_8="13000.00000" pt_clust_9="293.82874"></scales>
<clustering>
<clus scale="   80.460">  5  6 -1 -1</clus>
<clus scale="   94.642">  7  8 -1 -1</clus>
<clus scale="  137.278">  2  5  1 -1</clus>
<clus scale="  293.829">  1  9  2 -1</clus>
<clus scale="  293.829">  1  5  2 -1</clus>
</clustering>
</event>
<event>
 9    1  0.8429841E-005  0.1157101E+03  0.7546771E-02  0.1253742E+00
         -2   -1    0    0    0  501 -0.00000000000E+00  0.00000000000E+00  0.11884703640E+03  0.11884703640E+03  0.00000000000E+00 0.  1.
         21   -1    0    0  501  502  0.00000000000E+00 -0.00000000000E+00 -0.20986331835E+03  0.20986331835E+03  0.00000000000E+00 0. -1.
         23    2    1    2    0    0  0.42678755400E+02 -0.57191660483E+02  0.53934993804E+02  0.12519205780E+03  0.87588273126E+02 0.  0.
        -24    2    1    2    0    0 -0.54496336452E+02  0.75515543105E+02 -0.12175797390E+03  0.17168515153E+03  0.77319720070E+02 0.  0.
         11    1    4    4    0    0 -0.11986570099E+02  0.64362353837E+02 -0.10678383307E+03  0.12525564841E+03  0.00000000000E+00 0. -1.
        -12    1    4    4    0    0 -0.42509766353E+02  0.11153189269E+02 -0.14974140825E+02  0.46429503117E+02  0.00000000000E+00 0.  1.
        -11    1    3    3    0    0 -0.11386755643E+02 -0.57319663632E+02  0.22290914325E+02  0.62546677805E+02  0.00000000000E+00 0.  1.
         11    1    3    3    0    0  0.54065511043E+02  0.12800314932E+00  0.31644079479E+02  0.62645379998E+02  0.00000000000E+00 0. -1.
         -1    1    1    2    0  502  0.11817581053E+02 -0.18323882622E+02 -0.23193301853E+02  0.31833145417E+02  0.00000000000E+00 0.  1.
<scales pt_clust_5="13000.00000" pt_clust_6="13000.00000" pt_clust_7="13000.00000" pt_clust_8="13000.00000" pt_clust_9="21.80413"></scales>
<clustering>
<clus scale="   21.804">  2  9  1 -1</clus>
<clus scale="   77.320">  5  6 -1 -1</clus>
<clus scale="   87.588">  7  8 -1 -1</clus>
<clus scale="  108.146">  2  5  1 -1</clus>
<clus scale="   21.804">  2  5  1 -1</clus>
</clustering>
</event>
<event>
 9    1  0.8429841E-005  0.1095984E+03  0.7546771E-02  0.1266091E+00
         21   -1    0    0  501  502  0.00000000000E+00  0.00000000000E+00  0.22354851351E+02  0.22354851351E+02  0.00000000000E+00 0. -1.
          1   -1    0    0  502    0 -0.00000000000E+00 -0.00000000000E+00 -0.88815336301E+03  0.88815336301E+03  0.00000000000E+00 0. -1.
        -24    2    1    2    0    0  0.26422576166E+02  0.62142946269E+02 -0.44288299653E+03  0.45522844368E+03  0.80794114986E+02 0.  0.
         23    2    1    2    0    0 -0.36582161455E+02 -0.23612222543E+02 -0.16387411417E+03  0.19319146256E+03  0.92587387479E+02 0.  0.
         11    1    3    3    0    0 -0.18959813884E+02  0.47914551385E+02 -0.30623774720E+03  0.31054280958E+03  0.00000000000E+00 0. -1.
        -12    1    3    3    0    0  0.45382390050E+02  0.14228394885E+02 -0.13664524933E+03  0.14468563409E+03  0.00000000000E+00 0.  1.
        -13    1    4    4    0    0  0.17923562332E+02 -0.13798169101E+02 -0.12115335485E+03  0.12324682125E+03  0.00000000000E+00 0.  1.
         13    1    4    4    0    0 -0.54505723787E+02 -0.98140534425E+01 -0.42720759318E+02  0.69944641305E+02  0.00000000000E+00 0. -1.
          2    1    1    2  501    0  0.10159585289E+02 -0.38530723726E+02 -0.25904140096E+03  0.26208830812E+03  0.00000000000E+00 0. -1.
<scales pt_clust_5="13000.00000" pt_clust_6="13000.00000" pt_clust_7="13000.00000" pt_clust_8="13000.00000" pt_clust_9="39.84765"></scales>
<clustering>
<clus scale="   39.848">  1  9  2 -1</clus>
<clus scale="   80.794">  5  6 -1 -1</clus>
<clus scale="   92.587">  7  8 -1 -1</clus>
<clus scale="   99.835">  2  5  1 -1</clus>
<clus scale="   39.848">  1  5  2 -1</clus>
</clustering>
</event>
<event>
 9    1  0.8429841E-005  0.1209195E+03  0.7546771E-02  0.1244998E+00
          1   -1    0    0  502    0 -0.00000000000E+00  0.00000000000E+00  0.26444562541E+02  0.26444562541E+02  0.00000000000E+00 0. -1.
         21   -1    0    0  501  502  0.00000000000E+00 -0.00000000000E+00 -0.69151772535E+03  0.69151772535E+03  0.00000000000E+00 0.  1.
        -24    2    1    2    0    0 -0.11444420803E+02 -0.74378375249E+02 -0.21143388447E+03  0.23859590466E+03  0.80997535441E+02 0.  0.
         23    2    1    2    0    0 -0.11287252483E+02  0.84885720337E+02 -0.32736627904E+03  0.35063408882E+03  0.91883600311E+02 0.  0.
         11    1    3    3    0    0  0.24148452549E+02 -0.66706119401E+02 -0.16487987310E+03  0.17949436393E+03  0.00000000000E+00 0. -1.
        -12    1    3    3    0    0 -0.35592873353E+02 -0.76722558484E+01 -0.46554011367E+02  0.59101540738E+02  0.00000000000E+00 0.  1.
        -13    1    4    4    0    0 -0.40988391947E+01  0.61772802055E+02 -0.31910994003E+03  0.32505973817E+03  0.00000000000E+00 0.  1.
         13    1    4    4    0    0 -0.71884132883E+01  0.23112918283E+02 -0.82563390086E+01  0.25574350646E+02  0.00000000000E+00 0. -1.
          2    1    1    2  501    0  0.22731673286E+02 -0.10507345088E+02 -0.12627299930E+03  0.12873229441E+03  0.00000000000E+00 0. -1.
<scales pt_clust_5="13000.00000" pt_clust_6="13000.00000" pt_clust_7="13000.00000" pt_clust_8="13000.00000" pt_clust_9="25.04263"></scales>
<clustering>
<clus scale="   25.043">  2  9  1 -1</clus>
<clus scale="   80.998">  5  6 -1 -1</clus>
<clus scale="   91.884">  7  8 -1 -1</clus>
<clus scale="  112.870">  1  5  2 -1</clus>
<clus scale="   25.043">  2  5  1 -1</clus>
</clustering>
</event>
<event>
 9    1  0.8429841E-005  0.1036210E+03  0.7546771E-02  0.1276824E+00
          1   -1    0    0  502    0 -0.00000000000E+00  0.00000000000E+00  0.57203953374E+03  0.57203953374E+03  0.00000000000E+00 0. -1.
         21   -1    0    0  501  502  0.00000000000E+00 -0.00000000000E+00 -0.55602999047E+02  0.55602999047E+02  0.00000000000E+00 0.  1.
         23    2    1    2    0    0 -0.10921859248E+02 -0.52278417730E+02  0.49279695715E+03  0.50369853865E+03  0.89504507627E+02 0.  0.
        -24    2    1    2    0    0  0.25437887589E+02  0.37376380880E+02 -0.56009149016E-01  0.92412000711E+02  0.80597113879E+02 0.  0.
         11    1    4    4    0    0 -0.21182611103E+02  0.21060241899E+02  0.23196278821E+02  0.37819362146E+02  0.00000000000E+00 0. -1.
        -12    1    4    4    0    0  0.46620498692E+02  0.16316138981E+02 -0.23252287970E+02  0.54592638564E+02  0.00000000000E+00 0.  1.
        -13    1    3    3    0    0 -0.30703317790E+02  0.13455085819E+02  0.11809708726E+03  0.12276259641E+03  0.00000000000E+00 0.  1.
         13    1    3    3    0    0  0.19781458542E+02 -0.65733503549E+02  0.37469986990E+03  0.38093594224E+03  0.00000000000E+00 0. -1.
          2    1    1    2  501    0 -0.14516028341E+02  0.14902036850E+02  0.23695586686E+02  0.31531993427E+02  0.00000000000E+00 0. -1.
<scales pt_clust_5="13000.00000" pt_clust_6="13000.00000" pt_clust_7="13000.00000" pt_clust_8="13000.00000" pt_clust_9="20.80350"></scales>
<clustering>
<clus scale="   20.804">  2  9  1 -1</clus>
<clus scale="   80.597">  5  6 -1 -1</clus>
<clus scale="   89.505">  7  8 -1 -1</clus>
<clus scale="   96.032">  2  5  1 -1</clus>
<clus scale="   20.804">  2  5  1 -1</clus>
</clustering>
</event>
<event>
 9    1  0.8788845E-005  0.6896455E+03  0.7546771E-02  0.9735835E-01
         21   -1    0    0  501  502  0.00000000000E+00  0.00000000000E+00  0.14999637857E+03  0.14999637857E+03  0.00000000000E+00 0.  1.
         -2   -1    0    0    0  501 -0.00000000000E+00 -0.00000000000E+00 -0.35899581473E+04  0.35899581473E+04  0.00000000000E+00 0.  1.
         23    2    1    2    0    0  0.66735372225E+03 -0.70203276531E+02 -0.18934337828E+04  0.20109832884E+04  0.93127899110E+02 0.  0.
        -24    2    1    2    0    0 -0.69418079775E+03  0.10731981042E+03 -0.13152531525E+04  0.14932057234E+04  0.79799470929E+02 0.  0.
         13    1    4    4    0    0 -0.15695131519E+03  0.27342750467E+02 -0.37331097049E+03  0.40588473984E+03  0.00000000000E+00 0. -1.
        -14    1    4    4    0    0 -0.53722948256E+03  0.79977059950E+02 -0.94194218202E+03  0.10873209836E+04  0.00000000000E+00 0.  1.
        -11    1    3    3    0    0  0.62933686972E+03 -0.74776428573E+02 -0.18326957265E+04  0.19391828269E+04  0.00000000000E+00 0.  1.
         11    1    3    3    0    0  0.38016852521E+02  0.45731520420E+01 -0.60738056248E+02  0.71800461503E+02  0.00000000000E+00 0. -1.
         -1    1    1    2    0  502  0.26827075500E+02 -0.37116533887E+02 -0.23127483344E+03  0.23576551412E+03  0.00000000000E+00 0.  1.
<scales pt_clust_5="13000.00000" pt_clust_6="13000.00000" pt_clust_7="13000.00000" pt_clust_8="13000.00000" pt_clust_9="45.79663"></scales>
<clustering>
<clus scale="   45.797">  1  9  2 -1</clus>
<clus scale="   79.799">  5  6 -1 -1</clus>
<clus scale="   93.128">  7  8 -1 -1</clus>
<clus scale="  687.972">  1  5  2 -1</clus>
<clus scale="   45.797">  1  5  2 -1</clus>
</clustering>
</event>
<event>
 9    1  0.8429841E-005  0.2361116E+03  0.7546771E-02  0.1130010E+00
          1   -1    0    0  502    0 -0.00000000000E+00  0.00000000000E+00  0.18613608037E+04  0.18613608037E+04  0.00000000000E+00 0. -1.
         21   -1    0    0  501  502  0.00000000000E+00 -0.00000000000E+00 -0.77648040284E+02  0.77648040284E+02  0.00000000000E+00 0. -1.
        -24    2    1    2    0    0 -0.16119685362E+03  0.74333025499E+02  0.67117188178E+03  0.69910944852E+03  0.82295211452E+02 0.  0.
         23    2    1    2    0    0 -0.17314971830E+03 -0.29948979540E+02  0.29311123631E+03  0.35377157322E+03  0.91445955878E+02 0.  0.
         13    1    3    3    0    0 -0.15517670607E+03  0.69736166154E+02  0.67022032220E+03  0.69147539599E+03  0.00000000000E+00 0. -1.
        -14    1    3    3    0    0 -0.60201475512E+01  0.45968593443E+01  0.95155957771E+00  0.76340525279E+01  0.00000000000E+00 0.  1.
        -13    1    4    4    0    0 -0.85043442876E+02  0.31408013697E+02  0.12959360469E+03  0.15815610288E+03  0.00000000000E+00 0.  1.
         13    1    4    4    0    0 -0.88106275429E+02 -0.61356993237E+02  0.16351763162E+03  0.19561547035E+03  0.00000000000E+00 0. -1.
          2    1    1    2  501    0  0.33434657193E+03 -0.44384045959E+02  0.81942964535E+03  0.88612782225E+03  0.00000000000E+00 0. -1.
<scales pt_clust_5="13000.00000" pt_clust_6="13000.00000" pt_clust_7="13000.00000" pt_clust_8="13000.00000" pt_clust_9="217.68411"></scales>
<clustering>
<clus scale="   82.295">  5  6 -1 -1</clus>
<clus scale="   91.446">  7  8 -1 -1</clus>
<clus scale="  195.659">  1  5  2 -1</clus>
<clus scale="  217.684">  2  9  1 -1</clus>
<clus scale="  217.684">  2  5  1 -1</clus>
</clustering>
</event>
<event>
 9    1  0.8429841E-005  0.2856202E+03  0.7546771E-02  0.1092658E+00
         21   -1    0    0  501  502  0.00000000000E+00  0.00000000000E+00  0.19182838540E+03  0.19182838540E+03  0.00000000000E+00 0. -1.
          3   -1    0    0  502    0 -0.00000000000E+00 -0.00000000000E+00 -0.38570434021E+03  0.38570434021E+03  0.00000000000E+00 0. -1.
        -24    2    1    2    0    0 -0.14272966796E+02 -0.15955946938E+03  0.23329944707E+02  0.18208128230E+03  0.83344857021E+02 0.  0.
         23    2    1    2    0    0 -0.12343482147E+02 -0.44905763030E+02 -0.10948975914E+02  0.10380716486E+03  0.92125774343E+02 0.  0.
         13    1    3    3    0    0 -0.33850403185E+02 -0.15700853889E+03  0.23573736463E+02  0.16233684773E+03  0.00000000000E+00 0. -1.
        -14    1    3    3    0    0  0.19577436389E+02 -0.25509304926E+01 -0.24379175551E+00  0.19744434567E+02  0.00000000000E+00 0.  1.
        -11    1    4    4    0    0  0.24606082151E+02  0.77802491708E+01  0.19760995452E+02  0.32503668981E+02  0.00000000000E+00 0. -1.
         11    1    4    4    0    0 -0.36949564298E+02 -0.52686012201E+02 -0.30709971366E+02  0.71303495880E+02  0.00000000000E+00 0.  1.
          4    1    1    2  501    0  0.26616448944E+02  0.20446523241E+03 -0.20625692361E+03  0.29164427845E+03  0.00000000000E+00 0. -1.
<scales pt_clust_5="13000.00000" pt_clust_6="13000.00000" pt_clust_7="13000.00000" pt_clust_8="13000.00000" pt_clust_9="206.19047"></scales>
<clustering>
<clus scale="   83.345">  5  6 -1 -1</clus>
<clus scale="   92.126">  7  8 -1 -1</clus>
<clus scale="   92.503">  5  7 -1 -1</clus>
<clus scale="  206.190">  1  9  2 -1</clus>
<clus scale="  206.190">  1  5  2 -1</clus>
</clustering>
</event>
<event>
 9    1  0.8429841E-005  0.1973556E+03  0.7546771E-02  0.1152910E+00
          1   -1    0    0  502    0 -0.00000000000E+00  0.00000000000E+00  0.11875847240E+04  0.11875847240E+04  0.00000000000E+00 0. -1.
         21   -1    0    0  501  502  0.00000000000E+00 -0.00000000000E+00 -0.16895580351E+03  0.16895580351E+03  0.00000000000E+00 0. -1.
        -24    2    1    2    0    0 -0.12902066363E+03 -0.14013847712E+03  0.95323951259E+03  0.97547116471E+03  0.81199140500E+02 0.  0.
         23    2    1    2    0    0  0.15968830620E+03 -0.21705991677E+02  0.10352806565E+03  0.21198744895E+03  0.90824627293E+02 0.  0.
         13    1    3    3    0    0 -0.94284080717E+02 -0.52103185868E+02  0.60924846437E+03  0.61869857054E+03  0.00000000000E+00 0. -1.
        -14    1    3    3    0    0 -0.34736582917E+02 -0.88035291252E+02  0.34399104821E+03  0.35677259417E+03  0.00000000000E+00 0.  1.
        -13    1    4    4    0    0  0.15206858455E+03  0.60805080130E+01  0.69238401485E+02  0.16719983021E+03  0.00000000000E+00 0. -1.
         13    1    4    4    0    0  0.76197216498E+01 -0.27786499690E+02  0.34289664167E+02  0.44787618733E+02  0.00000000000E+00 0.  1.
          2    1    1    2  501    0 -0.30667642562E+02  0.16184446880E+03 -0.38138657736E+02  0.16908191386E+03  0.00000000000E+00 0. -1.
<scales pt_clust_5="13000.00000" pt_clust_6="13000.00000" pt_clust_7="13000.00000" pt_clust_8="13000.00000" pt_clust_9="164.72443"></scales>
<clustering>
<clus scale="   81.199">  5  6 -1 -1</clus>
<clus scale="   90.825">  7  8 -1 -1</clus>
<clus scale="  164.724">  2  9  1 -1</clus>
<clus scale="  193.115">  1  5  2 -1</clus>
<clus scale="  164.724">  2  5  1 -1</clus>
</clustering>
</event>
<event>
 9    1  0.8429841E-005  0.1202334E+03  0.7546771E-02  0.1253884E+00
         -4   -1    0    0    0  501 -0.00000000000E+00  0.00000000000E+00  0.47520910674E+03  0.47520910674E+03  0.00000000000E+00 0.  1.
         21   -1    0    0  501  502  0.00000000000E+00 -0.00000000000E+00 -0.53754169998E+02  0.53754169998E+02  0.00000000000E+00 0.  1.
        -24    2    1    2    0    0  0.36733834864E+02 -0.64704991487E+02  0.19521315567E+03  0.21648265914E+03  0.56749052993E+02 0.  0.
         23    2    1    2    0    0  0.27424852478E+02  0.10308117880E+03  0.14583179679E+03  0.20268610732E+03  0.91852562233E+02 0.  0.
         13    1    3    3    0    0 -0.13314707181E+02 -0.25551986087E+02  0.78027865368E+02  0.83177720540E+02  0.00000000000E+00 0. -1.
        -14    1    3    3    0    0  0.50048542045E+02 -0.39153005400E+02  0.11718529030E+03  0.13330493860E+03  0.00000000000E+00 0.  1.
        -11    1    4    4    0    0  0.46200461367E+02  0.11106546516E+03  0.12236904455E+03  0.17159313286E+03  0.00000000000E+00 0.  1.
         11    1    4    4    0    0 -0.18775608889E+02 -0.79842863586E+01  0.23462752247E+02  0.31092974461E+02  0.00000000000E+00 0. -1.
         -3    1    1    2    0  502 -0.64158687342E+02 -0.38376187317E+02  0.80409984283E+02  0.10979451028E+03  0.00000000000E+00 0.  1.
<scales pt_clust_5="13000.00000" pt_clust_6="13000.00000" pt_clust_7="13000.00000" pt_clust_8="13000.00000" pt_clust_9="74.76008"></scales>
<clustering>
<clus scale="   56.749">  5  6 -1 -1</clus>
<clus scale="   74.760">  2  9  1 -1</clus>
<clus scale="   91.853">  7  8 -1 -1</clus>
<clus scale="   96.123">  1  5  2 -1</clus>
<clus scale="   74.760">  2  5  1 -1</clus>
</clustering>
</event>
<event>
 9    1  0.8429841E-005  0.9158195E+02  0.7546771E-02  0.1305899E+00
          1   -1    0    0  502    0 -0.00000000000E+00  0.00000000000E+00  0.47467872416E+03  0.47467872416E+03  0.00000000000E+00 0. -1.
         21   -1    0    0  501  502  0.00000000000E+00 -0.00000000000E+00 -0.31533636844E+02  0.31533636844E+02  0.00000000000E+00 0.  1.
         23    2    1    2    0    0 -0.17426522479E+02 -0.38372050586E+01  0.34238241418E+03  0.35467466546E+03  0.90829471804E+02 0.  0.
        -24    2    1    2    0    0 -0.55423057428E+01 -0.17279015397E+02  0.74303133265E+02  0.11062841682E+03  0.79927526348E+02 0.  0.
         13    1    4    4    0    0  0.58304931078E+01 -0.45785037151E+02  0.62614200744E+02  0.77786903857E+02  0.00000000000E+00 0. -1.
        -14    1    4    4    0    0 -0.11372798851E+02  0.28506021754E+02  0.11688932521E+02  0.32841512959E+02  0.00000000000E+00 0.  1.
        -13    1    3    3    0    0  0.63946689062E+01  0.37446269218E+02  0.22151721281E+03  0.22475095203E+03  0.00000000000E+00 0.  1.
         13    1    3    3    0    0 -0.23821191385E+02 -0.41283474277E+02  0.12086520138E+03  0.12992371343E+03  0.00000000000E+00 0. -1.
          2    1    1    2  501    0  0.22968828221E+02  0.21116220455E+02  0.26459539870E+02  0.40909278731E+02  0.00000000000E+00 0. -1.
<scales pt_clust_5="13000.00000" pt_clust_6="13000.00000" pt_clust_7="13000.00000" pt_clust_8="13000.00000" pt_clust_9="31.20035"></scales>
<clustering>
<clus scale="   31.200">  2  9  1 -1</clus>
<clus scale="   79.928">  5  6 -1 -1</clus>
<clus scale="   80.782">  2  5  1 -1</clus>
<clus scale="   90.829">  7  8 -1 -1</clus>
<clus scale="   31.200">  2  5  1 -1</clus>
</clustering>
</event>
<event>
 9    1  0.8429841E-005  0.1891977E+03  0.7546771E-02  0.1160465E+00
          1   -1    0    0  502    0 -0.00000000000E+00  0.00000000000E+00  0.49502588515E+03  0.49502588515E+03  0.00000000000E+00 0. -1.
         21   -1    0    0  501  502  0.00000000000E+00 -0.00000000000E+00 -0.13411423320E+03  0.13411423320E+03  0.00000000000E+00 0. -1.
        -24    2    1    2    0    0 -0.16733042989E+03  0.88831947280E+02  0.33497222687E+03  0.39305362708E+03  0.79963575218E+02 0.  0.
         23    2    1    2    0    0  0.96064549418E+02 -0.35822768643E+02 -0.14473657347E+02  0.13850567363E+03  0.91992752231E+02 0.  0.
         11    1    3    3    0    0 -0.10205165691E+03  0.93509412192E+02  0.25047545469E+03  0.28617565279E+03  0.00000000000E+00 0. -1.
        -12    1    3    3    0    0 -0.65278772982E+02 -0.46774649119E+01  0.84496772181E+02  0.10687797429E+03  0.00000000000E+00 0.  1.
        -13    1    4    4    0    0  0.45789430510E+02 -0.29484346798E+02  0.37339790284E+02  0.66032254172E+02  0.00000000000E+00 0.  1.
         13    1    4    4    0    0  0.50275118907E+02 -0.63384218452E+01 -0.51813447632E+02  0.72473419459E+02  0.00000000000E+00 0. -1.
          2    1    1    2  501    0  0.71265880474E+02 -0.53009178637E+02  0.40413082418E+02  0.97580817634E+02  0.00000000000E+00 0. -1.
<scales pt_clust_5="13000.00000" pt_clust_6="13000.00000" pt_clust_7="13000.00000" pt_clust_8="13000.00000" pt_clust_9="88.81891"></scales>
<clustering>
<clus scale="   79.964">  5  6 -1 -1</clus>
<clus scale="   88.819">  2  9  1 -1</clus>
<clus scale="   91.993">  7  8 -1 -1</clus>
<clus scale="  183.650">  1  5  2 -1</clus>
<clus scale="   88.819">  2  5  1 -1</clus>
</clustering>
</event>
<event>
 9    1  0.8429841E-005  0.1253331E+03  0.7546771E-02  0.1238473E+00
         21   -1    0    0  501  502  0.00000000000E+00  0.00000000000E+00  0.42957195443E+03  0.42957195443E+03  0.00000000000E+00 0.  1.
          1   -1    0    0  502    0 -0.00000000000E+00 -0.00000000000E+00 -0.11134544750E+03  0.11134544750E+03  0.00000000000E+00 0. -1.
        -24    2    1    2    0    0  0.64978997945E+02  0.10598116882E+02 -0.93034165184E+00  0.12252835702E+03  0.10333316255E+03 0.  0.
         23    2    1    2    0    0 -0.10036243981E+03 -0.12503508607E+02  0.34732986483E+03  0.37311943788E+03  0.91384478259E+02 0.  0.
         13    1    3    3    0    0  0.70548216430E+02  0.26503049115E+02 -0.36075561293E+02  0.83551831677E+02  0.00000000000E+00 0. -1.
        -14    1    3    3    0    0 -0.55692184856E+01 -0.15904932233E+02  0.35145219642E+02  0.38976525339E+02  0.00000000000E+00 0.  1.
        -13    1    4    4    0    0 -0.58043285704E+02  0.21238014869E+02  0.27995946683E+03  0.28670085344E+03  0.00000000000E+00 0.  1.
         13    1    4    4    0    0 -0.42319154106E+02 -0.33741523475E+02  0.67370397997E+02  0.86418584442E+02  0.00000000000E+00 0. -1.
          2    1    1    2  501    0  0.35383441865E+02  0.19053917249E+01 -0.28173016249E+02  0.45269607028E+02  0.00000000000E+00 0. -1.
<scales pt_clust_5="13000.00000" pt_clust_6="13000.00000" pt_clust_7="13000.00000" pt_clust_8="13000.00000" pt_clust_9="35.43472"></scales>
<clustering>
<clus scale="   35.435">  1  9  2 -1</clus>
<clus scale="   91.384">  7  8 -1 -1</clus>
<clus scale="  103.333">  5  6 -1 -1</clus>
<clus scale="  115.680">  1  7  2 -1</clus>
<clus scale="   35.435">  1  5  2 -1</clus>
</clustering>
</event>
<event>
 9    1  0.8429841E-005  0.1089735E+03  0.7546771E-02  0.1267381E+00
         21   -1    0    0  501  502  0.00000000000E+00  0.00000000000E+00  0.48025171860E+03  0.48025171860E+03  0.00000000000E+00 0.  1.
          3   -1    0    0  502    0 -0.00000000000E+00 -0.00000000000E+00 -0.13712876460E+03  0.13712876460E+03  0.00000000000E+00 0. -1.
        -24    2    1    2    0    0 -0.54971123690E+02  0.31430160029E+01 -0.94454623730E+02  0.13609185977E+03  0.81040825277E+02 0.  0.
         23    2    1    2    0    0  0.84100746192E+02  0.52718774653E+02  0.27093036461E+03  0.30313035615E+03  0.92911493595E+02 0.  0.
         13    1    3    3    0    0 -0.16675900261E+02  0.40829691638E+02 -0.46254640152E+02  0.63911197019E+02  0.00000000000E+00 0. -1.
        -14    1    3    3    0    0 -0.38295223429E+02 -0.37686675635E+02 -0.48199983577E+02  0.72180662748E+02  0.00000000000E+00 0.  1.
        -11    1    4    4    0    0  0.54907330441E+02  0.18268745366E+02  0.46592001513E+02  0.74292507014E+02  0.00000000000E+00 0. -1.
         11    1    4    4    0    0  0.29193415751E+02  0.34450029287E+02  0.22433836310E+03  0.22883784914E+03  0.00000000000E+00 0.  1.
          4    1    1    2  501    0 -0.29129622502E+02 -0.55861790656E+02  0.16664721312E+03  0.17815826729E+03  0.00000000000E+00 0. -1.
<scales pt_clust_5="13000.00000" pt_clust_6="13000.00000" pt_clust_7="13000.00000" pt_clust_8="13000.00000" pt_clust_9="63.00059"></scales>
<clustering>
<clus scale="   63.001">  1  9  2 -1</clus>
<clus scale="   81.041">  5  6 -1 -1</clus>
<clus scale="   92.911">  7  8 -1 -1</clus>
<clus scale="   99.047">  2  5  1 -1</clus>
<clus scale="   63.001">  1  5  2 -1</clus>
</clustering>
</event>
<event>
 9    1  0.8429841E-005  0.1320751E+03  0.7546771E-02  0.1239646E+00
          1   -1    0    0  502    0 -0.00000000000E+00  0.00000000000E+00  0.13906067654E+03  0.13906067654E+03  0.00000000000E+00 0. -1.
         21   -1    0    0  501  502  0.00000000000E+00 -0.00000000000E+00 -0.51623916971E+03  0.51623916971E+03  0.00000000000E+00 0. -1.
        -24    2    1    2    0    0  0.58308614475E+02  0.24470498029E+02 -0.27029172883E+02  0.10023656362E+03  0.72925254225E+02 0.  0.
         23    2    1    2    0    0  0.18471891914E+02  0.44060929730E+02  0.70633696653E+02  0.12187723704E+03  0.87076779264E+02 0.  0.
         11    1    3    3    0    0  0.69342760914E+02  0.24416471122E+01 -0.95763619940E+01  0.70043463940E+02  0.00000000000E+00 0. -1.
        -12    1    3    3    0    0 -0.11034146439E+02  0.22028850917E+02 -0.17452810889E+02  0.30193099679E+02  0.00000000000E+00 0.  1.
        -13    1    4    4    0    0  0.51548381517E+02  0.27061347128E+02  0.59053163090E+02  0.82926643585E+02  0.00000000000E+00 0. -1.
         13    1    4    4    0    0 -0.33076489604E+02  0.16999582603E+02  0.11580533563E+02  0.38950593458E+02  0.00000000000E+00 0.  1.
          2    1    1    2  501    0 -0.76780506388E+02 -0.68531427759E+02 -0.42078301694E+03  0.43318604559E+03  0.00000000000E+00 0. -1.
<scales pt_clust_5="13000.00000" pt_clust_6="13000.00000" pt_clust_7="13000.00000" pt_clust_8="13000.00000" pt_clust_9="99.30498"></scales>
<clustering>
<clus scale="   72.925">  5  6 -1 -1</clus>
<clus scale="   87.077">  7  8 -1 -1</clus>
<clus scale="   96.524">  1  5  2 -1</clus>
<clus scale="   99.305">  2  9  1 -1</clus>
<clus scale="   99.305">  2  5  1 -1</clus>
</clustering>
</event>
<event>
 9    1  0.8429841E-005  0.2603530E+03  0.7546771E-02  0.1129313E+00
          1   -1    0    0  502    0 -0.00000000000E+00  0.00000000000E+00  0.20175597582E+04  0.20175597582E+04  0.00000000000E+00 0. -1.
         21   -1    0    0  501  502  0.00000000000E+00 -0.00000000000E+00 -0.16649868645E+03  0.16649868645E+03  0.00000000000E+00 0.  1.
         23    2    1    2    0    0  0.69914815556E+02 -0.86667194523E+02 -0.13746376701E+02  0.14909469704E+03  0.98188501230E+02 0.  0.
        -24    2    1    2    0    0  0.21937474192E+03  0.10125173020E+03  0.15372298975E+03  0.29953550606E+03  0.87826940928E+02 0.  0.
         13    1    4    4    0    0  0.10162535866E+03  0.64102336196E+02  0.28104708148E+02  0.12339650582E+03  0.00000000000E+00 0. -1.
        -14    1    4    4    0    0  0.11774938325E+03  0.37149394001E+02  0.12561828160E+03  0.17613900024E+03  0.00000000000E+00 0.  1.
        -13    1    3    3    0    0  0.56958013172E+02 -0.33939384402E+02 -0.50657314430E+02  0.83440161694E+02  0.00000000000E+00 0.  1.
         13    1    3    3    0    0  0.12956802384E+02 -0.52727810121E+02  0.36910937729E+02  0.65654535351E+02  0.00000000000E+00 0. -1.
          2    1    1    2  501    0 -0.28928955747E+03 -0.14584535674E+02  0.17110844587E+04  0.17354282416E+04  0.00000000000E+00 0. -1.
<scales pt_clust_5="13000.00000" pt_clust_6="13000.00000" pt_clust_7="13000.00000" pt_clust_8="13000.00000" pt_clust_9="245.09221"></scales>
<clustering>
<clus scale="   87.827">  5  6 -1 -1</clus>
<clus scale="   98.189">  7  8 -1 -1</clus>
<clus scale="  148.460">  1  7  2 -1</clus>
<clus scale="  245.092">  2  9  1 -1</clus>
<clus scale="  245.092">  2  5  1 -1</clus>
</clustering>
</event>
<event>
 9    1  0.8429841E-005  0.1136643E+03  0.7546771E-02  0.1258779E+00
         21   -1    0    0  501  502  0.00000000000E+00  0.00000000000E+00  0.49286551378E+03  0.49286551378E+03  0.00000000000E+00 0.  1.
          1   -1    0    0  502    0 -0.00000000000E+00 -0.00000000000E+00 -0.39912876128E+02  0.39912876128E+02  0.00000000000E+00 0. -1.
         23    2    1    2    0    0  0.50792366531E+02 -0.48152448229E+02  0.85933455699E+02  0.14520499127E+03  0.93815819099E+02 0.  0.
        -24    2    1    2    0    0 -0.42017186710E+02  0.24288667616E+02  0.32538451528E+03  0.33878887983E+03  0.80916246584E+02 0.  0.
         11    1    4    4    0    0 -0.49952036487E+02 -0.16392628324E+02  0.16766986992E+03  0.17571883647E+03  0.00000000000E+00 0. -1.
        -12    1    4    4    0    0  0.79348497772E+01  0.40681295941E+02  0.15771464536E+03  0.16307004336E+03  0.00000000000E+00 0.  1.
        -11    1    3    3    0    0  0.16705507548E+02 -0.44041156054E+02 -0.56088562472E+01  0.47435816399E+02  0.00000000000E+00 0.  1.
         11    1    3    3    0    0  0.34086858983E+02 -0.41112921753E+01  0.91542311947E+02  0.97769174872E+02  0.00000000000E+00 0. -1.
          2    1    1    2  501    0 -0.87751798207E+01  0.23863780613E+02  0.41634666672E+02  0.48784518804E+02  0.00000000000E+00 0. -1.
<scales pt_clust_5="13000.00000" pt_clust_6="13000.00000" pt_clust_7="13000.00000" pt_clust_8="13000.00000" pt_clust_9="25.42605"></scales>
<clustering>
<clus scale="   25.426">  1  9  2 -1</clus>
<clus scale="   80.916">  5  6 -1 -1</clus>
<clus scale="   93.816">  7  8 -1 -1</clus>
<clus scale="  103.274">  1  5  2 -1</clus>
<clus scale="   25.426">  1  5  2 -1</clus>
</clustering>
</event>
<event>
 9    1  0.8429841E-005  0.1316336E+03  0.7546771E-02  0.1227710E+00
         21   -1    0    0  501  502  0.00000000000E+00  0.00000000000E+00  0.49982652931E+02  0.49982652931E+02  0.00000000000E+00 0. -1.
          1   -1    0    0  502    0 -0.00000000000E+00 -0.00000000000E+00 -0.73414850206E+03  0.73414850206E+03  0.00000000000E+00 0. -1.
        -24    2    1    2    0    0  0.93819559141E+02  0.66660016857E+02 -0.33651080548E+03  0.36468141797E+03  0.80668128047E+02 0.  0.
         23    2    1    2    0    0 -0.37469853480E+02 -0.31390241365E+02 -0.50869635485E+02  0.11531025440E+03  0.91210732824E+02 0.  0.
         11    1    3    3    0    0  0.80169192318E+02  0.10463796124E+02 -0.22466030279E+03  0.23876524470E+03  0.00000000000E+00 0. -1.
        -12    1    3    3    0    0  0.13650366823E+02  0.56196220733E+02 -0.11185050268E+03  0.12591617326E+03  0.00000000000E+00 0.  1.
        -11    1    4    4    0    0  0.19736454946E+01  0.24495524778E+02 -0.38684261479E+02  0.45830100337E+02  0.00000000000E+00 0.  1.
         11    1    4    4    0    0 -0.39443498974E+02 -0.55885766143E+02 -0.12185374006E+02  0.69480154062E+02  0.00000000000E+00 0. -1.
          2    1    1    2  501    0 -0.56349705662E+02 -0.35269775492E+02 -0.29678540817E+03  0.30413948263E+03  0.00000000000E+00 0. -1.
<scales pt_clust_5="13000.00000" pt_clust_6="13000.00000" pt_clust_7="13000.00000" pt_clust_8="13000.00000" pt_clust_9="66.47745"></scales>
<clustering>
<clus scale="   66.477">  1  9  2 -1</clus>
<clus scale="   80.668">  5  6 -1 -1</clus>
<clus scale="   91.211">  7  8 -1 -1</clus>
<clus scale="  124.561">  2  5  1 -1</clus>
<clus scale="   66.477">  1  5  2 -1</clus>
</clustering>
</event>
<event>
 9    1  0.8429841E-005  0.9696229E+02  0.7546771E-02  0.1293690E+00
         21   -1    0    0  501  502  0.00000000000E+00  0.00000000000E+00  0.27409057263E+03  0.27409057263E+03  0.00000000000E+00 0. -1.
         -2   -1    0    0    0  501 -0.00000000000E+00 -0.00000000000E+00 -0.94683382372E+02  0.94683382372E+02  0.00000000000E+00 0.  1.
         23    2    1    2    0    0 -0.16110874492E+02 -0.25428179559E+02 -0.31851442984E+02  0.10229600313E+03  0.92432706572E+02 0.  0.
        -24    2    1    2    0    0 -0.37379801266E+02  0.40601462871E+02  0.87547918232E+02  0.13084675366E+03  0.80065639487E+02 0.  0.
         11    1    4    4    0    0 -0.58682289563E+02  0.35783112392E+02  0.42571509143E+02  0.80847854836E+02  0.00000000000E+00 0. -1.
        -12    1    4    4    0    0  0.21302488297E+02  0.48183504786E+01  0.44976409089E+02  0.49998898823E+02  0.00000000000E+00 0.  1.
        -13    1    3    3    0    0  0.23189771848E+02 -0.46014574078E+02 -0.87145307614E+01  0.52259445006E+02  0.00000000000E+00 0.  1.
         13    1    3    3    0    0 -0.39300646339E+02  0.20586394519E+02 -0.23136912223E+02  0.50036558127E+02  0.00000000000E+00 0. -1.
         -1    1    1    2    0  502  0.53490675758E+02 -0.15173283311E+02  0.12371071501E+03  0.13563119821E+03  0.00000000000E+00 0.  1.
<scales pt_clust_5="13000.00000" pt_clust_6="13000.00000" pt_clust_7="13000.00000" pt_clust_8="13000.00000" pt_clust_9="55.60109"></scales>
<clustering>
<clus scale="   55.601">  1  9  2 -1</clus>
<clus scale="   80.066">  5  6 -1 -1</clus>
<clus scale="   85.255">  1  5  2 -1</clus>
<clus scale="   92.433">  7  8 -1 -1</clus>
<clus scale="   55.601">  1  5  2 -1</clus>
</clustering>
</event>
<event>
 9    1  0.8429841E-005  0.9242126E+02  0.7546771E-02  0.1305555E+00
         21   -1    0    0  501  502  0.00000000000E+00  0.00000000000E+00  0.12194445370E+03  0.12194445370E+03  0.00000000000E+00 0. -1.
         -4   -1    0    0    0  501 -0.00000000000E+00 -0.00000000000E+00 -0.20380779838E+03  0.20380779838E+03  0.00000000000E+00 0.  1.
        -24    2    1    2    0    0 -0.65133557260E+01 -0.53692010106E+01 -0.16014548885E+03  0.17865121792E+03  0.78730095532E+02 0.  0.
         23    2    1    2    0    0 -0.19296727953E+02  0.16250970744E+02  0.68113483432E+02  0.11730212489E+03  0.92108002471E+02 0.  0.
         13    1    3    3    0    0  0.29763567801E+02 -0.24109168142E+02 -0.80589986194E+02  0.89229299176E+02  0.00000000000E+00 0. -1.
        -14    1    3    3    0    0 -0.36276923527E+02  0.18739967131E+02 -0.79555502658E+02  0.89421918744E+02  0.00000000000E+00 0.  1.
        -11    1    4    4    0    0 -0.52976078569E+02  0.26387871924E+02  0.51278888137E+02  0.78309061122E+02  0.00000000000E+00 0. -1.
         11    1    4    4    0    0  0.33679350616E+02 -0.10136901180E+02  0.16834595295E+02  0.38993063771E+02  0.00000000000E+00 0.  1.
         -3    1    1    2    0  502  0.25810083679E+02 -0.10881769734E+02  0.10168660744E+02  0.29798909265E+02  0.00000000000E+00 0.  1.
<scales pt_clust_5="13000.00000" pt_clust_6="13000.00000" pt_clust_7="13000.00000" pt_clust_8="13000.00000" pt_clust_9="28.01024"></scales>
<clustering>
<clus scale="   28.010">  1  9  2 -1</clus>
<clus scale="   78.730">  5  6 -1 -1</clus>
<clus scale="   79.096">  2  5  1 -1</clus>
<clus scale="   92.108">  7  8 -1 -1</clus>
<clus scale="   28.010">  1  5  2 -1</clus>
</clustering>
</event>
<event>
 9    1  0.8429841E-005  0.9166983E+02  0.7546771E-02  0.1306959E+00
         21   -1    0    0  501  502  0.00000000000E+00  0.00000000000E+00  0.11521876030E+02  0.11521876030E+02  0.00000000000E+00 0.  1.
         -4   -1    0    0    0  501 -0.00000000000E+00 -0.00000000000E+00 -0.13170988475E+04  0.13170988475E+04  0.00000000000E+00 0.  1.
        -24    2    1    2    0    0 -0.11083142749E+02 -0.69051418814E+01 -0.93382080844E+03  0.93720808449E+03  0.78531358818E+02 0.  0.
         23    2    1    2    0    0 -0.18121662684E+02  0.44923657547E+01 -0.27949549383E+03  0.29460988479E+03  0.91261586311E+02 0.  0.
         11    1    3    3    0    0  0.24897159339E+02  0.11241891536E+01 -0.12040442029E+03  0.12295672722E+03  0.00000000000E+00 0. -1.
        -12    1    3    3    0    0 -0.35980302088E+02 -0.80293310350E+01 -0.81341638816E+03  0.81425135727E+03  0.00000000000E+00 0.  1.
        -11    1    4    4    0    0  0.29927865537E+02  0.67084311898E+01 -0.40395480825E+02  0.50719572709E+02  0.00000000000E+00 0.  1.
         11    1    4    4    0    0 -0.48049528221E+02 -0.22160654350E+01 -0.23910001300E+03  0.24389031208E+03  0.00000000000E+00 0. -1.
         -3    1    1    2    0  502  0.29204805432E+02  0.24127761267E+01 -0.92260669167E+02  0.96802754217E+02  0.00000000000E+00 0.  1.
<scales pt_clust_5="13000.00000" pt_clust_6="13000.00000" pt_clust_7="13000.00000" pt_clust_8="13000.00000" pt_clust_9="29.30430"></scales>
<clustering>
<clus scale="   29.304">  1  9  2 -1</clus>
<clus scale="   78.531">  5  6 -1 -1</clus>
<clus scale="   79.005">  2  5  1 -1</clus>
<clus scale="   91.262">  7  8 -1 -1</clus>
<clus scale="   29.304">  1  5  2 -1</clus>
</clustering>
</event>
<event>
 9    1  0.8429841E-005  0.9639573E+02  0.7546771E-02  0.1294047E+00
          3   -1    0    0  502    0 -0.00000000000E+00  0.00000000000E+00  0.60879808331E+03  0.60879808331E+03  0.00000000000E+00 0. -1.
         21   -1    0    0  501  502  0.00000000000E+00 -0.00000000000E+00 -0.25317807049E+02  0.25317807049E+02  0.00000000000E+00 0.  1.
        -24    2    1    2    0    0 -0.37824244470E+02 -0.33250662563E+02  0.27065126079E+03  0.28689256002E+03  0.80740052011E+02 0.  0.
         23    2    1    2    0    0  0.14236124399E+02 -0.17799671067E+02  0.19021846940E+03  0.21233121797E+03  0.91553178500E+02 0.  0.
         13    1    3    3    0    0 -0.59030997203E+02 -0.30695146251E+02  0.24304478863E+03  0.25198734078E+03  0.00000000000E+00 0. -1.
        -14    1    3    3    0    0  0.21206752733E+02 -0.25555163124E+01  0.27606472155E+02  0.34905219236E+02  0.00000000000E+00 0.  1.
        -13    1    4    4    0    0 -0.18480088326E+02 -0.31438157417E+02  0.27174331845E+02  0.45478739181E+02  0.00000000000E+00 0.  1.
         13    1    4    4    0    0  0.32716212724E+02  0.13638486350E+02  0.16304413756E+03  0.16685247878E+03  0.00000000000E+00 0. -1.
          4    1    1    2  501    0  0.23588120071E+02  0.51050333630E+02  0.12261054607E+03  0.13489211237E+03  0.00000000000E+00 0. -1.
<scales pt_clust_5="13000.00000" pt_clust_6="13000.00000" pt_clust_7="13000.00000" pt_clust_8="13000.00000" pt_clust_9="56.23643"></scales>
<clustering>
<clus scale="   56.236">  2  9  1 -1</clus>
<clus scale="   80.740">  5  6 -1 -1</clus>
<clus scale="   86.192">  1  5  2 -1</clus>
<clus scale="   91.553">  7  8 -1 -1</clus>
<clus scale="   56.236">  2  5  1 -1</clus>
</clustering>
</event>
<event>
 9    1  0.8429841E-005  0.3645141E+03  0.7546771E-02  0.1093771E+00
         21   -1    0    0  501  502  0.00000000000E+00  0.00000000000E+00  0.10723696688E+04  0.10723696688E+04  0.00000000000E+00 0. -1.
          3   -1    0    0  502    0 -0.00000000000E+00 -0.00000000000E+00 -0.29052376889E+03  0.29052376889E+03  0.00000000000E+00 0. -1.
        -24    2    1    2    0    0 -0.10497778712E+03  0.14650498007E+01 -0.87193838619E+02  0.15940995470E+03  0.82378917226E+02 0.  0.
         23    2    1    2    0    0 -0.11753372548E+03 -0.29330245881E+03  0.88915572740E+02  0.34134998950E+03  0.93666041285E+02 0.  0.
         13    1    3    3    0    0 -0.98326571462E+02  0.92757879099E+01 -0.32815190396E+02  0.10407205013E+03  0.00000000000E+00 0. -1.
        -14    1    3    3    0    0 -0.66512156586E+01 -0.78107381092E+01 -0.54378648223E+02  0.55337904569E+02  0.00000000000E+00 0.  1.
        -13    1    4    4    0    0 -0.66635598971E+02 -0.79231492054E+02 -0.12990976414E+01  0.10353559793E+03  0.00000000000E+00 0.  1.
         13    1    4    4    0    0 -0.50898126511E+02 -0.21407096675E+03  0.90214670381E+02  0.23781439158E+03  0.00000000000E+00 0. -1.
          4    1    1    2  501    0  0.22251151260E+03  0.29183740901E+03  0.78012416576E+03  0.86213349346E+03  0.00000000000E+00 0. -1.
<scales pt_clust_5="13000.00000" pt_clust_6="13000.00000" pt_clust_7="13000.00000" pt_clust_8="13000.00000" pt_clust_9="352.27438"></scales>
<clustering>
<clus scale="   82.379">  5  6 -1 -1</clus>
<clus scale="   93.666">  7  8 -1 -1</clus>
<clus scale="  133.449">  2  5  1 -1</clus>
<clus scale="  352.274">  1  9  2 -1</clus>
<clus scale="  352.274">  1  5  2 -1</clus>
</clustering>
</event>
<event>
 9    1  0.8429841E-005  0.1405016E+03  0.7546771E-02  0.1221782E+00
         21   -1    0    0  501  502  0.00000000000E+00  0.00000000000E+00  0.11064993669E+03  0.11064993669E+03  0.00000000000E+00 0. -1.
          1   -1    0    0  502    0 -0.00000000000E+00 -0.00000000000E+00 -0.34720834855E+03  0.34720834855E+03  0.00000000000E+00 0. -1.
         23    2    1    2    0    0  0.56574505960E+02  0.38505929185E+02 -0.73070832802E+02  0.13700887895E+03  0.93534512332E+02 0.  0.
        -24    2    1    2    0    0 -0.41006074600E+02  0.99578287660E+02 -0.53128737394E+02  0.14339884718E+03  0.78378779703E+02 0.  0.
         11    1    4    4    0    0 -0.26714897269E+02 -0.11813765112E+01 -0.27700689988E+02  0.38502072833E+02  0.00000000000E+00 0. -1.
        -12    1    4    4    0    0 -0.14291177331E+02  0.10075966417E+03 -0.25428047406E+02  0.10489677435E+03  0.00000000000E+00 0.  1.
        -13    1    3    3    0    0  0.38682350058E+02  0.68652410610E+02 -0.38231310273E+02  0.87584877540E+02  0.00000000000E+00 0. -1.
         13    1    3    3    0    0  0.17892155902E+02 -0.30146481425E+02 -0.34839522529E+02  0.49424001408E+02  0.00000000000E+00 0.  1.
          2    1    1    2  501    0 -0.15568431360E+02 -0.13808421684E+03 -0.11035884167E+03  0.17745055912E+03  0.00000000000E+00 0. -1.
<scales pt_clust_5="13000.00000" pt_clust_6="13000.00000" pt_clust_7="13000.00000" pt_clust_8="13000.00000" pt_clust_9="116.60823"></scales>
<clustering>
<clus scale="   78.379">  5  6 -1 -1</clus>
<clus scale="   93.535">  7  8 -1 -1</clus>
<clus scale="  115.897">  2  7  1 -1</clus>
<clus scale="  116.608">  1  9  2 -1</clus>
<clus scale="  116.608">  1  5  2 -1</clus>
</clustering>
</event>
<event>
 9    1  0.8429841E-005  0.1662428E+03  0.7546771E-02  0.1197132E+00
          1   -1    0    0  502    0 -0.00000000000E+00  0.00000000000E+00  0.91079291304E+03  0.91079291304E+03  0.00000000000E+00 0. -1.
         21   -1    0    0  501  502  0.00000000000E+00 -0.00000000000E+00 -0.10438991975E+03  0.10438991975E+03  0.00000000000E+00 0. -1.
        -24    2    1    2    0    0  0.30672909381E+02 -0.82943384429E+02  0.11561626561E+03  0.16555639755E+03  0.78875645828E+02 0.  0.
         23    2    1    2    0    0 -0.10416450916E+03 -0.87704459513E+02  0.32814097729E+02  0.16592351463E+03  0.88946784707E+02 0.  0.
         11    1    3    3    0    0 -0.11680801663E+02 -0.66205671213E+02  0.92874029419E+02  0.11465259425E+03  0.00000000000E+00 0. -1.
        -12    1    3    3    0    0  0.42353711044E+02 -0.16737713216E+02  0.22742236192E+02  0.50903803296E+02  0.00000000000E+00 0.  1.
        -13    1    4    4    0    0 -0.18982498240E+02 -0.69767246994E+02 -0.15908733324E+01  0.72321054131E+02  0.00000000000E+00 0.  1.
         13    1    4    4    0    0 -0.85182010921E+02 -0.17937212519E+02  0.34404971062E+02  0.93602460498E+02  0.00000000000E+00 0. -1.
          2    1    1    2  501    0  0.73491599780E+02  0.17064784394E+03  0.65797262995E+03  0.68370292060E+03  0.00000000000E+00 0. -1.
<scales pt_clust_5="13000.00000" pt_clust_6="13000.00000" pt_clust_7="13000.00000" pt_clust_8="13000.00000" pt_clust_9="140.44623"></scales>
<clustering>
<clus scale="   78.876">  5  6 -1 -1</clus>
<clus scale="   88.947">  7  8 -1 -1</clus>
<clus scale="  118.498">  1  5  2 -1</clus>
<clus scale="  140.446">  2  9  1 -1</clus>
<clus scale="  140.446">  2  5  1 -1</clus>
</clustering>
</event>
<event>
 9    1  0.8429841E-005  0.9533902E+02  0.7546771E-02  0.1295388E+00
          3   -1    0    0  502    0 -0.00000000000E+00  0.00000000000E+00  0.11842482761E+03  0.11842482761E+03  0.00000000000E+00 0. -1.
         21   -1    0    0  501  502  0.00000000000E+00 -0.00000000000E+00 -0.26079907655E+03  0.26079907655E+03  0.00000000000E+00 0.  1.
         23    2    1    2    0    0 -0.22485945616E+02  0.28048345150E+02  0.50719791094E+02  0.11091496292E+03  0.91854800497E+02 0.  0.
        -24    2    1    2    0    0 -0.19593624984E+01  0.44344504054E+02 -0.15864941243E+03  0.18449527842E+03  0.83057796469E+02 0.  0.
         11    1    4    4    0    0 -0.15872274214E+02  0.56478540846E+02 -0.59193074261E+02  0.83340114622E+02  0.00000000000E+00 0. -1.
        -12    1    4    4    0    0  0.13912911715E+02 -0.12134036792E+02 -0.99456338169E+02  0.10115516380E+03  0.00000000000E+00 0.  1.
        -11    1    3    3    0    0  0.36115475770E+01  0.48066252535E+02  0.59786644566E+02  0.76797465955E+02  0.00000000000E+00 0. -1.
         11    1    3    3    0    0 -0.26097493193E+02 -0.20017907385E+02 -0.90668534723E+01  0.34117496961E+02  0.00000000000E+00 0.  1.
          4    1    1    2  501    0  0.24445308115E+02 -0.72392849204E+02 -0.34444627609E+02  0.83813662824E+02  0.00000000000E+00 0. -1.
<scales pt_clust_5="13000.00000" pt_clust_6="13000.00000" pt_clust_7="13000.00000" pt_clust_8="13000.00000" pt_clust_9="76.40875"></scales>
<clustering>
<clus scale="   76.409">  2  9  1 -1</clus>
<clus scale="   83.058">  5  6 -1 -1</clus>
<clus scale="   86.895">  2  5  1 -1</clus>
<clus scale="   91.855">  7  8 -1 -1</clus>
<clus scale="   76.409">  2  5  1 -1</clus>
</clustering>
</event>
<event>
 9    1  0.8429841E-005  0.9942675E+02  0.7546771E-02  0.1285697E+00
         21   -1    0    0  501  502  0.00000000000E+00  0.00000000000E+00  0.24181312119E+02  0.24181312119E+02  0.00000000000E+00 0.  1.
          3   -1    0    0  502    0 -0.00000000000E+00 -0.00000000000E+00 -0.87222838394E+03  0.87222838394E+03  0.00000000000E+00 0. -1.
        -24    2    1    2    0    0 -0.55922282945E+02  0.16689961112E+02 -0.40415786948E+03  0.41660735953E+03  0.82536367827E+02 0.  0.
         23    2    1    2    0    0 -0.12896592633E+02 -0.30052143082E+02 -0.15588967234E+03  0.18339330357E+03  0.90895876954E+02 0.  0.
         11    1    3    3    0    0 -0.58352930612E+02 -0.13276024271E+02 -0.34601090857E+03  0.35114792635E+03  0.00000000000E+00 0. -1.
        -12    1    3    3    0    0  0.24306476668E+01  0.29965985383E+02 -0.58146960912E+02  0.65459433173E+02  0.00000000000E+00 0.  1.
        -11    1    4    4    0    0 -0.34455775744E+02 -0.34507236073E+02 -0.33795565046E+02  0.59330346706E+02  0.00000000000E+00 0.  1.
         11    1    4    4    0    0  0.21559183111E+02  0.44550929917E+01 -0.12209410730E+03  0.12406295687E+03  0.00000000000E+00 0. -1.
          4    1    1    2  501    0  0.68818875578E+02  0.13362181970E+02 -0.28799952999E+03  0.29640903296E+03  0.00000000000E+00 0. -1.
<scales pt_clust_5="13000.00000" pt_clust_6="13000.00000" pt_clust_7="13000.00000" pt_clust_8="13000.00000" pt_clust_9="70.10414"></scales>
<clustering>
<clus scale="   70.104">  1  9  2 -1</clus>
<clus scale="   82.536">  5  6 -1 -1</clus>
<clus scale="   90.896">  7  8 -1 -1</clus>
<clus scale="   91.847">  2  5  1 -1</clus>
<clus scale="   70.104">  1  5  2 -1</clus>
</clustering>
</event>
<event>
 9    1  0.8429841E-005  0.9151106E+02  0.7546771E-02  0.1305353E+00
          1   -1    0    0  502    0 -0.00000000000E+00  0.00000000000E+00  0.62553163555E+03  0.62553163555E+03  0.00000000000E+00 0. -1.
         21   -1    0    0  501  502  0.00000000000E+00 -0.00000000000E+00 -0.20792040530E+02  0.20792040530E+02  0.00000000000E+00 0.  1.
         23    2    1    2    0    0 -0.40071646047E+01  0.24791432180E+01  0.34475250309E+03  0.35653185932E+03  0.90766044331E+02 0.  0.
        -24    2    1    2    0    0 -0.34249720165E+02 -0.11399957680E+02  0.18520940213E+03  0.20532363899E+03  0.80946103841E+02 0.  0.
         13    1    4    4    0    0  0.11036747624E+02 -0.33477403012E+02  0.51238832428E+02  0.62192959884E+02  0.00000000000E+00 0. -1.
        -14    1    4    4    0    0 -0.45286467789E+02  0.22077445331E+02  0.13397056970E+03  0.14313067911E+03  0.00000000000E+00 0.  1.
        -13    1    3    3    0    0 -0.15498572551E+01  0.45777551859E+02  0.21137711658E+03  0.21628285120E+03  0.00000000000E+00 0.  1.
         13    1    3    3    0    0 -0.24573073496E+01 -0.43298408641E+02  0.13337538651E+03  0.14024900812E+03  0.00000000000E+00 0. -1.
          2    1    1    2  501    0  0.38256884770E+02  0.89208144621E+01  0.74777689801E+02  0.84468177765E+02  0.00000000000E+00 0. -1.
<scales pt_clust_5="13000.00000" pt_clust_6="13000.00000" pt_clust_7="13000.00000" pt_clust_8="13000.00000" pt_clust_9="39.28320"></scales>
<clustering>
<clus scale="   39.283">  2  9  1 -1</clus>
<clus scale="   80.946">  5  6 -1 -1</clus>
<clus scale="   81.781">  2  5  1 -1</clus>
<clus scale="   90.766">  7  8 -1 -1</clus>
<clus scale="   39.283">  2  5  1 -1</clus>
</clustering>
</event>
<event>
 9    1  0.9835373E-005  0.1276972E+03  0.7546771E-02  0.1250395E+00
         21   -1    0    0  501  502  0.00000000000E+00  0.00000000000E+00  0.56813681389E+03  0.56813681389E+03  0.00000000000E+00 0. -1.
          1   -1    0    0  502    0 -0.00000000000E+00 -0.00000000000E+00 -0.25377734809E+03  0.25377734809E+03  0.00000000000E+00 0. -1.
        -24    2    1    2    0    0 -0.12422004078E+02  0.23861742145E+02 -0.22023203326E+03  0.23642963003E+03  0.81689243821E+02 0.  0.
         23    2    1    2    0    0 -0.81722722982E+02 -0.24945264308E+02  0.17779428404E+03  0.21647415769E+03  0.89159317232E+02 0.  0.
         13    1    3    3    0    0 -0.42823110266E+02  0.93592932855E+00 -0.15586778455E+03  0.16164609800E+03  0.00000000000E+00 0. -1.
        -14    1    3    3    0    0  0.30401106188E+02  0.22925812817E+02 -0.64364248712E+02  0.74783532031E+02  0.00000000000E+00 0.  1.
        -13    1    4    4    0    0 -0.16672379470E+02 -0.44741014962E+02  0.11246355006E+03  0.12217928118E+03  0.00000000000E+00 0.  1.
         13    1    4    4    0    0 -0.65050343512E+02  0.19795750654E+02  0.65330733981E+02  0.94294876518E+02  0.00000000000E+00 0. -1.
          2    1    1    2  501    0  0.94144727060E+02  0.10835221627E+01  0.35679721503E+03  0.36901037426E+03  0.00000000000E+00 0. -1.
<scales pt_clust_5="13000.00000" pt_clust_6="13000.00000" pt_clust_7="13000.00000" pt_clust_8="13000.00000" pt_clust_9="91.41772"></scales>
<clustering>
<clus scale="   81.689">  5  6 -1 -1</clus>
<clus scale="   86.005">  2  5  1 -1</clus>
<clus scale="   89.159">  7  8 -1 -1</clus>
<clus scale="   91.418">  1  9  2 -1</clus>
<clus scale="   91.418">  1  5  2 -1</clus>
</clustering>
</event>
<event>
 9    1  0.8429841E-005  0.1490315E+03  0.7546771E-02  0.1207140E+00
         21   -1    0    0  501  502  0.00000000000E+00  0.00000000000E+00  0.28148074729E+03  0.28148074729E+03  0.00000000000E+00 0. -1.
          1   -1    0    0  502    0 -0.00000000000E+00 -0.00000000000E+00 -0.16857517640E+03  0.16857517640E+03  0.00000000000E+00 0. -1.
         23    2    1    2    0    0 -0.10040788116E+03  0.17550248383E+01 -0.71676768555E+02  0.16259764444E+03  0.10590378707E+03 0.  0.
        -24    2    1    2    0    0  0.11426836797E+03  0.12814087095E+02  0.46757913139E+02  0.14817459533E+03  0.80919388994E+02 0.  0.
         13    1    4    4    0    0  0.91404701244E+02  0.18656660974E+02 -0.27503364221E+01  0.93329817094E+02  0.00000000000E+00 0. -1.
        -14    1    4    4    0    0  0.22863666723E+02 -0.58425738793E+01  0.49508249562E+02  0.54844778240E+02  0.00000000000E+00 0.  1.
        -11    1    3    3    0    0 -0.91483789698E+02  0.40565527939E+02 -0.71117736499E+02  0.12277042917E+03  0.00000000000E+00 0.  1.
         11    1    3    3    0    0 -0.89240914596E+01 -0.38810503100E+02 -0.55903205678E+00  0.39827215270E+02  0.00000000000E+00 0. -1.
          2    1    1    2  501    0 -0.13860486810E+02 -0.14569111933E+02  0.13782442630E+03  0.13928368391E+03  0.00000000000E+00 0. -1.
<scales pt_clust_5="13000.00000" pt_clust_6="13000.00000" pt_clust_7="13000.00000" pt_clust_8="13000.00000" pt_clust_9="20.10901"></scales>
<clustering>
<clus scale="   20.109">  1  9  2 -1</clus>
<clus scale="   80.919">  5  6 -1 -1</clus>
<clus scale="  105.904">  7  8 -1 -1</clus>
<clus scale="  132.449">  1  5  2 -1</clus>
<clus scale="   20.109">  1  5  2 -1</clus>
</clustering>
</event>
<event>
 9    1  0.8429841E-005  0.1011408E+03  0.7546771E-02  0.1283564E+00
          3   -1    0    0  502    0 -0.00000000000E+00  0.00000000000E+00  0.60953429575E+03  0.60953429575E+03  0.00000000000E+00 0. -1.
         21   -1    0    0  501  502  0.00000000000E+00 -0.00000000000E+00 -0.42941441316E+02  0.42941441316E+02  0.00000000000E+00 0. -1.
        -24    2    1    2    0    0 -0.11035768910E+02 -0.26986751918E+02  0.13185719662E+03  0.15783159865E+03  0.81697125158E+02 0.  0.
         23    2    1    2    0    0  0.79508185067E+02  0.84627816330E+01  0.11849392752E+03  0.17054470733E+03  0.93013526827E+02 0.  0.
         11    1    3    3    0    0 -0.22180898387E+02 -0.51784474954E+02  0.67190493306E+02  0.87682304316E+02  0.00000000000E+00 0. -1.
        -12    1    3    3    0    0  0.11145129476E+02  0.24797723036E+02  0.64666703310E+02  0.70149294336E+02  0.00000000000E+00 0.  1.
        -11    1    4    4    0    0  0.59188222156E+02  0.38336893939E+02  0.11412091790E+03  0.13415120940E+03  0.00000000000E+00 0. -1.
         11    1    4    4    0    0  0.20319962911E+02 -0.29874112306E+02  0.43730096186E+01  0.36393497935E+02  0.00000000000E+00 0.  1.
          4    1    1    2  501    0 -0.68472416156E+02  0.18523970285E+02  0.31624173029E+03  0.32409943108E+03  0.00000000000E+00 0. -1.
<scales pt_clust_5="13000.00000" pt_clust_6="13000.00000" pt_clust_7="13000.00000" pt_clust_8="13000.00000" pt_clust_9="70.93387"></scales>
<clustering>
<clus scale="   70.934">  2  9  1 -1</clus>
<clus scale="   81.697">  5  6 -1 -1</clus>
<clus scale="   90.843">  1  5  2 -1</clus>
<clus scale="   93.014">  7  8 -1 -1</clus>
<clus scale="   70.934">  2  5  1 -1</clus>
</clustering>
</event>
<event>
 9    1  0.8429841E-005  0.1078953E+03  0.7546771E-02  0.1270583E+00
          3   -1    0    0  502    0 -0.00000000000E+00  0.00000000000E+00  0.91233825307E+02  0.91233825307E+02  0.00000000000E+00 0. -1.
         21   -1    0    0  501  502  0.00000000000E+00 -0.00000000000E+00 -0.24070623692E+03  0.24070623692E+03  0.00000000000E+00 0.  1.
        -24    2    1    2    0    0 -0.34629108272E+01 -0.50357220439E+02  0.16229886738E+01  0.90910353206E+02  0.75592438948E+02 0.  0.
         23    2    1    2    0    0  0.47269532309E+02  0.82011042121E+02 -0.12525381406E+03  0.18112334800E+03  0.90315721436E+02 0.  0.
         11    1    3    3    0    0  0.20989630162E+02 -0.52655767850E+02 -0.17999185986E+02  0.59474071311E+02  0.00000000000E+00 0. -1.
        -12    1    3    3    0    0 -0.24452540989E+02  0.22985474112E+01  0.19622174660E+02  0.31436281895E+02  0.00000000000E+00 0.  1.
        -13    1    4    4    0    0  0.16332699253E+02  0.70969907056E+02 -0.12892437065E+03  0.14807085507E+03  0.00000000000E+00 0.  1.
         13    1    4    4    0    0  0.30936833056E+02  0.11041135065E+02  0.36705565931E+01  0.33052492928E+02  0.00000000000E+00 0. -1.
          4    1    1    2  501    0 -0.43806621482E+02 -0.31653821682E+02 -0.25841586230E+02  0.59906361028E+02  0.00000000000E+00 0. -1.
<scales pt_clust_5="13000.00000" pt_clust_6="13000.00000" pt_clust_7="13000.00000" pt_clust_8="13000.00000" pt_clust_9="54.04616"></scales>
<clustering>
<clus scale="   54.046">  2  9  1 -1</clus>
<clus scale="   75.592">  5  6 -1 -1</clus>
<clus scale="   90.316">  7  8 -1 -1</clus>
<clus scale="   95.910">  1  5  2 -1</clus>
<clus scale="   54.046">  2  5  1 -1</clus>
</clustering>
</event>
<event>
 9    1  0.1009219E-004  0.9301883E+02  0.7546771E-02  0.1302227E+00
          1   -1    0    0  502    0 -0.00000000000E+00  0.00000000000E+00  0.18230258250E+03  0.18230258250E+03  0.00000000000E+00 0. -1.
         21   -1    0    0  501  502  0.00000000000E+00 -0.00000000000E+00 -0.22907330651E+03  0.22907330651E+03  0.00000000000E+00 0.  1.
         23    2    1    2    0    0 -0.22294902113E+02  0.25441691789E+01  0.14753593834E+03  0.17494561190E+03  0.91299389720E+02 0.  0.
        -24    2    1    2    0    0 -0.26554712922E+02 -0.73377412729E+01 -0.11304551532E+03  0.14149536657E+03  0.80514936510E+02 0.  0.
         11    1    4    4    0    0 -0.40396557273E+02 -0.25104099877E+02 -0.31866560166E+02  0.57250112026E+02  0.00000000000E+00 0. -1.
        -12    1    4    4    0    0  0.13841844351E+02  0.17766358604E+02 -0.81178955156E+02  0.84245254545E+02  0.00000000000E+00 0.  1.
        -11    1    3    3    0    0  0.24582056460E+02 -0.21838062385E+02  0.24381372369E+02  0.40934457210E+02  0.00000000000E+00 0.  1.
         11    1    3    3    0    0 -0.46876958572E+02  0.24382231564E+02  0.12315456597E+03  0.13401115469E+03  0.00000000000E+00 0. -1.
          2    1    1    2  501    0  0.48849615035E+02  0.47935720940E+01 -0.81261147027E+02  0.94934910537E+02  0.00000000000E+00 0. -1.
<scales pt_clust_5="13000.00000" pt_clust_6="13000.00000" pt_clust_7="13000.00000" pt_clust_8="13000.00000" pt_clust_9="49.08425"></scales>
<clustering>
<clus scale="   49.084">  2  9  1 -1</clus>
<clus scale="   80.515">  5  6 -1 -1</clus>
<clus scale="   82.460">  2  5  1 -1</clus>
<clus scale="   91.299">  7  8 -1 -1</clus>
<clus scale="   49.084">  2  5  1 -1</clus>
</clustering>
</event>
<event>
 9    1  0.8429841E-005  0.1641615E+03  0.7546771E-02  0.1184482E+00
          3   -1    0    0  502    0 -0.00000000000E+00  0.00000000000E+00  0.76789404529E+03  0.76789404529E+03  0.00000000000E+00 0. -1.
         21   -1    0    0  501  502  0.00000000000E+00 -0.00000000000E+00 -0.64242749384E+02  0.64242749384E+02  0.00000000000E+00 0. -1.
        -24    2    1    2    0    0 -0.17258902927E+02 -0.15399953462E+03  0.35257017709E+03  0.39488657939E+03  0.87269435749E+02 0.  0.
         23    2    1    2    0    0 -0.49411509113E+02  0.10811900851E+03  0.11684780218E+03  0.18942928571E+03  0.89993489619E+02 0.  0.
         13    1    3    3    0    0  0.13750718952E+02 -0.13285970568E+03  0.31321101752E+03  0.34050245984E+03  0.00000000000E+00 0. -1.
        -14    1    3    3    0    0 -0.31009621878E+02 -0.21139828939E+02  0.39359159573E+02  0.54384119547E+02  0.00000000000E+00 0.  1.
        -13    1    4    4    0    0  0.23600335325E+02  0.37166276994E+02  0.54442503945E+02  0.70016385288E+02  0.00000000000E+00 0.  1.
         13    1    4    4    0    0 -0.73011844438E+02  0.70952731517E+02  0.62405298240E+02  0.11941290042E+03  0.00000000000E+00 0. -1.
          4    1    1    2  501    0  0.66670412039E+02  0.45880526104E+02  0.23423331663E+03  0.24782092958E+03  0.00000000000E+00 0. -1.
<scales pt_clust_5="13000.00000" pt_clust_6="13000.00000" pt_clust_7="13000.00000" pt_clust_8="13000.00000" pt_clust_9="80.93190"></scales>
<clustering>
<clus scale="   80.932">  2  9  1 -1</clus>
<clus scale="   87.269">  5  6 -1 -1</clus>
<clus scale="   89.993">  7  8 -1 -1</clus>
<clus scale="  162.684">  1  5  2 -1</clus>
<clus scale="   80.932">  2  5  1 -1</clus>
</clustering>
</event>
<event>
 9    1  0.8429841E-005  0.9406942E+02  0.7546771E-02  0.1300531E+00
         21   -1    0    0  501  502  0.00000000000E+00  0.00000000000E+00  0.15551231420E+03  0.15551231420E+03  0.00000000000E+00 0. -1.
          3   -1    0    0  502    0 -0.00000000000E+00 -0.00000000000E+00 -0.14575312329E+03  0.14575312329E+03  0.00000000000E+00 0. -1.
         23    2    1    2    0    0 -0.18627634400E+02 -0.78951752108E+01 -0.10723870319E+03  0.14308536944E+03  0.92541671313E+02 0.  0.
        -24    2    1    2    0    0 -0.66727059047E+01  0.77996988968E+01  0.89088573465E+02  0.12050983427E+03  0.80501465367E+02 0.  0.
         13    1    4    4    0    0 -0.41106653686E+02 -0.27732158142E+01  0.65741278762E+02  0.77584556688E+02  0.00000000000E+00 0. -1.
        -14    1    4    4    0    0  0.34433947782E+02  0.10572914711E+02  0.23347294703E+02  0.42925277579E+02  0.00000000000E+00 0.  1.
        -11    1    3    3    0    0  0.32983798328E+01 -0.43035111544E+02 -0.22290638094E+02  0.48577491514E+02  0.00000000000E+00 0.  1.
         11    1    3    3    0    0 -0.21926014233E+02  0.35139936333E+02 -0.84948065098E+02  0.94507877923E+02  0.00000000000E+00 0. -1.
          4    1    1    2  501    0  0.25300340305E+02  0.95476314064E-01  0.27909320635E+02  0.37670233787E+02  0.00000000000E+00 0. -1.
<scales pt_clust_5="13000.00000" pt_clust_6="13000.00000" pt_clust_7="13000.00000" pt_clust_8="13000.00000" pt_clust_9="25.30052"></scales>
<clustering>
<clus scale="   25.301">  1  9  2 -1</clus>
<clus scale="   80.501">  5  6 -1 -1</clus>
<clus scale="   82.253">  1  5  2 -1</clus>
<clus scale="   92.542">  7  8 -1 -1</clus>
<clus scale="   25.301">  1  5  2 -1</clus>
</clustering>
</event>
<event>
 9    1  0.8429841E-005  0.1041142E+03  0.7546771E-02  0.1277326E+00
         -4   -1    0    0    0  501 -0.00000000000E+00  0.00000000000E+00  0.10470774684E+03  0.10470774684E+03  0.00000000000E+00 0.  1.
         21   -1    0    0  501  502  0.00000000000E+00 -0.00000000000E+00 -0.36247712065E+03  0.36247712065E+03  0.00000000000E+00 0.  1.
        -24    2    1    2    0    0  0.33842869508E+02 -0.40553432036E+02  0.64587531010E+02  0.11550077007E+03  0.79868379597E+02 0.  0.
         23    2    1    2    0    0 -0.21136457762E+02 -0.19477032049E+01 -0.24530150345E+03  0.26277215066E+03  0.91792331782E+02 0.  0.
         11    1    3    3    0    0 -0.20643814445E+02 -0.26611505102E+02  0.58599807877E+01  0.34185942337E+02  0.00000000000E+00 0. -1.
        -12    1    3    3    0    0  0.54486683953E+02 -0.13941926934E+02  0.58727550223E+02  0.81314827738E+02  0.00000000000E+00 0.  1.
        -13    1    4    4    0    0  0.36347284869E+02  0.17922181214E+01 -0.10379724115E+03  0.10999183803E+03  0.00000000000E+00 0.  1.
         13    1    4    4    0    0 -0.57483742631E+02 -0.37399213263E+01 -0.14150426229E+03  0.15278031263E+03  0.00000000000E+00 0. -1.
         -3    1    1    2    0  502 -0.12706411746E+02  0.42501135241E+02 -0.77055401370E+02  0.88911946759E+02  0.00000000000E+00 0.  1.
<scales pt_clust_5="13000.00000" pt_clust_6="13000.00000" pt_clust_7="13000.00000" pt_clust_8="13000.00000" pt_clust_9="44.35988"></scales>
<clustering>
<clus scale="   44.360">  2  9  1 -1</clus>
<clus scale="   79.868">  5  6 -1 -1</clus>
<clus scale="   91.792">  7  8 -1 -1</clus>
<clus scale="   93.770">  1  5  2 -1</clus>
<clus scale="   44.360">  2  5  1 -1</clus>
</clustering>
</event>
<event>
 9    1  0.8429841E-005  0.2991461E+03  0.7546771E-02  0.1086550E+00
          1   -1    0    0  502    0 -0.00000000000E+00  0.00000000000E+00  0.13784952557E+04  0.13784952557E+04  0.00000000000E+00 0. -1.
         21   -1    0    0  501  502  0.00000000000E+00 -0.00000000000E+00 -0.81925902871E+02  0.81925902871E+02  0.00000000000E+00 0. -1.
         23    2    1    2    0    0  0.19109088937E+03  0.23206293353E+03  0.82326352498E+03  0.88113008418E+03  0.90876072610E+02 0.  0.
        -24    2    1    2    0    0 -0.19804196708E+03 -0.17234169263E+03  0.35125761103E+03  0.44323699938E+03  0.64458114892E+02 0.  0.
         13    1    4    4    0    0 -0.19476012755E+03 -0.15086295636E+03  0.33620946157E+03  0.41680683888E+03  0.00000000000E+00 0. -1.
        -14    1    4    4    0    0 -0.32818395362E+01 -0.21478736271E+02  0.15048149454E+02  0.26430160509E+02  0.00000000000E+00 0.  1.
        -11    1    3    3    0    0  0.96730490681E+02  0.14051035065E+03  0.58056202875E+03  0.60510512781E+03  0.00000000000E+00 0. -1.
         11    1    3    3    0    0  0.94360398691E+02  0.91552582875E+02  0.24270149622E+03  0.27602495637E+03  0.00000000000E+00 0.  1.
          2    1    1    2  501    0  0.69510777094E+01 -0.59721240898E+02  0.12204821687E+03  0.13605407505E+03  0.00000000000E+00 0. -1.
<scales pt_clust_5="13000.00000" pt_clust_6="13000.00000" pt_clust_7="13000.00000" pt_clust_8="13000.00000" pt_clust_9="60.12444"></scales>
<clustering>
<clus scale="   60.124">  2  9  1 -1</clus>
<clus scale="   64.458">  5  6 -1 -1</clus>
<clus scale="   90.876">  7  8 -1 -1</clus>
<clus scale="  292.207">  2  5  1 -1</clus>
<clus scale="   60.124">  2  5  1 -1</clus>
</clustering>
</event>
<event>
 9    1  0.8429841E-005  0.9890350E+02  0.7546771E-02  0.1286895E+00
         -2   -1    0    0    0  501 -0.00000000000E+00  0.00000000000E+00  0.33917816103E+03  0.33917816103E+03  0.00000000000E+00 0.  1.
         21   -1    0    0  501  502  0.00000000000E+00 -0.00000000000E+00 -0.82682230928E+02  0.82682230928E+02  0.00000000000E+00 0.  1.
        -24    2    1    2    0    0  0.33937579821E+02 -0.33504167032E+02  0.21322132858E+03  0.23335510106E+03  0.81957182091E+02 0.  0.
         23    2    1    2    0    0 -0.22718751745E+02 -0.32014908521E+02 -0.15486163045E+02  0.99784161414E+02  0.90421023965E+02 0.  0.
         13    1    3    3    0    0  0.23072883848E+02  0.15323824392E+02  0.21074794850E+02  0.34804087994E+02  0.00000000000E+00 0. -1.
        -14    1    3    3    0    0  0.10864695973E+02 -0.48827991425E+02  0.19214653373E+03  0.19855101306E+03  0.00000000000E+00 0.  1.
        -11    1    4    4    0    0  0.28647400495E+01 -0.59808991485E+02 -0.16095952971E+02  0.62003241045E+02  0.00000000000E+00 0.  1.
         11    1    4    4    0    0 -0.25583491794E+02  0.27794082964E+02  0.60978992563E+00  0.37780920370E+02  0.00000000000E+00 0. -1.
         -1    1    1    2    0  502 -0.11218828076E+02  0.65519075553E+02  0.58760764569E+02  0.88721129487E+02  0.00000000000E+00 0.  1.
<scales pt_clust_5="13000.00000" pt_clust_6="13000.00000" pt_clust_7="13000.00000" pt_clust_8="13000.00000" pt_clust_9="66.47267"></scales>
<clustering>
<clus scale="   66.473">  2  9  1 -1</clus>
<clus scale="   81.957">  5  6 -1 -1</clus>
<clus scale="   90.421">  7  8 -1 -1</clus>
<clus scale="   91.230">  1  5  2 -1</clus>
<clus scale="   66.473">  2  5  1 -1</clus>
</clustering>
</event>
<event>
 9    1  0.8429841E-005  0.1860200E+03  0.7546771E-02  0.1193663E+00
         21   -1    0    0  501  502  0.00000000000E+00  0.00000000000E+00  0.78601066311E+02  0.78601066311E+02  0.00000000000E+00 0. -1.
          1   -1    0    0  502    0 -0.00000000000E+00 -0.00000000000E+00 -0.73519942161E+03  0.73519942161E+03  0.00000000000E+00 0. -1.
        -24    2    1    2    0    0  0.36887650317E+02 -0.22826831603E+02 -0.30012861285E+03  0.31369448671E+03  0.80282524602E+02 0.  0.
         23    2    1    2    0    0 -0.16833492337E+03 -0.51805581626E+02 -0.18195200833E+03  0.26922763016E+03  0.91413996684E+02 0.  0.
         13    1    3    3    0    0  0.36258760921E+02 -0.49711276428E+02 -0.24112372941E+03  0.24885048048E+03  0.00000000000E+00 0. -1.
        -14    1    3    3    0    0  0.62888939620E+00  0.26884444825E+02 -0.59004883434E+02  0.64844006234E+02  0.00000000000E+00 0.  1.
        -13    1    4    4    0    0 -0.88575204244E+02 -0.55815379815E+02 -0.52490903843E+02  0.11711626026E+03  0.00000000000E+00 0. -1.
         13    1    4    4    0    0 -0.79759719128E+02  0.40097981888E+01 -0.12946110449E+03  0.15211136990E+03  0.00000000000E+00 0.  1.
          2    1    1    2  501    0  0.13144727306E+03  0.74632413229E+02 -0.17451773412E+03  0.23087837106E+03  0.00000000000E+00 0. -1.
<scales pt_clust_5="13000.00000" pt_clust_6="13000.00000" pt_clust_7="13000.00000" pt_clust_8="13000.00000" pt_clust_9="162.00912"></scales>
<clustering>
<clus scale="   80.283">  5  6 -1 -1</clus>
<clus scale="   91.253">  2  5  1 -1</clus>
<clus scale="   91.414">  7  8 -1 -1</clus>
<clus scale="  162.009">  1  9  2 -1</clus>
<clus scale="  162.009">  1  5  2 -1</clus>
</clustering>
</event>
<event>
 9    1  0.8429841E-005  0.1812281E+03  0.7546771E-02  0.1167944E+00
         21   -1    0    0  501  502  0.00000000000E+00  0.00000000000E+00  0.54437033689E+03  0.54437033689E+03  0.00000000000E+00 0.  1.
          1   -1    0    0  502    0 -0.00000000000E+00 -0.00000000000E+00 -0.75509876657E+02  0.75509876657E+02  0.00000000000E+00 0. -1.
        -24    2    1    2    0    0  0.97335128036E+02  0.12964893559E+03  0.17687631899E+03  0.25296048659E+03  0.80129906434E+02 0.  0.
         23    2    1    2    0    0 -0.60566860582E+02 -0.14002649866E+03  0.20190987258E+03  0.26907815511E+03  0.91431351219E+02 0.  0.
         11    1    3    3    0    0  0.56353516277E+02  0.98626361426E+02  0.67560794264E+02  0.13216406049E+03  0.00000000000E+00 0. -1.
        -12    1    3    3    0    0  0.40981611759E+02  0.31022574164E+02  0.10931552473E+03  0.12079642609E+03  0.00000000000E+00 0.  1.
        -13    1    4    4    0    0 -0.68010152796E+02 -0.43765233122E+02  0.82660854897E+02  0.11564425384E+03  0.00000000000E+00 0. -1.
         13    1    4    4    0    0  0.74432922135E+01 -0.96261265536E+02  0.11924901768E+03  0.15343390127E+03  0.00000000000E+00 0.  1.
          2    1    1    2  501    0 -0.36768267454E+02  0.10377563069E+02  0.90074268663E+02  0.97841571849E+02  0.00000000000E+00 0. -1.
<scales pt_clust_5="13000.00000" pt_clust_6="13000.00000" pt_clust_7="13000.00000" pt_clust_8="13000.00000" pt_clust_9="38.20470"></scales>
<clustering>
<clus scale="   38.205">  1  9  2 -1</clus>
<clus scale="   80.130">  5  6 -1 -1</clus>
<clus scale="   91.431">  7  8 -1 -1</clus>
<clus scale="  175.797">  2  5  1 -1</clus>
<clus scale="   38.205">  1  5  2 -1</clus>
</clustering>
</event>
<event>
 9    1  0.9265495E-005  0.1030364E+03  0.7546771E-02  0.1278936E+00
         21   -1    0    0  501  502  0.00000000000E+00  0.00000000000E+00  0.15378833108E+03  0.15378833108E+03  0.00000000000E+00 0.  1.
         -4   -1    0    0    0  501 -0.00000000000E+00 -0.00000000000E+00 -0.29814482828E+03  0.29814482828E+03  0.00000000000E+00 0.  1.
         23    2    1    2    0    0 -0.27931004639E+02  0.40582450038E+02 -0.26078592450E+03  0.28047473140E+03  0.90717695428E+02 0.  0.
        -24    2    1    2    0    0  0.43377803604E+02 -0.24403129767E+02  0.62643893655E+02  0.11320675302E+03  0.80089730489E+02 0.  0.
         11    1    4    4    0    0  0.40823592404E+02 -0.49835448165E+02  0.59059152121E+02  0.87396344545E+02  0.00000000000E+00 0. -1.
        -12    1    4    4    0    0  0.25542112008E+01  0.25432318398E+02  0.35847415342E+01  0.25810408478E+02  0.00000000000E+00 0.  1.
        -11    1    3    3    0    0  0.11108755993E+01  0.58812326752E+02 -0.21716232210E+03  0.22498799515E+03  0.00000000000E+00 0.  1.
         11    1    3    3    0    0 -0.29041880238E+02 -0.18229876714E+02 -0.43623602400E+02  0.55486736245E+02  0.00000000000E+00 0. -1.
         -3    1    1    2    0  502 -0.15446798966E+02 -0.16179320270E+02  0.53785533654E+02  0.58251674938E+02  0.00000000000E+00 0.  1.
<scales pt_clust_5="13000.00000" pt_clust_6="13000.00000" pt_clust_7="13000.00000" pt_clust_8="13000.00000" pt_clust_9="22.36904"></scales>
<clustering>
<clus scale="   22.369">  1  9  2 -1</clus>
<clus scale="   80.090">  5  6 -1 -1</clus>
<clus scale="   90.718">  7  8 -1 -1</clus>
<clus scale="   93.815">  1  5  2 -1</clus>
<clus scale="   22.369">  1  5  2 -1</clus>
</clustering>
</event>
<event>
 9    1  0.8429841E-005  0.1378388E+03  0.7546771E-02  0.1219321E+00
         21   -1    0    0  501  502  0.00000000000E+00  0.00000000000E+00  0.74221925635E+02  0.74221925635E+02  0.00000000000E+00 0. -1.
          3   -1    0    0  502    0 -0.00000000000E+00 -0.00000000000E+00 -0.43618451270E+03  0.43618451270E+03  0.00000000000E+00 0. -1.
        -24    2    1    2    0    0  0.34538110857E+02  0.71031841154E+02 -0.13627416032E+03  0.17718325462E+03  0.81147121865E+02 0.  0.
         23    2    1    2    0    0 -0.98245521414E+02 -0.93120161626E+02 -0.20412396481E+03  0.26243085306E+03  0.94232757829E+02 0.  0.
         13    1    3    3    0    0  0.46479298869E+02  0.51189024487E+02 -0.43787616333E+02  0.81841290285E+02  0.00000000000E+00 0. -1.
        -14    1    3    3    0    0 -0.11941188011E+02  0.19842816667E+02 -0.92486543989E+02  0.95341964336E+02  0.00000000000E+00 0.  1.
        -13    1    4    4    0    0 -0.25511105590E+02  0.81593732428E+01 -0.46405997924E+01  0.27183212587E+02  0.00000000000E+00 0.  1.
         13    1    4    4    0    0 -0.72734415825E+02 -0.10127953487E+03 -0.19948336502E+03  0.23524764047E+03  0.00000000000E+00 0. -1.
          4    1    1    2  501    0  0.63707410557E+02  0.22088320472E+02 -0.21564461930E+02  0.70792330654E+02  0.00000000000E+00 0. -1.
<scales pt_clust_5="13000.00000" pt_clust_6="13000.00000" pt_clust_7="13000.00000" pt_clust_8="13000.00000" pt_clust_9="67.42795"></scales>
<clustering>
<clus scale="   67.428">  1  9  2 -1</clus>
<clus scale="   81.147">  5  6 -1 -1</clus>
<clus scale="   94.233">  7  8 -1 -1</clus>
<clus scale="  129.246">  2  5  1 -1</clus>
<clus scale="   67.428">  1  5  2 -1</clus>
</clustering>
</event>
<event>
 9    1  0.8429841E-005  0.9223878E+02  0.7546771E-02  0.1301548E+00
         21   -1    0    0  501  502  0.00000000000E+00  0.00000000000E+00  0.74352753996E+03  0.74352753996E+03  0.00000000000E+00 0.  1.
          3   -1    0    0  502    0 -0.00000000000E+00 -0.00000000000E+00 -0.22285501937E+02  0.22285501937E+02  0.00000000000E+00 0. -1.
         23    2    1    2    0    0 -0.39667935410E+02 -0.35229291370E+02  0.17053948326E+03  0.19263332058E+03  0.72175014896E+02 0.  0.
        -24    2    1    2    0    0  0.51258681360E+02 -0.22017284469E+02  0.28724973010E+03  0.30332993596E+03  0.79902624343E+02 0.  0.
         11    1    4    4    0    0 -0.16049079368E+02 -0.17042721639E+02  0.34273203171E+02  0.41505177569E+02  0.00000000000E+00 0. -1.
        -12    1    4    4    0    0  0.67307760728E+02 -0.49745628300E+01  0.25297652693E+03  0.26182475839E+03  0.00000000000E+00 0.  1.
        -13    1    3    3    0    0 -0.51213774520E+02  0.84072815299E+00  0.10778042141E+03  0.11933221176E+03  0.00000000000E+00 0.  1.
         13    1    3    3    0    0  0.11545839110E+02 -0.36070019523E+02  0.62759061848E+02  0.73301108813E+02  0.00000000000E+00 0. -1.
          4    1    1    2  501    0 -0.11590745950E+02  0.57246575839E+02  0.26345282467E+03  0.26984978537E+03  0.00000000000E+00 0. -1.
<scales pt_clust_5="13000.00000" pt_clust_6="13000.00000" pt_clust_7="13000.00000" pt_clust_8="13000.00000" pt_clust_9="58.40818"></scales>
<clustering>
<clus scale="   58.408">  1  9  2 -1</clus>
<clus scale="   72.175">  7  8 -1 -1</clus>
<clus scale="   79.903">  5  6 -1 -1</clus>
<clus scale="   85.632">  2  7  1 -1</clus>
<clus scale="   58.408">  1  5  2 -1</clus>
</clustering>
</event>
<event>
 9    1  0.8429841E-005  0.9842972E+02  0.7546771E-02  0.1289230E+00
          1   -1    0    0  502    0 -0.00000000000E+00  0.00000000000E+00  0.39242446937E+03  0.39242446937E+03  0.00000000000E+00 0. -1.
         21   -1    0    0  501  502  0.00000000000E+00 -0.00000000000E+00 -0.33145952655E+03  0.33145952655E+03  0.00000000000E+00 0. -1.
        -24    2    1    2    0    0  0.11683909898E+02 -0.32293880302E+02  0.24624999667E+03  0.26004509796E+03  0.76190443353E+02 0.  0.
         23    2    1    2    0    0 -0.40275399713E+02  0.82482989755E+02  0.10700325439E+03  0.16589783813E+03  0.87446239632E+02 0.  0.
         13    1    3    3    0    0  0.29361041472E+02  0.13735119656E+02  0.72137317131E+02  0.79085503040E+02  0.00000000000E+00 0. -1.
        -14    1    3    3    0    0 -0.17677131573E+02 -0.46028999958E+02  0.17411267954E+03  0.18095959492E+03  0.00000000000E+00 0.  1.
        -11    1    4    4    0    0 -0.16884964708E+02 -0.15122569674E+02  0.37482146577E+02  0.43803030246E+02  0.00000000000E+00 0.  1.
         11    1    4    4    0    0 -0.23390435005E+02  0.97605559429E+02  0.69521107815E+02  0.12209480789E+03  0.00000000000E+00 0. -1.
          2    1    1    2  501    0  0.28591489814E+02 -0.50189109453E+02 -0.29228830824E+03  0.29794105983E+03  0.00000000000E+00 0. -1.
<scales pt_clust_5="13000.00000" pt_clust_6="13000.00000" pt_clust_7="13000.00000" pt_clust_8="13000.00000" pt_clust_9="57.76175"></scales>
<clustering>
<clus scale="   57.762">  2  9  1 -1</clus>
<clus scale="   76.190">  5  6 -1 -1</clus>
<clus scale="   87.446">  7  8 -1 -1</clus>
<clus scale="   88.581">  1  5  2 -1</clus>
<clus scale="   57.762">  2  5  1 -1</clus>
</clustering>
</event>
<event>
 9    1  0.8429841E-005  0.1503269E+03  0.7546771E-02  0.1203144E+00
         21   -1    0    0  501  502  0.00000000000E+00  0.00000000000E+00  0.24460037307E+03  0.24460037307E+03  0.00000000000E+00 0.  1.
          1   -1    0    0  502    0 -0.00000000000E+00 -0.00000000000E+00 -0.23678969400E+03  0.23678969400E+03  0.00000000000E+00 0. -1.
         23    2    1    2    0    0 -0.82993693191E+02 -0.93446971876E+02 -0.10678986657E+03  0.19435317854E+03  0.10367638469E+03 0.  0.
        -24    2    1    2    0    0  0.10773146375E+03 -0.24074124587E+02  0.75820821413E+02  0.16083454142E+03  0.89069192186E+02 0.  0.
         11    1    4    4    0    0  0.84522368593E+02 -0.19615768635E+02  0.58334508378E+01  0.86964580839E+02  0.00000000000E+00 0. -1.
        -12    1    4    4    0    0  0.23209095157E+02 -0.44583559526E+01  0.69987370575E+02  0.73869960578E+02  0.00000000000E+00 0.  1.
        -11    1    3    3    0    0 -0.20446587915E+02 -0.58599310464E+02  0.42734653040E+01  0.62210968887E+02  0.00000000000E+00 0.  1.
         11    1    3    3    0    0 -0.62547105276E+02 -0.34847661413E+02 -0.11106333187E+03  0.13214220965E+03  0.00000000000E+00 0. -1.
          2    1    1    2  501    0 -0.24737770559E+02  0.11752109646E+03  0.38779724231E+02  0.12620234712E+03  0.00000000000E+00 0. -1.
<scales pt_clust_5="13000.00000" pt_clust_6="13000.00000" pt_clust_7="13000.00000" pt_clust_8="13000.00000" pt_clust_9="120.09648"></scales>
<clustering>
<clus scale="   89.069">  5  6 -1 -1</clus>
<clus scale="  103.676">  7  8 -1 -1</clus>
<clus scale="  120.096">  1  9  2 -1</clus>
<clus scale="  140.651">  1  5  2 -1</clus>
<clus scale="  120.096">  1  5  2 -1</clus>
</clustering>
</event>
<event>
 9    1  0.8429841E-005  0.1377963E+03  0.7546771E-02  0.1219851E+00
          1   -1    0    0  502    0 -0.00000000000E+00  0.00000000000E+00  0.11792407385E+04  0.11792407385E+04  0.00000000000E+00 0. -1.
         21   -1    0    0  501  502  0.00000000000E+00 -0.00000000000E+00 -0.27532828383E+02  0.27532828383E+02  0.00000000000E+00 0.  1.
         23    2    1    2    0    0  0.12353526592E+03  0.59421470413E+02  0.73743658654E+03  0.75603460995E+03  0.94782589118E+02 0.  0.
        -24    2    1    2    0    0 -0.55927232653E+02 -0.20349769501E+02  0.23217591951E+03  0.25260723269E+03  0.79767085516E+02 0.  0.
         11    1    4    4    0    0 -0.34909073698E+02 -0.50377296167E+02  0.12265455895E+03  0.13711548500E+03  0.00000000000E+00 0. -1.
        -12    1    4    4    0    0 -0.21018158955E+02  0.30027526666E+02  0.10952136057E+03  0.11549174769E+03  0.00000000000E+00 0.  1.
        -13    1    3    3    0    0  0.56876221346E+02  0.78675966005E+02  0.41191940598E+03  0.42320492578E+03  0.00000000000E+00 0. -1.
         13    1    3    3    0    0  0.66659044572E+02 -0.19254495592E+02  0.32551718056E+03  0.33282968417E+03  0.00000000000E+00 0.  1.
          2    1    1    2  501    0 -0.67608033265E+02 -0.39071700912E+02  0.18209540408E+03  0.19813172426E+03  0.00000000000E+00 0. -1.
<scales pt_clust_5="13000.00000" pt_clust_6="13000.00000" pt_clust_7="13000.00000" pt_clust_8="13000.00000" pt_clust_9="78.08613"></scales>
<clustering>
<clus scale="   78.086">  2  9  1 -1</clus>
<clus scale="   79.767">  5  6 -1 -1</clus>
<clus scale="   94.783">  7  8 -1 -1</clus>
<clus scale="  127.933">  2  5  1 -1</clus>
<clus scale="   78.086">  2  5  1 -1</clus>
</clustering>
</event>
<event>
 9    1  0.8429841E-005  0.9075706E+02  0.7546771E-02  0.1305253E+00
         21   -1    0    0  501  502  0.00000000000E+00  0.00000000000E+00  0.19037570501E+02  0.19037570501E+02  0.00000000000E+00 0.  1.
          1   -1    0    0  502    0 -0.00000000000E+00 -0.00000000000E+00 -0.12582446535E+04  0.12582446535E+04  0.00000000000E+00 0. -1.
        -24    2    1    2    0    0  0.76596446194E+01  0.10072658962E+02 -0.93551921311E+03  0.93934203199E+03  0.83708580022E+02 0.  0.
         23    2    1    2    0    0  0.22175232904E+02  0.25682874856E+02 -0.16032288480E+03  0.18720168642E+03  0.90496922552E+02 0.  0.
         11    1    3    3    0    0  0.60260649547E+01 -0.25922252883E+02 -0.11529318522E+03  0.11832495600E+03  0.00000000000E+00 0. -1.
        -12    1    3    3    0    0  0.16335796647E+01  0.35994911845E+02 -0.82022602788E+03  0.82101707600E+03  0.00000000000E+00 0.  1.
        -11    1    4    4    0    0  0.56819493970E+02  0.72008263948E+01 -0.99451157867E+02  0.11476427840E+03  0.00000000000E+00 0.  1.
         11    1    4    4    0    0 -0.34644261067E+02  0.18482048461E+02 -0.60871726931E+02  0.72437408014E+02  0.00000000000E+00 0. -1.
          2    1    1    2  501    0 -0.29834877523E+02 -0.35755533818E+02 -0.14336498505E+03  0.15073850554E+03  0.00000000000E+00 0. -1.
<scales pt_clust_5="13000.00000" pt_clust_6="13000.00000" pt_clust_7="13000.00000" pt_clust_8="13000.00000" pt_clust_9="46.56799"></scales>
<clustering>
<clus scale="   46.568">  1  9  2 -1</clus>
<clus scale="   83.709">  5  6 -1 -1</clus>
<clus scale="   83.990">  2  5  1 -1</clus>
<clus scale="   90.497">  7  8 -1 -1</clus>
<clus scale="   46.568">  1  5  2 -1</clus>
</clustering>
</event>
<event>
 9    1  0.8429841E-005  0.1265162E+03  0.7546771E-02  0.1235118E+00
          1   -1    0    0  502    0 -0.00000000000E+00  0.00000000000E+00  0.56591540849E+03  0.56591540849E+03  0.00000000000E+00 0. -1.
         21   -1    0    0  501  502  0.00000000000E+00 -0.00000000000E+00 -0.45239967598E+02  0.45239967598E+02  0.00000000000E+00 0. -1.
         23    2    1    2    0    0  0.95693424358E+01 -0.80326555990E+02  0.30817610768E+03  0.33138036904E+03  0.91085167462E+02 0.  0.
        -24    2    1    2    0    0 -0.11063253711E+02  0.10630572580E+03  0.11029780959E+03  0.17431268929E+03  0.82437879193E+02 0.  0.
         13    1    4    4    0    0  0.17503841100E+02  0.53402051644E+02  0.95714964036E+01  0.57006816404E+02  0.00000000000E+00 0. -1.
        -14    1    4    4    0    0 -0.28567094811E+02  0.52903674160E+02  0.10072631319E+03  0.11730587289E+03  0.00000000000E+00 0.  1.
        -11    1    3    3    0    0  0.39556400424E+02 -0.82670313477E+02  0.23758480671E+03  0.25464805109E+03  0.00000000000E+00 0.  1.
         11    1    3    3    0    0 -0.29987057988E+02  0.23437574873E+01  0.70591300973E+02  0.76732317957E+02  0.00000000000E+00 0. -1.
          2    1    1    2  501    0  0.14939112749E+01 -0.25979169815E+02  0.10220152362E+03  0.10546231775E+03  0.00000000000E+00 0. -1.
<scales pt_clust_5="13000.00000" pt_clust_6="13000.00000" pt_clust_7="13000.00000" pt_clust_8="13000.00000" pt_clust_9="26.02210"></scales>
<clustering>
<clus scale="   26.022">  2  9  1 -1</clus>
<clus scale="   82.438">  5  6 -1 -1</clus>
<clus scale="   91.085">  7  8 -1 -1</clus>
<clus scale="  120.440">  2  5  1 -1</clus>
<clus scale="   26.022">  2  5  1 -1</clus>
</clustering>
</event>
<event>
 9    1  0.8429841E-005  0.1086671E+03  0.7546771E-02  0.1267110E+00
         21   -1    0    0  501  502  0.00000000000E+00  0.00000000000E+00  0.12841460015E+04  0.12841460015E+04  0.00000000000E+00 0.  1.
          3   -1    0    0  502    0 -0.00000000000E+00 -0.00000000000E+00 -0.35096886968E+02  0.35096886968E+02  0.00000000000E+00 0. -1.
         23    2    1    2    0    0 -0.50445490753E+02  0.39064534894E+02  0.16237225903E+03  0.19687112807E+03  0.91228861337E+02 0.  0.
        -24    2    1    2    0    0  0.31136717398E+00 -0.47212940940E+02  0.10615593895E+04  0.10657085980E+04  0.81223886645E+02 0.  0.
         13    1    4    4    0    0  0.27263539027E+02 -0.33064857765E+02  0.25508139845E+03  0.25865634579E+03  0.00000000000E+00 0. -1.
        -14    1    4    4    0    0 -0.26952171853E+02 -0.14148083175E+02  0.80647799105E+03  0.80705225226E+03  0.00000000000E+00 0.  1.
        -13    1    3    3    0    0 -0.53047173946E+02  0.65081421786E+02  0.13529466621E+03  0.15923015050E+03  0.00000000000E+00 0. -1.
         13    1    3    3    0    0  0.26016831930E+01 -0.26016886892E+02  0.27077592824E+02  0.37640977566E+02  0.00000000000E+00 0.  1.
          4    1    1    2  501    0  0.50134123579E+02  0.81484060455E+01  0.25117465973E+02  0.56663162328E+02  0.00000000000E+00 0. -1.
<scales pt_clust_5="13000.00000" pt_clust_6="13000.00000" pt_clust_7="13000.00000" pt_clust_8="13000.00000" pt_clust_9="50.79202"></scales>
<clustering>
<clus scale="   50.792">  1  9  2 -1</clus>
<clus scale="   81.224">  5  6 -1 -1</clus>
<clus scale="   91.229">  7  8 -1 -1</clus>
<clus scale="  100.415">  1  5  2 -1</clus>
<clus scale="   50.792">  1  5  2 -1</clus>
</clustering>
</event>
<event>
 9    1  0.8429841E-005  0.1431874E+03  0.7546771E-02  0.1209442E+00
          1   -1    0    0  502    0 -0.00000000000E+00  0.00000000000E+00  0.37390827985E+03  0.37390827985E+03  0.00000000000E+00 0. -1.
         21   -1    0    0  501  502  0.00000000000E+00 -0.00000000000E+00 -0.80074684728E+02  0.80074684728E+02  0.00000000000E+00 0. -1.
        -24    2    1    2    0    0  0.95615096149E+02  0.57658421140E+02  0.21477198234E+03  0.25645830792E+03  0.84717879828E+02 0.  0.
         23    2    1    2    0    0 -0.86278055599E+02 -0.86521727233E+02  0.73254532270E+02  0.16663788038E+03  0.86440988653E+02 0.  0.
         11    1    3    3    0    0  0.10165281795E+03  0.22232821790E+02  0.15409059291E+03  0.18593414046E+03  0.00000000000E+00 0. -1.
        -12    1    3    3    0    0 -0.60377218026E+01  0.35425599349E+02  0.60681389422E+02  0.70524167460E+02  0.00000000000E+00 0.  1.
        -13    1    4    4    0    0 -0.49562150248E+02 -0.22505722743E+02 -0.10043473430E+02  0.55351473801E+02  0.00000000000E+00 0. -1.
         13    1    4    4    0    0 -0.36715905351E+02 -0.64016004490E+02  0.83298005700E+02  0.11128640658E+03  0.00000000000E+00 0.  1.
          2    1    1    2  501    0 -0.93370405495E+01  0.28863306093E+02  0.58070805170E+01  0.30886776280E+02  0.00000000000E+00 0. -1.
<scales pt_clust_5="13000.00000" pt_clust_6="13000.00000" pt_clust_7="13000.00000" pt_clust_8="13000.00000" pt_clust_9="30.33596"></scales>
<clustering>
<clus scale="   30.336">  2  9  1 -1</clus>
<clus scale="   84.718">  5  6 -1 -1</clus>
<clus scale="   86.441">  7  8 -1 -1</clus>
<clus scale="  142.154">  1  5  2 -1</clus>
<clus scale="   30.336">  2  5  1 -1</clus>
</clustering>
</event>
<event>
 9    1  0.8429841E-005  0.1072380E+03  0.7546771E-02  0.1269457E+00
         21   -1    0    0  501  502  0.00000000000E+00  0.00000000000E+00  0.58618520416E+02  0.58618520416E+02  0.00000000000E+00 0.  1.
         -2   -1    0    0    0  501 -0.00000000000E+00 -0.00000000000E+00 -0.34277502900E+03  0.34277502900E+03  0.00000000000E+00 0.  1.
         23    2    1    2    0    0 -0.38342489607E+02 -0.24799107696E+02 -0.12434954238E+03  0.16031992683E+03  0.90302425203E+02 0.  0.
        -24    2    1    2    0    0  0.77271581159E+02 -0.10682789333E+02 -0.14977579332E+03  0.18745400290E+03  0.81370729968E+02 0.  0.
         11    1    4    4    0    0  0.16841992728E+02 -0.31207692726E+02 -0.10125016569E+03  0.10728079444E+03  0.00000000000E+00 0. -1.
        -12    1    4    4    0    0  0.60429588431E+02  0.20524903393E+02 -0.48525627634E+02  0.80173208459E+02  0.00000000000E+00 0.  1.
        -11    1    3    3    0    0 -0.65618330648E+02 -0.92847507779E+01 -0.63136008600E+02  0.91532111829E+02  0.00000000000E+00 0.  1.
         11    1    3    3    0    0  0.27275841041E+02 -0.15514356918E+02 -0.61213533776E+02  0.68787815000E+02  0.00000000000E+00 0. -1.
         -1    1    1    2    0  502 -0.38929091552E+02  0.35481897029E+02 -0.10031172888E+02  0.53619619687E+02  0.00000000000E+00 0.  1.
<scales pt_clust_5="13000.00000" pt_clust_6="13000.00000" pt_clust_7="13000.00000" pt_clust_8="13000.00000" pt_clust_9="52.67295"></scales>
<clustering>
<clus scale="   52.673">  1  9  2 -1</clus>
<clus scale="   81.371">  5  6 -1 -1</clus>
<clus scale="   90.302">  7  8 -1 -1</clus>
<clus scale="   99.833">  1  5  2 -1</clus>
<clus scale="   52.673">  1  5  2 -1</clus>
</clustering>
</event>
<event>
 9    1  0.8429841E-005  0.1960057E+03  0.7546771E-02  0.1154079E+00
         21   -1    0    0  501  502  0.00000000000E+00  0.00000000000E+00  0.24194270238E+03  0.24194270238E+03  0.00000000000E+00 0. -1.
          1   -1    0    0  502    0 -0.00000000000E+00 -0.00000000000E+00 -0.22500350277E+03  0.22500350277E+03  0.00000000000E+00 0. -1.
         23    2    1    2    0    0 -0.32919528212E+02 -0.19006346105E+03 -0.55514288722E+02  0.22002685884E+03  0.90123070261E+02 0.  0.
        -24    2    1    2    0    0 -0.14311540479E+02  0.14769646639E+03  0.71809712496E+02  0.18346739178E+03  0.80526906459E+02 0.  0.
         13    1    4    4    0    0 -0.40815958429E+02  0.11435945949E+03  0.71429386235E+02  0.14087649079E+03  0.00000000000E+00 0. -1.
        -14    1    4    4    0    0  0.26504417950E+02  0.33337006896E+02  0.38032626059E+00  0.42590900996E+02  0.00000000000E+00 0.  1.
        -11    1    3    3    0    0  0.62457819416E+01 -0.63582744522E+02 -0.59859744055E+02  0.87549780990E+02  0.00000000000E+00 0. -1.
         11    1    3    3    0    0 -0.39165310153E+02 -0.12648071653E+03  0.43454553330E+01  0.13247707785E+03  0.00000000000E+00 0.  1.
          2    1    1    2  501    0  0.47231068690E+02  0.42366994664E+02  0.64377583293E+00  0.63451954531E+02  0.00000000000E+00 0. -1.
<scales pt_clust_5="13000.00000" pt_clust_6="13000.00000" pt_clust_7="13000.00000" pt_clust_8="13000.00000" pt_clust_9="63.44872"></scales>
<clustering>
<clus scale="   63.449">  1  9  2 -1</clus>
<clus scale="   80.527">  5  6 -1 -1</clus>
<clus scale="   90.123">  7  8 -1 -1</clus>
<clus scale="  191.783">  1  5  2 -1</clus>
<clus scale="   63.449">  1  5  2 -1</clus>
</clustering>
</event>
<event>
 9    1  0.8429841E-005  0.1766086E+03  0.7546771E-02  0.1172876E+00
         21   -1    0    0  501  502  0.00000000000E+00  0.00000000000E+00  0.23848321261E+03  0.23848321261E+03  0.00000000000E+00 0.  1.
         -2   -1    0    0    0  501 -0.00000000000E+00 -0.00000000000E+00 -0.21354698010E+03  0.21354698010E+03  0.00000000000E+00 0.  1.
        -24    2    1    2    0    0  0.98895569842E+02  0.11503414251E+03 -0.61618374209E+02  0.18226064789E+03  0.80055805854E+02 0.  0.
         23    2    1    2    0    0 -0.46568588447E+02 -0.14586807223E+03  0.10277695325E+03  0.20690454080E+03  0.93809695433E+02 0.  0.
         11    1    3    3    0    0  0.45196435015E+02  0.25195599003E+02 -0.57727672069E+02  0.77524319215E+02  0.00000000000E+00 0. -1.
        -12    1    3    3    0    0  0.53699134827E+02  0.89838543510E+02 -0.38907021398E+01  0.10473632868E+03  0.00000000000E+00 0.  1.
        -13    1    4    4    0    0 -0.29989121052E+02 -0.12715008670E+03  0.35864067578E+02  0.13547222325E+03  0.00000000000E+00 0.  1.
         13    1    4    4    0    0 -0.16579467395E+02 -0.18717985531E+02  0.66912885671E+02  0.71432317548E+02  0.00000000000E+00 0. -1.
         -1    1    1    2    0  502 -0.52326981395E+02  0.30833929715E+02 -0.16222346532E+02  0.62865004021E+02  0.00000000000E+00 0.  1.
<scales pt_clust_5="13000.00000" pt_clust_6="13000.00000" pt_clust_7="13000.00000" pt_clust_8="13000.00000" pt_clust_9="60.73589"></scales>
<clustering>
<clus scale="   60.736">  1  9  2 -1</clus>
<clus scale="   80.056">  5  6 -1 -1</clus>
<clus scale="   93.810">  7  8 -1 -1</clus>
<clus scale="  169.703">  2  5  1 -1</clus>
<clus scale="   60.736">  1  5  2 -1</clus>
</clustering>
</event>
<event>
 9    1  0.8429841E-005  0.1632717E+03  0.7546771E-02  0.1186516E+00
         -2   -1    0    0    0  501 -0.00000000000E+00  0.00000000000E+00  0.95324903149E+02  0.95324903149E+02  0.00000000000E+00 0.  1.
         21   -1    0    0  501  502  0.00000000000E+00 -0.00000000000E+00 -0.13245953960E+04  0.13245953960E+04  0.00000000000E+00 0.  1.
         23    2    1    2    0    0 -0.11444864715E+03 -0.96294649780E+02 -0.63958600196E+02  0.18609542756E+03  0.90386133955E+02 0.  0.
        -24    2    1    2    0    0 -0.87403505277E+01  0.15089553361E+03 -0.21925147639E+03  0.27821663759E+03  0.80544594723E+02 0.  0.
         13    1    4    4    0    0  0.14359296385E+02  0.10329007755E+03 -0.87126175611E+02  0.13588966108E+03  0.00000000000E+00 0. -1.
        -14    1    4    4    0    0 -0.23099646913E+02  0.47605456065E+02 -0.13212530078E+03  0.14232697651E+03  0.00000000000E+00 0.  1.
        -13    1    3    3    0    0 -0.20106272768E+02 -0.18754052826E+02 -0.57582663286E+02  0.63810185810E+02  0.00000000000E+00 0. -1.
         13    1    3    3    0    0 -0.94342374379E+02 -0.77540596955E+02 -0.63759369103E+01  0.12228524175E+03  0.00000000000E+00 0.  1.
         -1    1    1    2    0  502  0.12318899767E+03 -0.54600883832E+02 -0.94606041630E+03  0.95560823404E+03  0.00000000000E+00 0.  1.
<scales pt_clust_5="13000.00000" pt_clust_6="13000.00000" pt_clust_7="13000.00000" pt_clust_8="13000.00000" pt_clust_9="134.74712"></scales>
<clustering>
<clus scale="   80.545">  5  6 -1 -1</clus>
<clus scale="   90.386">  7  8 -1 -1</clus>
<clus scale="  134.747">  2  9  1 -1</clus>
<clus scale="  158.036">  2  5  1 -1</clus>
<clus scale="  134.747">  2  5  1 -1</clus>
</clustering>
</event>
<event>
 9    1  0.8429841E-005  0.1291608E+03  0.7546771E-02  0.1229949E+00
         21   -1    0    0  501  502  0.00000000000E+00  0.00000000000E+00  0.21493804036E+03  0.21493804036E+03  0.00000000000E+00 0. -1.
          1   -1    0    0  502    0 -0.00000000000E+00 -0.00000000000E+00 -0.20093670949E+03  0.20093670949E+03  0.00000000000E+00 0. -1.
         23    2    1    2    0    0 -0.86827614067E+02  0.25254503658E+02 -0.94934610438E+02  0.15753182645E+03  0.87331961878E+02 0.  0.
        -24    2    1    2    0    0  0.95246143934E+02 -0.44335337680E+02 -0.13442727496E+02  0.13419990729E+03  0.82410303315E+02 0.  0.
         13    1    4    4    0    0  0.20087560792E+02 -0.66079077436E+01 -0.40642237092E+02  0.45814473468E+02  0.00000000000E+00 0. -1.
        -14    1    4    4    0    0  0.75158583142E+02 -0.37727429936E+02  0.27199509596E+02  0.88385433821E+02  0.00000000000E+00 0.  1.
        -13    1    3    3    0    0 -0.90574496621E+02 -0.38772786761E+01 -0.49116914204E+02  0.10310792399E+03  0.00000000000E+00 0. -1.
         13    1    3    3    0    0  0.37468825541E+01  0.29131782334E+02 -0.45817696234E+02  0.54423902461E+02  0.00000000000E+00 0.  1.
          2    1    1    2  501    0 -0.84185298666E+01  0.19080834022E+02  0.12237866880E+03  0.12414301612E+03  0.00000000000E+00 0. -1.
<scales pt_clust_5="13000.00000" pt_clust_6="13000.00000" pt_clust_7="13000.00000" pt_clust_8="13000.00000" pt_clust_9="20.85545"></scales>
<clustering>
<clus scale="   20.855">  1  9  2 -1</clus>
<clus scale="   82.410">  5  6 -1 -1</clus>
<clus scale="   87.332">  7  8 -1 -1</clus>
<clus scale="  125.885">  1  5  2 -1</clus>
<clus scale="   20.855">  1  5  2 -1</clus>
</clustering>
</event>
<event>
 9    1  0.8429841E-005  0.9211639E+02  0.7546771E-02  0.1301849E+00
         21   -1    0    0  501  502  0.00000000000E+00  0.00000000000E+00  0.16756299145E+03  0.16756299145E+03  0.00000000000E+00 0. -1.
         -2   -1    0    0    0  501 -0.00000000000E+00 -0.00000000000E+00 -0.16671857631E+03  0.16671857631E+03  0.00000000000E+00 0.  1.
        -24    2    1    2    0    0  0.18096748034E+00  0.12140117074E+02  0.19312573260E+02  0.84497763556E+02  0.81360195232E+02 0.  0.
         23    2    1    2    0    0 -0.57861652650E+02 -0.30474774983E+02  0.78810250039E+02  0.13521369547E+03  0.88289326503E+02 0.  0.
         13    1    3    3    0    0  0.18505269257E+02  0.35125783554E+02  0.33416512580E+02  0.51893438637E+02  0.00000000000E+00 0. -1.
        -14    1    3    3    0    0 -0.18324301776E+02 -0.22985666480E+02 -0.14103939320E+02  0.32604324919E+02  0.00000000000E+00 0.  1.
        -11    1    4    4    0    0 -0.57670328023E+02  0.15578163020E+01  0.89791751147E+01  0.58385949608E+02  0.00000000000E+00 0.  1.
         11    1    4    4    0    0 -0.19132462750E+00 -0.32032591285E+02  0.69831074924E+02  0.76827745864E+02  0.00000000000E+00 0. -1.
         -1    1    1    2    0  502  0.57680685170E+02  0.18334657909E+02 -0.97278408150E+02  0.11457010873E+03  0.00000000000E+00 0.  1.
<scales pt_clust_5="13000.00000" pt_clust_6="13000.00000" pt_clust_7="13000.00000" pt_clust_8="13000.00000" pt_clust_9="60.52458"></scales>
<clustering>
<clus scale="   60.525">  1  9  2 -1</clus>
<clus scale="   81.360">  5  6 -1 -1</clus>
<clus scale="   85.498">  2  5  1 -1</clus>
<clus scale="   88.289">  7  8 -1 -1</clus>
<clus scale="   60.525">  1  5  2 -1</clus>
</clustering>
</event>
<event>
 9    1  0.8429841E-005  0.1430442E+03  0.7546771E-02  0.1211516E+00
         21   -1    0    0  501  502  0.00000000000E+00  0.00000000000E+00  0.34201409202E+03  0.34201409202E+03  0.00000000000E+00 0.  1.
         -4   -1    0    0    0  501 -0.00000000000E+00 -0.00000000000E+00 -0.65178032381E+03  0.65178032381E+03  0.00000000000E+00 0.  1.
        -24    2    1    2    0    0  0.64042865298E+02  0.11256364749E+03 -0.46344501491E+03  0.48788309984E+03  0.80477164043E+02 0.  0.
         23    2    1    2    0    0 -0.12096498068E+01 -0.82832048266E+02 -0.15013231878E+03  0.19424937318E+03  0.91271541929E+02 0.  0.
         13    1    3    3    0    0  0.67776807397E+02  0.74731420868E+02 -0.22711520906E+03  0.24851518881E+03  0.00000000000E+00 0. -1.
        -14    1    3    3    0    0 -0.37339420990E+01  0.37832226622E+02 -0.23632980585E+03  0.23936791102E+03  0.00000000000E+00 0.  1.
        -13    1    4    4    0    0  0.42212882921E+02 -0.61684398681E+02 -0.85526131358E+02  0.11358526168E+03  0.00000000000E+00 0.  1.
         13    1    4    4    0    0 -0.43422532728E+02 -0.21147649585E+02 -0.64606187418E+02  0.80664111501E+02  0.00000000000E+00 0. -1.
         -3    1    1    2    0  502 -0.62833215491E+02 -0.29731599223E+02  0.30381110190E+03  0.31166194281E+03  0.00000000000E+00 0.  1.
<scales pt_clust_5="13000.00000" pt_clust_6="13000.00000" pt_clust_7="13000.00000" pt_clust_8="13000.00000" pt_clust_9="69.51245"></scales>
<clustering>
<clus scale="   69.512">  1  9  2 -1</clus>
<clus scale="   80.477">  5  6 -1 -1</clus>
<clus scale="   91.272">  7  8 -1 -1</clus>
<clus scale="  136.410">  2  5  1 -1</clus>
<clus scale="   69.512">  1  5  2 -1</clus>
</clustering>
</event>
<event>
 9    1  0.8429841E-005  0.1222476E+03  0.7546771E-02  0.1243406E+00
         21   -1    0    0  501  502  0.00000000000E+00  0.00000000000E+00  0.49877169466E+03  0.49877169466E+03  0.00000000000E+00 0.  1.
          1   -1    0    0  502    0 -0.00000000000E+00 -0.00000000000E+00 -0.81991660455E+02  0.81991660455E+02  0.00000000000E+00 0. -1.
        -24    2    1    2    0    0  0.51867673819E+02  0.63214951728E+02 -0.12675428021E+02  0.11369879592E+03  0.77976688885E+02 0.  0.
         23    2    1    2    0    0 -0.11301199070E+02 -0.91281780491E+02  0.25812386147E+03  0.28877293525E+03  0.91114212516E+02 0.  0.
         11    1    3    3    0    0  0.16487812594E+01  0.57198674171E+02 -0.23694957357E+02  0.61934302375E+02  0.00000000000E+00 0. -1.
        -12    1    3    3    0    0  0.50218892559E+02  0.60162775573E+01  0.11019529336E+02  0.51764493548E+02  0.00000000000E+00 0.  1.
        -13    1    4    4    0    0 -0.97289575992E+00 -0.44487713472E+02  0.22770723646E+03  0.23201441488E+03  0.00000000000E+00 0.  1.
         13    1    4    4    0    0 -0.10328303310E+02 -0.46794067019E+02  0.30416625009E+02  0.56758520368E+02  0.00000000000E+00 0. -1.
          2    1    1    2  501    0 -0.40566474748E+02  0.28066828763E+02  0.17133160076E+03  0.17829162395E+03  0.00000000000E+00 0. -1.
<scales pt_clust_5="13000.00000" pt_clust_6="13000.00000" pt_clust_7="13000.00000" pt_clust_8="13000.00000" pt_clust_9="49.32936"></scales>
<clustering>
<clus scale="   49.329">  1  9  2 -1</clus>
<clus scale="   77.977">  5  6 -1 -1</clus>
<clus scale="   91.114">  7  8 -1 -1</clus>
<clus scale="  112.796">  2  5  1 -1</clus>
<clus scale="   49.329">  1  5  2 -1</clus>
</clustering>
</event>
<event>
 9    1  0.8429841E-005  0.2007392E+03  0.7546771E-02  0.1150125E+00
          3   -1    0    0  502    0 -0.00000000000E+00  0.00000000000E+00  0.71238643631E+03  0.71238643631E+03  0.00000000000E+00 0. -1.
         21   -1    0    0  501  502  0.00000000000E+00 -0.00000000000E+00 -0.17409810177E+03  0.17409810177E+03  0.00000000000E+00 0.  1.
         23    2    1    2    0    0 -0.10713224690E+03  0.14342180824E+03  0.57918999564E+03  0.61302438582E+03  0.91053353311E+02 0.  0.
        -24    2    1    2    0    0  0.68599568762E+02 -0.17008384617E+03  0.14815206820E+02  0.20065904703E+03  0.80063395146E+02 0.  0.
         11    1    4    4    0    0  0.66252606066E+01 -0.29578405208E+02  0.34399906900E+02  0.45848988293E+02  0.00000000000E+00 0. -1.
        -12    1    4    4    0    0  0.61974308156E+02 -0.14050544096E+03 -0.19584700080E+02  0.15481005874E+03  0.00000000000E+00 0.  1.
        -11    1    3    3    0    0 -0.53281017973E+02  0.11949343702E+02  0.11019177496E+03  0.12297918913E+03  0.00000000000E+00 0.  1.
         11    1    3    3    0    0 -0.53851228925E+02  0.13147246454E+03  0.46899822068E+03  0.49004519669E+03  0.00000000000E+00 0. -1.
          4    1    1    2  501    0  0.38532678135E+02  0.26662037921E+02 -0.55716867926E+02  0.72801105224E+02  0.00000000000E+00 0. -1.
<scales pt_clust_5="13000.00000" pt_clust_6="13000.00000" pt_clust_7="13000.00000" pt_clust_8="13000.00000" pt_clust_9="46.85757"></scales>
<clustering>
<clus scale="   46.858">  2  9  1 -1</clus>
<clus scale="   80.063">  5  6 -1 -1</clus>
<clus scale="   91.053">  7  8 -1 -1</clus>
<clus scale="  195.999">  2  5  1 -1</clus>
<clus scale="   46.858">  2  5  1 -1</clus>
</clustering>
</event>
<event>
 9    1  0.8429841E-005  0.1409718E+03  0.7546771E-02  0.1214613E+00
          1   -1    0    0  502    0 -0.00000000000E+00  0.00000000000E+00  0.73846961329E+03  0.73846961329E+03  0.00000000000E+00 0. -1.
         21   -1    0    0  501  502  0.00000000000E+00 -0.00000000000E+00 -0.80011675556E+02  0.80011675556E+02  0.00000000000E+00 0.  1.
         23    2    1    2    0    0  0.65824944801E+01  0.89753440945E+02  0.28989152743E+03  0.31779735505E+03  0.94122536119E+02 0.  0.
        -24    2    1    2    0    0 -0.10191788436E+02 -0.16950519874E+03  0.86670225948E+02  0.20770129160E+03  0.82414886479E+02 0.  0.
         13    1    4    4    0    0 -0.42012212878E+02 -0.75998039779E+02  0.59477104110E+02  0.10525328496E+03  0.00000000000E+00 0. -1.
        -14    1    4    4    0    0  0.31820424442E+02 -0.93507158964E+02  0.27193121838E+02  0.10244800664E+03  0.00000000000E+00 0.  1.
        -11    1    3    3    0    0  0.30062597031E+02  0.93182594431E+02  0.17544908104E+03  0.20092071989E+03  0.00000000000E+00 0. -1.
         11    1    3    3    0    0 -0.23480102550E+02 -0.34291534863E+01  0.11444244639E+03  0.11687663515E+03  0.00000000000E+00 0.  1.
          2    1    1    2  501    0  0.36092939556E+01  0.79751757798E+02  0.28189618436E+03  0.29298264220E+03  0.00000000000E+00 0. -1.
<scales pt_clust_5="13000.00000" pt_clust_6="13000.00000" pt_clust_7="13000.00000" pt_clust_8="13000.00000" pt_clust_9="79.83343"></scales>
<clustering>
<clus scale="   79.833">  2  9  1 -1</clus>
<clus scale="   82.415">  5  6 -1 -1</clus>
<clus scale="   94.123">  7  8 -1 -1</clus>
<clus scale="  133.440">  2  5  1 -1</clus>
<clus scale="   79.833">  2  5  1 -1</clus>
</clustering>
</event>
<event>
 9    1  0.8429841E-005  0.9652473E+02  0.7546771E-02  0.1293389E+00
         21   -1    0    0  501  502  0.00000000000E+00  0.00000000000E+00  0.37678290965E+02  0.37678290965E+02  0.00000000000E+00 0.  1.
          1   -1    0    0  502    0 -0.00000000000E+00 -0.00000000000E+00 -0.45652146491E+03  0.45652146491E+03  0.00000000000E+00 0. -1.
         23    2    1    2    0    0  0.34649509916E+02 -0.12273568350E+02 -0.33526800882E+03  0.34919495148E+03  0.90450248126E+02 0.  0.
        -24    2    1    2    0    0 -0.12596684279E+02  0.25900020605E+02 -0.39433109999E+02  0.93813707995E+02  0.80103396441E+02 0.  0.
         13    1    4    4    0    0 -0.29327083860E+02 -0.14496855905E+02  0.30413980934E+01  0.32855544148E+02  0.00000000000E+00 0. -1.
        -14    1    4    4    0    0  0.16730399581E+02  0.40396876511E+02 -0.42474508093E+02  0.60958163848E+02  0.00000000000E+00 0.  1.
        -13    1    3    3    0    0  0.64392662265E+02 -0.13391336968E+02 -0.26160326938E+03  0.26974434825E+03  0.00000000000E+00 0. -1.
         13    1    3    3    0    0 -0.29743152349E+02  0.11177686177E+01 -0.73664739435E+02  0.79450603235E+02  0.00000000000E+00 0.  1.
          2    1    1    2  501    0 -0.22052825637E+02 -0.13626452255E+02 -0.44142055127E+02  0.51191096398E+02  0.00000000000E+00 0. -1.
<scales pt_clust_5="13000.00000" pt_clust_6="13000.00000" pt_clust_7="13000.00000" pt_clust_8="13000.00000" pt_clust_9="25.92312"></scales>
<clustering>
<clus scale="   25.923">  1  9  2 -1</clus>
<clus scale="   80.103">  5  6 -1 -1</clus>
<clus scale="   86.904">  1  5  2 -1</clus>
<clus scale="   90.450">  7  8 -1 -1</clus>
<clus scale="   25.923">  1  5  2 -1</clus>
</clustering>
</event>
<event>
 9    1  0.8429841E-005  0.1196762E+03  0.7546771E-02  0.1247513E+00
         -4   -1    0    0    0  501 -0.00000000000E+00  0.00000000000E+00  0.97338810776E+02  0.97338810776E+02  0.00000000000E+00 0.  1.
         21   -1    0    0  501  502  0.00000000000E+00 -0.00000000000E+00 -0.61179643094E+03  0.61179643094E+03  0.00000000000E+00 0.  1.
         23    2    1    2    0    0 -0.54975449808E+01  0.82486427302E+02  0.28482118004E+02  0.12627242051E+03  0.91100271381E+02 0.  0.
        -24    2    1    2    0    0 -0.27415763846E+02 -0.27370723369E+02 -0.49499081088E+03  0.50273713028E+03  0.78917290255E+02 0.  0.
         11    1    4    4    0    0  0.17274185600E+02 -0.31423925237E+02 -0.12521276854E+03  0.13024629734E+03  0.00000000000E+00 0. -1.
        -12    1    4    4    0    0 -0.44689949446E+02  0.40532018681E+01 -0.36977804234E+03  0.37249083294E+03  0.00000000000E+00 0.  1.
        -11    1    3    3    0    0  0.15627988852E+02  0.77123148859E+02  0.51912757200E+02  0.94271673824E+02  0.00000000000E+00 0.  1.
         11    1    3    3    0    0 -0.21125533832E+02  0.53632784424E+01 -0.23430639195E+02  0.32000746686E+02  0.00000000000E+00 0. -1.
         -3    1    1    2    0  502  0.32913308826E+02 -0.55115703932E+02 -0.47948927280E+02  0.80125690919E+02  0.00000000000E+00 0.  1.
<scales pt_clust_5="13000.00000" pt_clust_6="13000.00000" pt_clust_7="13000.00000" pt_clust_8="13000.00000" pt_clust_9="64.19526"></scales>
<clustering>
<clus scale="   64.195">  2  9  1 -1</clus>
<clus scale="   78.917">  5  6 -1 -1</clus>
<clus scale="   91.100">  7  8 -1 -1</clus>
<clus scale="  110.685">  2  5  1 -1</clus>
<clus scale="   64.195">  2  5  1 -1</clus>
</clustering>
</event>
<event>
 9    1  0.8429841E-005  0.1380501E+03  0.7546771E-02  0.1217023E+00
          1   -1    0    0  502    0 -0.00000000000E+00  0.00000000000E+00  0.79235524730E+03  0.79235524730E+03  0.00000000000E+00 0. -1.
         21   -1    0    0  501  502  0.00000000000E+00 -0.00000000000E+00 -0.79417017098E+02  0.79417017098E+02  0.00000000000E+00 0. -1.
        -24    2    1    2    0    0 -0.61679989241E+02 -0.10559965881E+03  0.64602594902E+03  0.66453430484E+03  0.96439652014E+02 0.  0.
         23    2    1    2    0    0  0.13542905026E+02  0.29345953555E+02  0.64615606438E+02  0.11703218836E+03  0.92069328505E+02 0.  0.
         11    1    3    3    0    0 -0.78668880209E+02 -0.61031145243E+02  0.52670731516E+03  0.53603562312E+03  0.00000000000E+00 0. -1.
        -12    1    3    3    0    0  0.16988890967E+02 -0.44568513567E+02  0.11931863386E+03  0.12849868172E+03  0.00000000000E+00 0.  1.
        -11    1    4    4    0    0  0.40930059587E+02  0.47499220968E+02  0.53259134770E+02  0.82267740986E+02  0.00000000000E+00 0.  1.
         11    1    4    4    0    0 -0.27387154562E+02 -0.18153267414E+02  0.11356471668E+02  0.34764447378E+02  0.00000000000E+00 0. -1.
          2    1    1    2  501    0  0.48137084216E+02  0.76253705255E+02  0.22966747386E+01  0.90205771195E+02  0.00000000000E+00 0. -1.
<scales pt_clust_5="13000.00000" pt_clust_6="13000.00000" pt_clust_7="13000.00000" pt_clust_8="13000.00000" pt_clust_9="90.17653"></scales>
<clustering>
<clus scale="   90.177">  2  9  1 -1</clus>
<clus scale="   92.069">  7  8 -1 -1</clus>
<clus scale="   96.440">  5  6 -1 -1</clus>
<clus scale="  135.033">  2  7  1 -1</clus>
<clus scale="   90.177">  2  5  1 -1</clus>
</clustering>
</event>
<event>
 9    1  0.8429841E-005  0.2207501E+03  0.7546771E-02  0.1176261E+00
         21   -1    0    0  501  502  0.00000000000E+00  0.00000000000E+00  0.15608460711E+03  0.15608460711E+03  0.00000000000E+00 0. -1.
          1   -1    0    0  502    0 -0.00000000000E+00 -0.00000000000E+00 -0.57181595317E+03  0.57181595317E+03  0.00000000000E+00 0. -1.
        -24    2    1    2    0    0 -0.14648087920E+02 -0.82236823161E+01 -0.13527964639E+03  0.15740725757E+03  0.78703663051E+02 0.  0.
         23    2    1    2    0    0  0.19309488262E+03 -0.76629765126E+02 -0.29442105197E+03  0.37240617823E+03  0.94047068733E+02 0.  0.
         13    1    3    3    0    0 -0.17342170538E+02  0.24261349427E+02 -0.11547992129E+03  0.11926850454E+03  0.00000000000E+00 0. -1.
        -14    1    3    3    0    0  0.26940826189E+01 -0.32485031743E+02 -0.19799725107E+02  0.38138753032E+02  0.00000000000E+00 0.  1.
        -11    1    4    4    0    0  0.17740660959E+03 -0.93024989237E+02 -0.23494870748E+03  0.30875175934E+03  0.00000000000E+00 0. -1.
         11    1    4    4    0    0  0.15688273037E+02  0.16395224111E+02 -0.59472344492E+02  0.63654418887E+02  0.00000000000E+00 0.  1.
          2    1    1    2  501    0 -0.17844679470E+03  0.84853447443E+02  0.13969352299E+02  0.19808712448E+03  0.00000000000E+00 0. -1.
<scales pt_clust_5="13000.00000" pt_clust_6="13000.00000" pt_clust_7="13000.00000" pt_clust_8="13000.00000" pt_clust_9="199.71415"></scales>
<clustering>
<clus scale="   78.704">  5  6 -1 -1</clus>
<clus scale="   80.476">  2  5  1 -1</clus>
<clus scale="   94.047">  7  8 -1 -1</clus>
<clus scale="  199.714">  1  9  2 -1</clus>
<clus scale="  199.714">  1  5  2 -1</clus>
</clustering>
</event>
<event>
 9    1  0.8429841E-005  0.9140795E+02  0.7546771E-02  0.1308826E+00
          1   -1    0    0  502    0 -0.00000000000E+00  0.00000000000E+00  0.47839821771E+02  0.47839821771E+02  0.00000000000E+00 0. -1.
         21   -1    0    0  501  502  0.00000000000E+00 -0.00000000000E+00 -0.28397600445E+03  0.28397600445E+03  0.00000000000E+00 0. -1.
        -24    2    1    2    0    0 -0.81711352366E+01 -0.93712553703E+01 -0.32283596757E+02  0.84244296183E+02  0.76813299249E+02 0.  0.
         23    2    1    2    0    0 -0.40946806083E+01 -0.23420527014E+02 -0.18540384044E+03  0.20799745468E+03  0.91230858864E+02 0.  0.
         11    1    3    3    0    0 -0.26135712077E+02 -0.36326284774E+02 -0.13242169310E+02  0.46669363176E+02  0.00000000000E+00 0. -1.
        -12    1    3    3    0    0  0.17964576840E+02  0.26955029404E+02 -0.19041427447E+02  0.37574933006E+02  0.00000000000E+00 0.  1.
        -13    1    4    4    0    0  0.27461222300E+02 -0.43372696868E+02 -0.14059228009E+03  0.14967130247E+03  0.00000000000E+00 0. -1.
         13    1    4    4    0    0 -0.31555902909E+02  0.19952169854E+02 -0.44811560358E+02  0.58326152213E+02  0.00000000000E+00 0.  1.
          2    1    1    2  501    0  0.12265815845E+02  0.32791782384E+02 -0.18448745476E+02  0.39574075351E+02  0.00000000000E+00 0. -1.
<scales pt_clust_5="13000.00000" pt_clust_6="13000.00000" pt_clust_7="13000.00000" pt_clust_8="13000.00000" pt_clust_9="35.01075"></scales>
<clustering>
<clus scale="   35.011">  2  9  1 -1</clus>
<clus scale="   76.813">  5  6 -1 -1</clus>
<clus scale="   77.024">  1  5  2 -1</clus>
<clus scale="   91.231">  7  8 -1 -1</clus>
<clus scale="   35.011">  2  5  1 -1</clus>
</clustering>
</event>
<event>
 9    1  0.8429841E-005  0.9751626E+02  0.7546771E-02  0.1289971E+00
         -2   -1    0    0    0  501 -0.00000000000E+00  0.00000000000E+00  0.96564222870E+02  0.96564222870E+02  0.00000000000E+00 0.  1.
         21   -1    0    0  501  502  0.00000000000E+00 -0.00000000000E+00 -0.64319043445E+03  0.64319043445E+03  0.00000000000E+00 0.  1.
        -24    2    1    2    0    0  0.40343950428E+02  0.21758699187E+02  0.17334000710E+02  0.97377484163E+02  0.84147676824E+02 0.  0.
         23    2    1    2    0    0 -0.11463951497E+02  0.60028869171E+02 -0.50556414321E+02  0.12169807770E+03  0.92301591368E+02 0.  0.
         11    1    3    3    0    0  0.64421015210E+02  0.20117556569E+02 -0.29766978741E+00  0.67489791008E+02  0.00000000000E+00 0. -1.
        -12    1    3    3    0    0 -0.24077064782E+02  0.16411426176E+01  0.17631670498E+02  0.29887693155E+02  0.00000000000E+00 0.  1.
        -13    1    4    4    0    0 -0.38702224008E+02  0.66302728146E+02 -0.18122726796E+02  0.78881855514E+02  0.00000000000E+00 0. -1.
         13    1    4    4    0    0  0.27238272511E+02 -0.62738589749E+01 -0.32433687526E+02  0.42816222187E+02  0.00000000000E+00 0.  1.
         -1    1    1    2    0  502 -0.28879998931E+02 -0.81787568358E+02 -0.51340379797E+03  0.52067909545E+03  0.00000000000E+00 0.  1.
<scales pt_clust_5="13000.00000" pt_clust_6="13000.00000" pt_clust_7="13000.00000" pt_clust_8="13000.00000" pt_clust_9="86.73673"></scales>
<clustering>
<clus scale="   84.148">  5  6 -1 -1</clus>
<clus scale="   86.737">  2  9  1 -1</clus>
<clus scale="   89.837">  1  5  2 -1</clus>
<clus scale="   92.302">  7  8 -1 -1</clus>
<clus scale="   86.737">  2  5  1 -1</clus>
</clustering>
</event>
<event>
 9    1  0.8429841E-005  0.9757944E+02  0.7546771E-02  0.1291806E+00
         -2   -1    0    0    0  501 -0.00000000000E+00  0.00000000000E+00  0.14489819180E+03  0.14489819180E+03  0.00000000000E+00 0.  1.
         21   -1    0    0  501  502  0.00000000000E+00 -0.00000000000E+00 -0.89007360644E+02  0.89007360644E+02  0.00000000000E+00 0.  1.
        -24    2    1    2    0    0  0.17923042964E+01  0.28837361922E+02  0.71048986014E+02  0.11127894704E+03  0.80624064909E+02 0.  0.
         23    2    1    2    0    0  0.15084176150E+02 -0.39663957134E+02 -0.14133367908E+02  0.10254972955E+03  0.92281813353E+02 0.  0.
         13    1    3    3    0    0  0.71002523995E+01  0.41244510559E+02  0.83191451721E+02  0.93125404025E+02  0.00000000000E+00 0. -1.
        -14    1    3    3    0    0 -0.53079481032E+01 -0.12407148637E+02 -0.12142465708E+02  0.18153543010E+02  0.00000000000E+00 0.  1.
        -11    1    4    4    0    0 -0.26476508969E+02 -0.14547791595E+02 -0.37914928013E+02  0.48478712171E+02  0.00000000000E+00 0. -1.
         11    1    4    4    0    0  0.41560685119E+02 -0.25116165539E+02  0.23781560105E+02  0.54071017375E+02  0.00000000000E+00 0.  1.
         -1    1    1    2    0  502 -0.16876480446E+02  0.10826595212E+02 -0.10247869489E+01  0.20076875863E+02  0.00000000000E+00 0.  1.
<scales pt_clust_5="13000.00000" pt_clust_6="13000.00000" pt_clust_7="13000.00000" pt_clust_8="13000.00000" pt_clust_9="20.05070"></scales>
<clustering>
<clus scale="   20.051">  2  9  1 -1</clus>
<clus scale="   80.624">  5  6 -1 -1</clus>
<clus scale="   86.637">  1  5  2 -1</clus>
<clus scale="   92.282">  7  8 -1 -1</clus>
<clus scale="   20.051">  2  5  1 -1</clus>
</clustering>
</event>
<event>
 9    1  0.8429841E-005  0.1475437E+03  0.7546771E-02  0.1205101E+00
         21   -1    0    0  501  502  0.00000000000E+00  0.00000000000E+00  0.13944461474E+03  0.13944461474E+03  0.00000000000E+00 0. -1.
          3   -1    0    0  502    0 -0.00000000000E+00 -0.00000000000E+00 -0.86625346777E+03  0.86625346777E+03  0.00000000000E+00 0. -1.
        -24    2    1    2    0    0 -0.10245865991E+03  0.69082752926E+02 -0.73240644732E+03  0.74738480871E+03  0.83033995926E+02 0.  0.
         23    2    1    2    0    0  0.68312334581E+02  0.50396941780E+02  0.37261425781E+02  0.13007924085E+03  0.91245647857E+02 0.  0.
         13    1    3    3    0    0 -0.32534792317E+02  0.71512192819E+02 -0.41277244475E+03  0.42018281447E+03  0.00000000000E+00 0. -1.
        -14    1    3    3    0    0 -0.69923867594E+02 -0.24294398932E+01 -0.31963400257E+03  0.32720199424E+03  0.00000000000E+00 0.  1.
        -13    1    4    4    0    0  0.18331008660E+02 -0.26235081846E+02  0.21317101702E+01  0.32075685281E+02  0.00000000000E+00 0.  1.
         13    1    4    4    0    0  0.49981325921E+02  0.76632023626E+02  0.35129715611E+02  0.98003555572E+02  0.00000000000E+00 0. -1.
          4    1    1    2  501    0  0.34146325329E+02 -0.11947969471E+03 -0.31663831494E+02  0.12823403295E+03  0.00000000000E+00 0. -1.
<scales pt_clust_5="13000.00000" pt_clust_6="13000.00000" pt_clust_7="13000.00000" pt_clust_8="13000.00000" pt_clust_9="124.26331"></scales>
<clustering>
<clus scale="   83.034">  5  6 -1 -1</clus>
<clus scale="   91.246">  7  8 -1 -1</clus>
<clus scale="  124.263">  1  9  2 -1</clus>
<clus scale="  142.611">  2  5  1 -1</clus>
<clus scale="  124.263">  1  5  2 -1</clus>
</clustering>
</event>
<event>
 9    1  0.8429841E-005  0.1172995E+03  0.7546771E-02  0.1251365E+00
         -2   -1    0    0    0  501 -0.00000000000E+00  0.00000000000E+00  0.38989247464E+03  0.38989247464E+03  0.00000000000E+00 0.  1.
         21   -1    0    0  501  502  0.00000000000E+00 -0.00000000000E+00 -0.74239875117E+02  0.74239875117E+02  0.00000000000E+00 0. -1.
        -24    2    1    2    0    0 -0.62858260844E+02 -0.95375453108E+01  0.18457395430E+03  0.21070008100E+03  0.79277069818E+02 0.  0.
         23    2    1    2    0    0  0.11571982239E+03  0.26377804852E+02  0.54610492700E+02  0.15895837088E+03  0.90546075988E+02 0.  0.
         11    1    3    3    0    0 -0.67549699524E+01 -0.35292242345E+02  0.41613245622E+02  0.54980307383E+02  0.00000000000E+00 0. -1.
        -12    1    3    3    0    0 -0.56103290892E+02  0.25754697034E+02  0.14296070868E+03  0.15571977361E+03  0.00000000000E+00 0.  1.
        -13    1    4    4    0    0  0.50515913226E+02 -0.26037745685E+02  0.49122575100E+02  0.75118899579E+02  0.00000000000E+00 0.  1.
         13    1    4    4    0    0  0.65203909164E+02  0.52415550537E+02  0.54879175994E+01  0.83839471301E+02  0.00000000000E+00 0. -1.
         -1    1    1    2    0  502 -0.52861561546E+02 -0.16840259542E+02  0.76468152520E+02  0.94473897879E+02  0.00000000000E+00 0.  1.
<scales pt_clust_5="13000.00000" pt_clust_6="13000.00000" pt_clust_7="13000.00000" pt_clust_8="13000.00000" pt_clust_9="55.47920"></scales>
<clustering>
<clus scale="   55.479">  2  9  1 -1</clus>
<clus scale="   79.277">  5  6 -1 -1</clus>
<clus scale="   90.546">  7  8 -1 -1</clus>
<clus scale="  108.837">  1  5  2 -1</clus>
<clus scale="   55.479">  2  5  1 -1</clus>
</clustering>
</event>
<event>
 9    1  0.8429841E-005  0.1155966E+03  0.7546771E-02  0.1253867E+00
         21   -1    0    0  501  502  0.00000000000E+00  0.00000000000E+00  0.17303307006E+03  0.17303307006E+03  0.00000000000E+00 0. -1.
          3   -1    0    0  502    0 -0.00000000000E+00 -0.00000000000E+00 -0.36227895395E+03  0.36227895395E+03  0.00000000000E+00 0. -1.
        -24    2    1    2    0    0  0.68207804880E+02  0.87446293312E+01 -0.26820384800E+03  0.28825506473E+03  0.80180453150E+02 0.  0.
         23    2    1    2    0    0 -0.12426339815E+03 -0.30188552671E+02  0.97502432348E+02  0.18424001344E+03  0.89916168770E+02 0.  0.
         11    1    3    3    0    0  0.35395613218E+02  0.30329784087E+02 -0.22537258743E+03  0.23014245241E+03  0.00000000000E+00 0. -1.
        -12    1    3    3    0    0  0.32812191662E+02 -0.21585154756E+02 -0.42831260574E+02  0.58112612313E+02  0.00000000000E+00 0.  1.
        -13    1    4    4    0    0 -0.57876690908E+02 -0.38665095210E+02  0.94342256706E+02  0.11723976432E+03  0.00000000000E+00 0. -1.
         13    1    4    4    0    0 -0.66386707237E+02  0.84765425390E+01  0.31601756425E+01  0.67000249114E+02  0.00000000000E+00 0.  1.
          4    1    1    2  501    0  0.56055593265E+02  0.21443923340E+02 -0.18544468233E+02  0.62816945855E+02  0.00000000000E+00 0. -1.
<scales pt_clust_5="13000.00000" pt_clust_6="13000.00000" pt_clust_7="13000.00000" pt_clust_8="13000.00000" pt_clust_9="60.01726"></scales>
<clustering>
<clus scale="   60.017">  1  9  2 -1</clus>
<clus scale="   80.180">  5  6 -1 -1</clus>
<clus scale="   89.916">  7  8 -1 -1</clus>
<clus scale="  108.197">  2  5  1 -1</clus>
<clus scale="   60.017">  1  5  2 -1</clus>
</clustering>
</event>
<event>
 9    1  0.8429841E-005  0.1040121E+03  0.7546771E-02  0.1274580E+00
         -2   -1    0    0    0  501 -0.00000000000E+00  0.00000000000E+00  0.27230987883E+03  0.27230987883E+03  0.00000000000E+00 0.  1.
         21   -1    0    0  501  502  0.00000000000E+00 -0.00000000000E+00 -0.14308561687E+03  0.14308561687E+03  0.00000000000E+00 0.  1.
        -24    2    1    2    0    0  0.44229382633E+02  0.14345391497E+02  0.13300409366E+03  0.16554019819E+03  0.86899020368E+02 0.  0.
         23    2    1    2    0    0  0.44101221264E+01 -0.98444621109E+02  0.43323510252E+02  0.14188675271E+03  0.92434471129E+02 0.  0.
         11    1    3    3    0    0  0.42807399102E+02  0.21758849122E+01  0.14327704668E+03  0.14955106151E+03  0.00000000000E+00 0. -1.
        -12    1    3    3    0    0  0.14219835310E+01  0.12169506585E+02 -0.10272953027E+02  0.15989136674E+02  0.00000000000E+00 0.  1.
        -13    1    4    4    0    0 -0.27816158748E+02  0.21970339044E+01  0.62114269387E+00  0.27909701964E+02  0.00000000000E+00 0. -1.
         13    1    4    4    0    0  0.32226280874E+02 -0.10064165501E+03  0.42702367558E+02  0.11397705075E+03  0.00000000000E+00 0.  1.
         -1    1    1    2    0  502 -0.48639504759E+02  0.84099229612E+02 -0.47103341952E+02  0.10796854481E+03  0.00000000000E+00 0.  1.
<scales pt_clust_5="13000.00000" pt_clust_6="13000.00000" pt_clust_7="13000.00000" pt_clust_8="13000.00000" pt_clust_9="97.15185"></scales>
<clustering>
<clus scale="   86.899">  5  6 -1 -1</clus>
<clus scale="   92.434">  7  8 -1 -1</clus>
<clus scale="   97.152">  2  9  1 -1</clus>
<clus scale="   99.125">  1  5  2 -1</clus>
<clus scale="   97.152">  2  5  1 -1</clus>
</clustering>
</event>
<event>
 9    1  0.8429841E-005  0.9191437E+02  0.7546771E-02  0.1305348E+00
          3   -1    0    0  502    0 -0.00000000000E+00  0.00000000000E+00  0.80467403017E+02  0.80467403017E+02  0.00000000000E+00 0. -1.
         21   -1    0    0  501  502  0.00000000000E+00 -0.00000000000E+00 -0.30988136407E+03  0.30988136407E+03  0.00000000000E+00 0. -1.
         23    2    1    2    0    0  0.12029929911E+02  0.62038257497E+01 -0.38564344982E+01  0.92786076374E+02  0.91712470331E+02 0.  0.
        -24    2    1    2    0    0  0.41746572744E+02  0.53041345460E+02 -0.17111596994E+03  0.20078570153E+03  0.80486409442E+02 0.  0.
         13    1    4    4    0    0  0.56699076612E+02  0.49189125910E+02 -0.16935562017E+03  0.18524492295E+03  0.00000000000E+00 0. -1.
        -14    1    4    4    0    0 -0.14952503868E+02  0.38522195498E+01 -0.17603497707E+01  0.15540778574E+02  0.00000000000E+00 0.  1.
        -11    1    3    3    0    0  0.22379564554E+02  0.45701749891E+02 -0.88485296079E+01  0.51650666297E+02  0.00000000000E+00 0.  1.
         11    1    3    3    0    0 -0.10349634642E+02 -0.39497924141E+02  0.49920951098E+01  0.41135410078E+02  0.00000000000E+00 0. -1.
          4    1    1    2  501    0 -0.53776502655E+02 -0.59245171210E+02 -0.54441556615E+02  0.96776989187E+02  0.00000000000E+00 0. -1.
<scales pt_clust_5="13000.00000" pt_clust_6="13000.00000" pt_clust_7="13000.00000" pt_clust_8="13000.00000" pt_clust_9="80.01193"></scales>
<clustering>
<clus scale="   80.012">  2  9  1 -1</clus>
<clus scale="   80.486">  5  6 -1 -1</clus>
<clus scale="   80.716">  2  5  1 -1</clus>
<clus scale="   91.712">  7  8 -1 -1</clus>
<clus scale="   80.012">  2  5  1 -1</clus>
</clustering>
</event>
<event>
 9    1  0.8429841E-005  0.3142955E+03  0.7546771E-02  0.1123946E+00
         21   -1    0    0  501  502  0.00000000000E+00  0.00000000000E+00  0.64764126970E+03  0.64764126970E+03  0.00000000000E+00 0.  1.
         -2   -1    0    0    0  501 -0.00000000000E+00 -0.00000000000E+00 -0.37684505286E+03  0.37684505286E+03  0.00000000000E+00 0.  1.
        -24    2    1    2    0    0  0.50669381602E+02 -0.17031683448E+02 -0.14708535222E+03  0.17583599386E+03  0.80166897308E+02 0.  0.
         23    2    1    2    0    0  0.15440371489E+03 -0.21519687143E+03 -0.51976570530E+02  0.28584330321E+03  0.94099040719E+02 0.  0.
         13    1    3    3    0    0 -0.16940126822E+02 -0.20652836600E+02 -0.58753635795E+02  0.64540663737E+02  0.00000000000E+00 0. -1.
        -14    1    3    3    0    0  0.67609508424E+02  0.36211531520E+01 -0.88331716429E+02  0.11129533012E+03  0.00000000000E+00 0.  1.
        -11    1    4    4    0    0  0.12389949943E+03 -0.20504150591E+03 -0.19844888730E+02  0.24038911105E+03  0.00000000000E+00 0.  1.
         11    1    4    4    0    0  0.30504215464E+02 -0.10155365519E+02 -0.32131681800E+02  0.45454192163E+02  0.00000000000E+00 0. -1.
         -1    1    1    2    0  502 -0.20507309649E+03  0.23222855487E+03  0.46985813959E+03  0.56280702550E+03  0.00000000000E+00 0.  1.
<scales pt_clust_5="13000.00000" pt_clust_6="13000.00000" pt_clust_7="13000.00000" pt_clust_8="13000.00000" pt_clust_9="299.87838"></scales>
<clustering>
<clus scale="   80.167">  5  6 -1 -1</clus>
<clus scale="   94.099">  7  8 -1 -1</clus>
<clus scale="   96.355">  2  5  1 -1</clus>
<clus scale="  299.878">  1  9  2 -1</clus>
<clus scale="  299.878">  1  5  2 -1</clus>
</clustering>
</event>
<event>
 9    1  0.8429841E-005  0.9737675E+02  0.7546771E-02  0.1291737E+00
         21   -1    0    0  501  502  0.00000000000E+00  0.00000000000E+00  0.32945514433E+02  0.32945514433E+02  0.00000000000E+00 0.  1.
          3   -1    0    0  502    0 -0.00000000000E+00 -0.00000000000E+00 -0.42556362836E+03  0.42556362836E+03  0.00000000000E+00 0. -1.
         23    2    1    2    0    0 -0.19593891360E+02 -0.14394945730E+02 -0.22111685023E+03  0.24033946773E+03  0.90990456936E+02 0.  0.
        -24    2    1    2    0    0  0.45526556714E+02  0.32941575868E+02 -0.10013913568E+03  0.14000936584E+03  0.80105937621E+02 0.  0.
         13    1    4    4    0    0 -0.89588724358E+01  0.38617807452E+02 -0.60739184139E+02  0.72531682302E+02  0.00000000000E+00 0. -1.
        -14    1    4    4    0    0  0.54485429150E+02 -0.56762315841E+01 -0.39399951544E+02  0.67477683543E+02  0.00000000000E+00 0.  1.
        -11    1    3    3    0    0 -0.12252851600E+02  0.27488449437E+02 -0.23456245699E+02  0.38156817046E+02  0.00000000000E+00 0.  1.
         11    1    3    3    0    0 -0.73410397606E+01 -0.41883395167E+02 -0.19766060453E+03  0.20218265069E+03  0.00000000000E+00 0. -1.
          4    1    1    2  501    0 -0.25932665354E+02 -0.18546630137E+02 -0.71362128018E+02  0.78160309218E+02  0.00000000000E+00 0. -1.
<scales pt_clust_5="13000.00000" pt_clust_6="13000.00000" pt_clust_7="13000.00000" pt_clust_8="13000.00000" pt_clust_9="31.88231"></scales>
<clustering>
<clus scale="   31.882">  1  9  2 -1</clus>
<clus scale="   80.106">  5  6 -1 -1</clus>
<clus scale="   87.292">  1  5  2 -1</clus>
<clus scale="   90.990">  7  8 -1 -1</clus>
<clus scale="   31.882">  1  5  2 -1</clus>
</clustering>
</event>
<event>
 9    1  0.8429841E-005  0.2390690E+03  0.7546771E-02  0.1153363E+00
          1   -1    0    0  502    0 -0.00000000000E+00  0.00000000000E+00  0.19300805756E+03  0.19300805756E+03  0.00000000000E+00 0. -1.
         21   -1    0    0  501  502  0.00000000000E+00 -0.00000000000E+00 -0.49152439947E+03  0.49152439947E+03  0.00000000000E+00 0.  1.
        -24    2    1    2    0    0 -0.51450686952E+02 -0.47367597412E+02 -0.74618707638E+02  0.13084946083E+03  0.81625776554E+02 0.  0.
         23    2    1    2    0    0  0.17680227389E+03  0.16780228162E+03 -0.26910716040E+03  0.37406831205E+03  0.89954369171E+02 0.  0.
         13    1    3    3    0    0 -0.68775879219E+02 -0.54362302736E+02 -0.53719504250E+02  0.10281617897E+03  0.00000000000E+00 0. -1.
        -14    1    3    3    0    0  0.17325192267E+02  0.69947053242E+01 -0.20899203388E+02  0.28033281862E+02  0.00000000000E+00 0.  1.
        -13    1    4    4    0    0  0.16240185894E+03  0.10704600082E+03 -0.22609163129E+03  0.29824593177E+03  0.00000000000E+00 0.  1.
         13    1    4    4    0    0  0.14400414959E+02  0.60756280798E+02 -0.43015529115E+02  0.75822380287E+02  0.00000000000E+00 0. -1.
          2    1    1    2  501    0 -0.12535158694E+03 -0.12043468420E+03  0.45209526129E+02  0.17961468415E+03  0.00000000000E+00 0. -1.
<scales pt_clust_5="13000.00000" pt_clust_6="13000.00000" pt_clust_7="13000.00000" pt_clust_8="13000.00000" pt_clust_9="221.50005"></scales>
<clustering>
<clus scale="   81.626">  5  6 -1 -1</clus>
<clus scale="   89.954">  7  8 -1 -1</clus>
<clus scale="  107.488">  1  5  2 -1</clus>
<clus scale="  221.500">  2  9  1 -1</clus>
<clus scale="  221.500">  2  5  1 -1</clus>
</clustering>
</event>
<event>
 9    1  0.8429841E-005  0.1810472E+03  0.7546771E-02  0.1168564E+00
         21   -1    0    0  501  502  0.00000000000E+00  0.00000000000E+00  0.10920477404E+03  0.10920477404E+03  0.00000000000E+00 0.  1.
          1   -1    0    0  502    0 -0.00000000000E+00 -0.00000000000E+00 -0.53154060470E+03  0.53154060470E+03  0.00000000000E+00 0. -1.
        -24    2    1    2    0    0  0.33823376688E+02 -0.16913356668E+03 -0.25924356144E+03  0.32095127267E+03  0.77796600758E+02 0.  0.
         23    2    1    2    0    0 -0.57769370026E+02  0.10563655260E+03 -0.10011695829E+02  0.15234577570E+03  0.92804202293E+02 0.  0.
         11    1    3    3    0    0  0.40983679461E+02 -0.13196998554E+03 -0.24346234673E+03  0.27994580429E+03  0.00000000000E+00 0. -1.
        -12    1    3    3    0    0 -0.71603027728E+01 -0.37163581136E+02 -0.15781214710E+02  0.41005468372E+02  0.00000000000E+00 0.  1.
        -11    1    4    4    0    0  0.60798546114E+01  0.42842011513E+02  0.31615008543E+02  0.53590216904E+02  0.00000000000E+00 0.  1.
         11    1    4    4    0    0 -0.63849224638E+02  0.62794541084E+02 -0.41626704372E+02  0.98755558798E+02  0.00000000000E+00 0. -1.
          2    1    1    2  501    0  0.23945993338E+02  0.63497014081E+02 -0.15308057339E+03  0.16744833037E+03  0.00000000000E+00 0. -1.
<scales pt_clust_5="13000.00000" pt_clust_6="13000.00000" pt_clust_7="13000.00000" pt_clust_8="13000.00000" pt_clust_9="67.86226"></scales>
<clustering>
<clus scale="   67.862">  1  9  2 -1</clus>
<clus scale="   77.797">  5  6 -1 -1</clus>
<clus scale="   92.804">  7  8 -1 -1</clus>
<clus scale="  173.833">  2  5  1 -1</clus>
<clus scale="   67.862">  1  5  2 -1</clus>
</clustering>
</event>
<event>
 9    1  0.8429841E-005  0.1607265E+03  0.7546771E-02  0.1202953E+00
          3   -1    0    0  502    0 -0.00000000000E+00  0.00000000000E+00  0.47018551925E+03  0.47018551925E+03  0.00000000000E+00 0. -1.
         21   -1    0    0  501  502  0.00000000000E+00 -0.00000000000E+00 -0.16431943345E+03  0.16431943345E+03  0.00000000000E+00 0.  1.
         23    2    1    2    0    0  0.30845074121E+01 -0.73551510423E+02  0.16776270191E+03  0.20370674397E+03  0.89066124382E+02 0.  0.
        -24    2    1    2    0    0  0.13916589603E+03 -0.65074936028E+01 -0.63626464698E+02  0.17129955129E+03  0.76718414827E+02 0.  0.
         13    1    4    4    0    0  0.44321304170E+02 -0.38477387371E+02 -0.28307103075E+02  0.65162715004E+02  0.00000000000E+00 0. -1.
        -14    1    4    4    0    0  0.94844591858E+02  0.31969893768E+02 -0.35319361624E+02  0.10613683629E+03  0.00000000000E+00 0.  1.
        -11    1    3    3    0    0  0.32908608180E+02 -0.11175074110E+02  0.18875594064E+02  0.39549296137E+02  0.00000000000E+00 0.  1.
         11    1    3    3    0    0 -0.29824100768E+02 -0.62376436314E+02  0.14888710785E+03  0.16415744783E+03  0.00000000000E+00 0. -1.
          4    1    1    2  501    0 -0.14225040344E+03  0.80059004026E+02  0.20172984858E+03  0.25949865744E+03  0.00000000000E+00 0. -1.
<scales pt_clust_5="13000.00000" pt_clust_6="13000.00000" pt_clust_7="13000.00000" pt_clust_8="13000.00000" pt_clust_9="141.23493"></scales>
<clustering>
<clus scale="   76.718">  5  6 -1 -1</clus>
<clus scale="   89.066">  7  8 -1 -1</clus>
<clus scale="  115.551">  1  7  2 -1</clus>
<clus scale="  141.235">  2  9  1 -1</clus>
<clus scale="  141.235">  2  5  1 -1</clus>
</clustering>
</event>
<event>
 9    1  0.8429841E-005  0.1102204E+03  0.7546771E-02  0.1262865E+00
         21   -1    0    0  501  502  0.00000000000E+00  0.00000000000E+00  0.37992061847E+03  0.37992061847E+03  0.00000000000E+00 0. -1.
         -2   -1    0    0    0  501 -0.00000000000E+00 -0.00000000000E+00 -0.10913072046E+03  0.10913072046E+03  0.00000000000E+00 0.  1.
        -24    2    1    2    0    0 -0.86088856257E-01  0.57047791481E+02  0.81082544802E+02  0.12867340152E+03  0.82024430886E+02 0.  0.
         23    2    1    2    0    0 -0.14072133633E+02 -0.84470098394E+02  0.25763980058E+03  0.28576389324E+03  0.89160043568E+02 0.  0.
         11    1    3    3    0    0 -0.76901785060E+01  0.52104751303E+02  0.96986613953E+02  0.11036506349E+03  0.00000000000E+00 0. -1.
        -12    1    3    3    0    0  0.76040896497E+01  0.49430401787E+01 -0.15904069151E+02  0.18308338023E+02  0.00000000000E+00 0.  1.
        -11    1    4    4    0    0 -0.29171069524E+02 -0.32982025290E+02  0.33596095662E+02  0.55384681394E+02  0.00000000000E+00 0.  1.
         11    1    4    4    0    0  0.15098935891E+02 -0.51488073103E+02  0.22404370492E+03  0.23037921185E+03  0.00000000000E+00 0. -1.
         -1    1    1    2    0  502  0.14158222489E+02  0.27422306912E+02 -0.67932447375E+02  0.74614044166E+02  0.00000000000E+00 0.  1.
<scales pt_clust_5="13000.00000" pt_clust_6="13000.00000" pt_clust_7="13000.00000" pt_clust_8="13000.00000" pt_clust_9="30.86161"></scales>
<clustering>
<clus scale="   30.862">  1  9  2 -1</clus>
<clus scale="   82.024">  5  6 -1 -1</clus>
<clus scale="   89.160">  7  8 -1 -1</clus>
<clus scale="  104.532">  2  5  1 -1</clus>
<clus scale="   30.862">  1  5  2 -1</clus>
</clustering>
</event>
<event>
 9    1  0.8429841E-005  0.1185857E+03  0.7546771E-02  0.1248481E+00
         21   -1    0    0  501  502  0.00000000000E+00  0.00000000000E+00  0.22772736982E+02  0.22772736982E+02  0.00000000000E+00 0. -1.
          1   -1    0    0  502    0 -0.00000000000E+00 -0.00000000000E+00 -0.11397415237E+04  0.11397415237E+04  0.00000000000E+00 0. -1.
        -24    2    1    2    0    0 -0.93498199230E+01 -0.85827897018E+02 -0.66599788982E+03  0.67647266035E+03  0.81290983054E+02 0.  0.
         23    2    1    2    0    0 -0.83944393000E+01  0.46997863743E+02 -0.14760320105E+03  0.17968463679E+03  0.90667513105E+02 0.  0.
         11    1    3    3    0    0  0.35499800126E+02 -0.38108038080E+02 -0.25181023242E+03  0.25713975097E+03  0.00000000000E+00 0. -1.
        -12    1    3    3    0    0 -0.44849620049E+02 -0.47719858938E+02 -0.41418765740E+03  0.41933290939E+03  0.00000000000E+00 0.  1.
        -13    1    4    4    0    0  0.15430909180E+02  0.39749327230E+02 -0.15679450535E+02  0.45430905146E+02  0.00000000000E+00 0. -1.
         13    1    4    4    0    0 -0.23825348480E+02  0.72485365130E+01 -0.13192375051E+03  0.13425373165E+03  0.00000000000E+00 0.  1.
          2    1    1    2  501    0  0.17744259223E+02  0.38830033276E+02 -0.30336769584E+03  0.30635696353E+03  0.00000000000E+00 0. -1.
<scales pt_clust_5="13000.00000" pt_clust_6="13000.00000" pt_clust_7="13000.00000" pt_clust_8="13000.00000" pt_clust_9="42.69229"></scales>
<clustering>
<clus scale="   42.692">  1  9  2 -1</clus>
<clus scale="   81.291">  5  6 -1 -1</clus>
<clus scale="   90.668">  7  8 -1 -1</clus>
<clus scale="  111.580">  2  5  1 -1</clus>
<clus scale="   42.692">  1  5  2 -1</clus>
</clustering>
</event>
<event>
 9    1  0.8429841E-005  0.9467980E+02  0.7546771E-02  0.1316691E+00
         21   -1    0    0  501  502  0.00000000000E+00  0.00000000000E+00  0.30696556458E+03  0.30696556458E+03  0.00000000000E+00 0.  1.
          1   -1    0    0  502    0 -0.00000000000E+00 -0.00000000000E+00 -0.59404413828E+02  0.59404413828E+02  0.00000000000E+00 0. -1.
        -24    2    1    2    0    0 -0.11270589582E+02 -0.22275566572E+02 -0.10373824582E+02  0.60003205397E+02  0.53568100264E+02 0.  0.
         23    2    1    2    0    0  0.25031955892E+02  0.46383936675E+02  0.25811869925E+03  0.27860668536E+03  0.90655136798E+02 0.  0.
         13    1    3    3    0    0 -0.32109260220E+02 -0.12655341134E+02  0.69780407579E+00  0.34520272039E+02  0.00000000000E+00 0. -1.
        -14    1    3    3    0    0  0.20838670638E+02 -0.96202254379E+01 -0.11071628657E+02  0.25482933359E+02  0.00000000000E+00 0.  1.
        -13    1    4    4    0    0 -0.26659106328E+02  0.43696376646E+02  0.15487420022E+03  0.16311376145E+03  0.00000000000E+00 0.  1.
         13    1    4    4    0    0  0.51691062220E+02  0.26875600283E+01  0.10324449904E+03  0.11549292391E+03  0.00000000000E+00 0. -1.
          2    1    1    2  501    0 -0.13761366310E+02 -0.24108370103E+02 -0.18372391876E+00  0.27760087648E+02  0.00000000000E+00 0. -1.
<scales pt_clust_5="13000.00000" pt_clust_6="13000.00000" pt_clust_7="13000.00000" pt_clust_8="13000.00000" pt_clust_9="27.75949"></scales>
<clustering>
<clus scale="   27.759">  1  9  2 -1</clus>
<clus scale="   53.568">  5  6 -1 -1</clus>
<clus scale="   60.129">  2  5  1 -1</clus>
<clus scale="   90.655">  7  8 -1 -1</clus>
<clus scale="   27.759">  1  5  2 -1</clus>
</clustering>
</event>
<event>
 9    1  0.8429841E-005  0.1230419E+03  0.7546771E-02  0.1241920E+00
          3   -1    0    0  502    0 -0.00000000000E+00  0.00000000000E+00  0.28448347249E+03  0.28448347249E+03  0.00000000000E+00 0. -1.
         21   -1    0    0  501  502  0.00000000000E+00 -0.00000000000E+00 -0.23594581447E+03  0.23594581447E+03  0.00000000000E+00 0.  1.
         23    2    1    2    0    0 -0.23056134790E+02  0.78099867223E+02  0.23692591044E+03  0.26704557247E+03  0.92456887951E+02 0.  0.
        -24    2    1    2    0    0  0.61800250823E+02 -0.62349003770E+02 -0.17071720799E+03  0.20798038820E+03  0.80030041208E+02 0.  0.
         13    1    4    4    0    0  0.45092589491E+02 -0.79742050479E+02 -0.11328789217E+03  0.14569242518E+03  0.00000000000E+00 0. -1.
        -14    1    4    4    0    0  0.16707661332E+02  0.17393046710E+02 -0.57429315820E+02  0.62287963016E+02  0.00000000000E+00 0.  1.
        -13    1    3    3    0    0  0.13714342335E+02  0.72960401162E+02  0.96257564953E+02  0.12155995284E+03  0.00000000000E+00 0.  1.
         13    1    3    3    0    0 -0.36770477125E+02  0.51394660611E+01  0.14066834548E+03  0.14548561963E+03  0.00000000000E+00 0. -1.
          4    1    1    2  501    0 -0.38744116034E+02 -0.15750863454E+02 -0.17671044420E+02  0.45403326284E+02  0.00000000000E+00 0. -1.
<scales pt_clust_5="13000.00000" pt_clust_6="13000.00000" pt_clust_7="13000.00000" pt_clust_8="13000.00000" pt_clust_9="41.82339"></scales>
<clustering>
<clus scale="   41.823">  2  9  1 -1</clus>
<clus scale="   80.030">  5  6 -1 -1</clus>
<clus scale="   92.457">  7  8 -1 -1</clus>
<clus scale="  113.999">  2  5  1 -1</clus>
<clus scale="   41.823">  2  5  1 -1</clus>
</clustering>
</event>
<event>
 9    1  0.8429841E-005  0.2501229E+03  0.7546771E-02  0.1113748E+00
         21   -1    0    0  501  502  0.00000000000E+00  0.00000000000E+00  0.20102541715E+03  0.20102541715E+03  0.00000000000E+00 0. -1.
          1   -1    0    0  502    0 -0.00000000000E+00 -0.00000000000E+00 -0.61697249542E+03  0.61697249542E+03  0.00000000000E+00 0. -1.
         23    2    1    2    0    0  0.94234148806E+02 -0.24497035904E+03 -0.28894180984E+03  0.40093515316E+03  0.91493584257E+02 0.  0.
        -24    2    1    2    0    0 -0.65614164833E+02  0.14860913452E+03  0.70694741170E+02  0.19527483622E+03  0.82125646063E+02 0.  0.
         11    1    4    4    0    0 -0.83858212582E+02  0.13066107105E+03  0.68153205656E+02  0.16955640579E+03  0.00000000000E+00 0. -1.
        -12    1    4    4    0    0  0.18244047749E+02  0.17948063472E+02  0.25415355136E+01  0.25718430423E+02  0.00000000000E+00 0.  1.
        -13    1    3    3    0    0  0.68594781127E+02 -0.87299945439E+02 -0.16441554120E+03  0.19839101457E+03  0.00000000000E+00 0. -1.
         13    1    3    3    0    0  0.25639367679E+02 -0.15767041360E+03 -0.12452626864E+03  0.20254413860E+03  0.00000000000E+00 0.  1.
          2    1    1    2  501    0 -0.28619983973E+02  0.96361224520E+02 -0.19770000960E+03  0.22178792318E+03  0.00000000000E+00 0. -1.
<scales pt_clust_5="13000.00000" pt_clust_6="13000.00000" pt_clust_7="13000.00000" pt_clust_8="13000.00000" pt_clust_9="100.52164"></scales>
<clustering>
<clus scale="   82.126">  5  6 -1 -1</clus>
<clus scale="   91.494">  7  8 -1 -1</clus>
<clus scale="  100.522">  1  9  2 -1</clus>
<clus scale="  246.850">  1  5  2 -1</clus>
<clus scale="  100.522">  1  5  2 -1</clus>
</clustering>
</event>
<event>
 9    1  0.8429841E-005  0.3246975E+03  0.7546771E-02  0.1073507E+00
          1   -1    0    0  502    0 -0.00000000000E+00  0.00000000000E+00  0.10936869820E+04  0.10936869820E+04  0.00000000000E+00 0. -1.
         21   -1    0    0  501  502  0.00000000000E+00 -0.00000000000E+00 -0.80939589664E+02  0.80939589664E+02  0.00000000000E+00 0. -1.
        -24    2    1    2    0    0 -0.17109032318E+02  0.10756389088E+03  0.30768391695E+03  0.33537096338E+03  0.77081649718E+02 0.  0.
         23    2    1    2    0    0 -0.38216084372E+02  0.15672038186E+03  0.26508950221E+03  0.32303458738E+03  0.89761646957E+02 0.  0.
         11    1    3    3    0    0 -0.26849571515E+02  0.26884585867E+02  0.18039309835E+03  0.18435116051E+03  0.00000000000E+00 0. -1.
        -12    1    3    3    0    0  0.97405391970E+01  0.80679305013E+02  0.12729081860E+03  0.15101980287E+03  0.00000000000E+00 0.  1.
        -13    1    4    4    0    0 -0.27893472967E+02  0.13637356071E+03  0.26597979173E+03  0.30020167139E+03  0.00000000000E+00 0. -1.
         13    1    4    4    0    0 -0.10322611405E+02  0.20346821151E+02 -0.89028951961E+00  0.22832915990E+02  0.00000000000E+00 0.  1.
          2    1    1    2  501    0  0.55325116689E+02 -0.26428427274E+03  0.43997397319E+03  0.51622102092E+03  0.00000000000E+00 0. -1.
<scales pt_clust_5="13000.00000" pt_clust_6="13000.00000" pt_clust_7="13000.00000" pt_clust_8="13000.00000" pt_clust_9="270.01305"></scales>
<clustering>
<clus scale="   77.082">  5  6 -1 -1</clus>
<clus scale="   89.762">  7  8 -1 -1</clus>
<clus scale="  105.276">  5  7 -1 -1</clus>
<clus scale="  270.013">  2  9  1 -1</clus>
<clus scale="  270.013">  2  5  1 -1</clus>
</clustering>
</event>
<event>
 9    1  0.1104151E-004  0.2340172E+03  0.7546771E-02  0.1144745E+00
         -2   -1    0    0    0  501 -0.00000000000E+00  0.00000000000E+00  0.65256364582E+03  0.65256364582E+03  0.00000000000E+00 0.  1.
         21   -1    0    0  501  502  0.00000000000E+00 -0.00000000000E+00 -0.21397381484E+03  0.21397381484E+03  0.00000000000E+00 0. -1.
         23    2    1    2    0    0  0.11038219010E+03 -0.22533138246E+02  0.13867234961E+03  0.19748809396E+03  0.84140100429E+02 0.  0.
        -24    2    1    2    0    0 -0.65506115222E+02 -0.20935485264E+03 -0.56222638276E+02  0.24170677903E+03  0.84502523755E+02 0.  0.
         13    1    4    4    0    0 -0.71431036827E+02 -0.21502929900E+03 -0.56414151708E+02  0.23350064018E+03  0.00000000000E+00 0. -1.
        -14    1    4    4    0    0  0.59249216049E+01  0.56744463606E+01  0.19151343183E+00  0.82061388557E+01  0.00000000000E+00 0.  1.
        -11    1    3    3    0    0  0.70176839672E+02  0.21117215718E+02  0.43187570753E+02  0.85064045834E+02  0.00000000000E+00 0.  1.
         11    1    3    3    0    0  0.40205350425E+02 -0.43650353964E+02  0.95484778859E+02  0.11242404813E+03  0.00000000000E+00 0. -1.
         -1    1    1    2    0  502 -0.44876074874E+02  0.23188799089E+03  0.35614011964E+03  0.42734258766E+03  0.00000000000E+00 0.  1.
<scales pt_clust_5="13000.00000" pt_clust_6="13000.00000" pt_clust_7="13000.00000" pt_clust_8="13000.00000" pt_clust_9="218.22791"></scales>
<clustering>
<clus scale="   84.140">  7  8 -1 -1</clus>
<clus scale="   84.503">  5  6 -1 -1</clus>
<clus scale="  140.611">  1  7  2 -1</clus>
<clus scale="  218.228">  2  9  1 -1</clus>
<clus scale="  218.228">  2  5  1 -1</clus>
</clustering>
</event>
<event>
 9    1  0.8429841E-005  0.1075021E+03  0.7546771E-02  0.1268132E+00
          1   -1    0    0  502    0 -0.00000000000E+00  0.00000000000E+00  0.70073940022E+02  0.70073940022E+02  0.00000000000E+00 0. -1.
         21   -1    0    0  501  502  0.00000000000E+00 -0.00000000000E+00 -0.37687878132E+03  0.37687878132E+03  0.00000000000E+00 0. -1.
         23    2    1    2    0    0 -0.17397600681E+02  0.37914977070E+02 -0.19849432832E+02  0.10330867861E+03  0.92403793732E+02 0.  0.
        -24    2    1    2    0    0 -0.17139890904E+02 -0.54906406408E+02 -0.28268120169E+03  0.30491658685E+03  0.98777395316E+02 0.  0.
         11    1    4    4    0    0 -0.58280239037E+02 -0.24865089439E+02 -0.15691239783E+03  0.16922281031E+03  0.00000000000E+00 0. -1.
        -12    1    4    4    0    0  0.41140348133E+02 -0.30041316968E+02 -0.12576880385E+03  0.13569377654E+03  0.00000000000E+00 0.  1.
        -13    1    3    3    0    0 -0.54919031570E+02  0.23730616493E+02 -0.33057079077E+01  0.59918026441E+02  0.00000000000E+00 0. -1.
         13    1    3    3    0    0  0.37521430890E+02  0.14184360577E+02 -0.16543724925E+02  0.43390652166E+02  0.00000000000E+00 0.  1.
          2    1    1    2  501    0  0.34537491584E+02  0.16991429337E+02 -0.42742067824E+01  0.38727455887E+02  0.00000000000E+00 0. -1.
<scales pt_clust_5="13000.00000" pt_clust_6="13000.00000" pt_clust_7="13000.00000" pt_clust_8="13000.00000" pt_clust_9="38.49089"></scales>
<clustering>
<clus scale="   38.491">  2  9  1 -1</clus>
<clus scale="   92.404">  7  8 -1 -1</clus>
<clus scale="   98.777">  5  6 -1 -1</clus>
<clus scale="  101.677">  1  7  2 -1</clus>
<clus scale="   38.491">  2  5  1 -1</clus>
</clustering>
</event>
<event>
 9    1  0.8429841E-005  0.1081927E+03  0.7546771E-02  0.1266939E+00
          3   -1    0    0  502    0 -0.00000000000E+00  0.00000000000E+00  0.10892729679E+03  0.10892729679E+03  0.00000000000E+00 0. -1.
         21   -1    0    0  501  502  0.00000000000E+00 -0.00000000000E+00 -0.18632414713E+03  0.18632414713E+03  0.00000000000E+00 0.  1.
         23    2    1    2    0    0  0.94339054466E+01  0.61857169977E+02 -0.15612933837E+02  0.10950073462E+03  0.88494853691E+02 0.  0.
        -24    2    1    2    0    0 -0.66715373727E+02 -0.37827218598E+02 -0.27588396921E+02  0.11484274972E+03  0.80906723825E+02 0.  0.
         11    1    4    4    0    0 -0.61120008417E+02 -0.47889104287E+02  0.74097909517E+01  0.77999530385E+02  0.00000000000E+00 0. -1.
        -12    1    4    4    0    0 -0.55953653098E+01  0.10061885690E+02 -0.34998187872E+02  0.36843219334E+02  0.00000000000E+00 0.  1.
        -13    1    3    3    0    0 -0.34555457660E+02  0.32684741984E+01 -0.94738732759E+01  0.35979394832E+02  0.00000000000E+00 0.  1.
         13    1    3    3    0    0  0.43989363106E+02  0.58588695779E+02 -0.61390605608E+01  0.73521339787E+02  0.00000000000E+00 0. -1.
          4    1    1    2  501    0  0.57281468280E+02 -0.24029951379E+02 -0.34195519584E+02  0.70907959576E+02  0.00000000000E+00 0. -1.
<scales pt_clust_5="13000.00000" pt_clust_6="13000.00000" pt_clust_7="13000.00000" pt_clust_8="13000.00000" pt_clust_9="62.11767"></scales>
<clustering>
<clus scale="   62.118">  2  9  1 -1</clus>
<clus scale="   80.907">  5  6 -1 -1</clus>
<clus scale="   88.495">  7  8 -1 -1</clus>
<clus scale="  102.079">  2  5  1 -1</clus>
<clus scale="   62.118">  2  5  1 -1</clus>
</clustering>
</event>
<event>
 9    1  0.8429841E-005  0.1099980E+03  0.7546771E-02  0.1268378E+00
         -4   -1    0    0    0  501 -0.00000000000E+00  0.00000000000E+00  0.38776105704E+02  0.38776105704E+02  0.00000000000E+00 0.  1.
         21   -1    0    0  501  502  0.00000000000E+00 -0.00000000000E+00 -0.43196940316E+03  0.43196940316E+03  0.00000000000E+00 0.  1.
         23    2    1    2    0    0  0.57055454154E+02 -0.67645523233E+02 -0.97768117759E+02  0.14368984043E+03  0.57069464071E+02 0.  0.
        -24    2    1    2    0    0 -0.43668147499E+02  0.26801334030E+02 -0.22833557899E+03  0.24737830469E+03  0.80210163858E+02 0.  0.
         13    1    4    4    0    0  0.22662385912E+02 -0.95169836919E-02 -0.41005491908E+02  0.46851192006E+02  0.00000000000E+00 0. -1.
        -14    1    4    4    0    0 -0.66330533411E+02  0.26810851014E+02 -0.18733008708E+03  0.20052711268E+03  0.00000000000E+00 0.  1.
        -13    1    3    3    0    0  0.31552663711E+02 -0.71387999591E+02 -0.83211612073E+02  0.11408763937E+03  0.00000000000E+00 0.  1.
         13    1    3    3    0    0  0.25502790443E+02  0.37424763582E+01 -0.14556505686E+02  0.29602201057E+02  0.00000000000E+00 0. -1.
         -3    1    1    2    0  502 -0.13387306655E+02  0.40844189202E+02 -0.67089600709E+02  0.79677363751E+02  0.00000000000E+00 0.  1.
<scales pt_clust_5="13000.00000" pt_clust_6="13000.00000" pt_clust_7="13000.00000" pt_clust_8="13000.00000" pt_clust_9="42.98218"></scales>
<clustering>
<clus scale="   42.982">  2  9  1 -1</clus>
<clus scale="   57.069">  7  8 -1 -1</clus>
<clus scale="   80.210">  5  6 -1 -1</clus>
<clus scale="   94.461">  1  7  2 -1</clus>
<clus scale="   42.982">  2  5  1 -1</clus>
</clustering>
</event>
<event>
 9    1  0.8429841E-005  0.9440538E+02  0.7546771E-02  0.1296268E+00
          1   -1    0    0  502    0 -0.00000000000E+00  0.00000000000E+00  0.57283910755E+03  0.57283910755E+03  0.00000000000E+00 0. -1.
         21   -1    0    0  501  502  0.00000000000E+00 -0.00000000000E+00 -0.13464102515E+03  0.13464102515E+03  0.00000000000E+00 0.  1.
        -24    2    1    2    0    0 -0.26545113485E+02  0.25075484127E+02  0.97244355972E+02  0.13209965434E+03  0.81611463376E+02 0.  0.
         23    2    1    2    0    0 -0.52257275613E+02 -0.53781812045E+02 -0.83396209784E+02  0.14282211449E+03  0.88430325235E+02 0.  0.
         13    1    3    3    0    0 -0.99673418534E+01  0.30459087134E+02  0.10729525902E+03  0.11197935748E+03  0.00000000000E+00 0. -1.
        -14    1    3    3    0    0 -0.16577771632E+02 -0.53836030073E+01 -0.10050903051E+02  0.20120296861E+02  0.00000000000E+00 0.  1.
        -11    1    4    4    0    0 -0.77221201514E+02 -0.36155739205E+02 -0.58498308555E+02  0.10340407896E+03  0.00000000000E+00 0.  1.
         11    1    4    4    0    0  0.24963925902E+02 -0.17626072840E+02 -0.24897901229E+02  0.39418035539E+02  0.00000000000E+00 0. -1.
          2    1    1    2  501    0  0.78802389098E+02  0.28706327918E+02  0.42434993621E+03  0.43255836387E+03  0.00000000000E+00 0. -1.
<scales pt_clust_5="13000.00000" pt_clust_6="13000.00000" pt_clust_7="13000.00000" pt_clust_8="13000.00000" pt_clust_9="83.86821"></scales>
<clustering>
<clus scale="   81.611">  5  6 -1 -1</clus>
<clus scale="   83.868">  2  9  1 -1</clus>
<clus scale="   88.050">  1  5  2 -1</clus>
<clus scale="   88.430">  7  8 -1 -1</clus>
<clus scale="   83.868">  2  5  1 -1</clus>
</clustering>
</event>
<event>
 9    1  0.8429841E-005  0.3996380E+03  0.7546771E-02  0.1044169E+00
         21   -1    0    0  501  502  0.00000000000E+00  0.00000000000E+00  0.61283956505E+03  0.61283956505E+03  0.00000000000E+00 0.  1.
          1   -1    0    0  502    0 -0.00000000000E+00 -0.00000000000E+00 -0.75169198048E+03  0.75169198048E+03  0.00000000000E+00 0. -1.
        -24    2    1    2    0    0 -0.36905511029E+03  0.11859859860E+03 -0.50483184675E+03  0.64123596796E+03  0.77852881076E+02 0.  0.
         23    2    1    2    0    0  0.42587019572E+03  0.45364416637E+02  0.32372273968E+03  0.54469699894E+03  0.92060059548E+02 0.  0.
         13    1    3    3    0    0 -0.25125449395E+03  0.98390829976E+02 -0.29531871371E+03  0.40002839752E+03  0.00000000000E+00 0. -1.
        -14    1    3    3    0    0 -0.11780061634E+03  0.20207768628E+02 -0.20951313304E+03  0.24120757044E+03  0.00000000000E+00 0.  1.
        -13    1    4    4    0    0  0.31075540043E+03  0.17494117247E+02  0.27932865353E+03  0.41820982738E+03  0.00000000000E+00 0.  1.
         13    1    4    4    0    0  0.11511479529E+03  0.27870299390E+02  0.44394086151E+02  0.12648717156E+03  0.00000000000E+00 0. -1.
          2    1    1    2  501    0 -0.56815085435E+02 -0.16396301524E+03  0.42256691637E+02  0.17859857863E+03  0.00000000000E+00 0. -1.
<scales pt_clust_5="13000.00000" pt_clust_6="13000.00000" pt_clust_7="13000.00000" pt_clust_8="13000.00000" pt_clust_9="173.52759"></scales>
<clustering>
<clus scale="   77.853">  5  6 -1 -1</clus>
<clus scale="   92.060">  7  8 -1 -1</clus>
<clus scale="  173.528">  1  9  2 -1</clus>
<clus scale="  396.606">  2  5  1 -1</clus>
<clus scale="  173.528">  1  5  2 -1</clus>
</clustering>
</event>
<event>
 9    1  0.8878005E-005  0.1013776E+03  0.7546771E-02  0.1281346E+00
         21   -1    0    0  501  502  0.00000000000E+00  0.00000000000E+00  0.44742363126E+02  0.44742363126E+02  0.00000000000E+00 0. -1.
         -4   -1    0    0    0  501 -0.00000000000E+00 -0.00000000000E+00 -0.77028103447E+03  0.77028103447E+03  0.00000000000E+00 0.  1.
         23    2    1    2    0    0  0.99568480081E+00 -0.23853845251E+02 -0.16175398834E+03  0.18640945505E+03  0.89521700535E+02 0.  0.
        -24    2    1    2    0    0 -0.28016505885E+02  0.99965400992E+02 -0.12224882287E+03  0.17975203786E+03  0.81166584417E+02 0.  0.
         11    1    4    4    0    0 -0.72349814269E+01  0.59367577550E+02 -0.12772342696E+02  0.61155432779E+02  0.00000000000E+00 0. -1.
        -12    1    4    4    0    0 -0.20781524458E+02  0.40597823442E+02 -0.10947648017E+03  0.11859660508E+03  0.00000000000E+00 0.  1.
        -13    1    3    3    0    0  0.39444110388E+02 -0.24614818835E+02 -0.50249139151E+02  0.68459499968E+02  0.00000000000E+00 0.  1.
         13    1    3    3    0    0 -0.38448425587E+02  0.76097358343E+00 -0.11150484919E+03  0.11794995509E+03  0.00000000000E+00 0. -1.
         -3    1    1    2    0  502  0.27020821084E+02 -0.76111555741E+02 -0.44153586013E+03  0.44886190468E+03  0.00000000000E+00 0.  1.
<scales pt_clust_5="13000.00000" pt_clust_6="13000.00000" pt_clust_7="13000.00000" pt_clust_8="13000.00000" pt_clust_9="80.76571"></scales>
<clustering>
<clus scale="   80.766">  1  9  2 -1</clus>
<clus scale="   81.167">  5  6 -1 -1</clus>
<clus scale="   89.522">  7  8 -1 -1</clus>
<clus scale="   94.081">  1  5  2 -1</clus>
<clus scale="   80.766">  1  5  2 -1</clus>
</clustering>
</event>
<event>
 9    1  0.8429841E-005  0.1074738E+03  0.7546771E-02  0.1268797E+00
         21   -1    0    0  501  502  0.00000000000E+00  0.00000000000E+00  0.23473770794E+03  0.23473770794E+03  0.00000000000E+00 0. -1.
          3   -1    0    0  502    0 -0.00000000000E+00 -0.00000000000E+00 -0.20878698541E+03  0.20878698541E+03  0.00000000000E+00 0. -1.
        -24    2    1    2    0    0 -0.10127273326E+02 -0.61821001898E+02 -0.10642221781E+03  0.14837186458E+03  0.82244293513E+02 0.  0.
         23    2    1    2    0    0  0.20343142812E+02  0.62527096185E+01  0.19175801712E+03  0.21318462493E+03  0.90684107428E+02 0.  0.
         11    1    3    3    0    0  0.17976288507E+02 -0.63102158994E+02 -0.41550237242E+02  0.77662420984E+02  0.00000000000E+00 0. -1.
        -12    1    3    3    0    0 -0.28103561834E+02  0.12811570965E+01 -0.64871980568E+02  0.70709443599E+02  0.00000000000E+00 0.  1.
        -13    1    4    4    0    0 -0.10297900876E+02 -0.20277379343E+02  0.66548748851E+01  0.23696122789E+02  0.00000000000E+00 0.  1.
         13    1    4    4    0    0  0.30641043688E+02  0.26530088962E+02  0.18510314224E+03  0.18948850215E+03  0.00000000000E+00 0. -1.
          4    1    1    2  501    0 -0.10215869486E+02  0.55568292279E+02 -0.59385076784E+02  0.81968203841E+02  0.00000000000E+00 0. -1.
<scales pt_clust_5="13000.00000" pt_clust_6="13000.00000" pt_clust_7="13000.00000" pt_clust_8="13000.00000" pt_clust_9="56.49958"></scales>
<clustering>
<clus scale="   56.500">  1  9  2 -1</clus>
<clus scale="   82.244">  5  6 -1 -1</clus>
<clus scale="   90.684">  7  8 -1 -1</clus>
<clus scale="  100.455">  2  5  1 -1</clus>
<clus scale="   56.500">  1  5  2 -1</clus>
</clustering>
</event>
<event>
 9    1  0.8429841E-005  0.2381654E+03  0.7546771E-02  0.1163415E+00
          1   -1    0    0  502    0 -0.00000000000E+00  0.00000000000E+00  0.13537676257E+04  0.13537676257E+04  0.00000000000E+00 0. -1.
         21   -1    0    0  501  502  0.00000000000E+00 -0.00000000000E+00 -0.57187057726E+02  0.57187057726E+02  0.00000000000E+00 0.  1.
        -24    2    1    2    0    0  0.14574354736E+02 -0.29143568962E+02  0.23635498652E+03  0.25150701362E+03  0.79563426409E+02 0.  0.
         23    2    1    2    0    0  0.14186247600E+03  0.17526016351E+03  0.43101750391E+03  0.49482345563E+03  0.90736302296E+02 0.  0.
         13    1    3    3    0    0  0.29044048897E+01 -0.40038150909E+02  0.48426555977E+02  0.62901672631E+02  0.00000000000E+00 0. -1.
        -14    1    3    3    0    0  0.11669949847E+02  0.10894581947E+02  0.18792843054E+03  0.18860534099E+03  0.00000000000E+00 0.  1.
        -11    1    4    4    0    0  0.67674339279E+02  0.79077175782E+02  0.10925648632E+03  0.15089730193E+03  0.00000000000E+00 0.  1.
         11    1    4    4    0    0  0.74188136725E+02  0.96182987726E+02  0.32176101759E+03  0.34392615370E+03  0.00000000000E+00 0. -1.
          2    1    1    2  501    0 -0.15643683074E+03 -0.14611659455E+03  0.62920807753E+03  0.66462421415E+03  0.00000000000E+00 0. -1.
<scales pt_clust_5="13000.00000" pt_clust_6="13000.00000" pt_clust_7="13000.00000" pt_clust_8="13000.00000" pt_clust_9="220.20382"></scales>
<clustering>
<clus scale="   79.563">  5  6 -1 -1</clus>
<clus scale="   85.977">  1  5  2 -1</clus>
<clus scale="   90.736">  7  8 -1 -1</clus>
<clus scale="  220.204">  2  9  1 -1</clus>
<clus scale="  220.204">  2  5  1 -1</clus>
</clustering>
</event>
<event>
 9    1  0.8429841E-005  0.1000531E+03  0.7546771E-02  0.1285917E+00
          1   -1    0    0  502    0 -0.00000000000E+00  0.00000000000E+00  0.67446658745E+03  0.67446658745E+03  0.00000000000E+00 0. -1.
         21   -1    0    0  501  502  0.00000000000E+00 -0.00000000000E+00 -0.11484348077E+03  0.11484348077E+03  0.00000000000E+00 0. -1.
        -24    2    1    2    0    0  0.25695242027E+02 -0.38045844217E+02  0.58707151159E+03  0.59415710176E+03  0.79132611042E+02 0.  0.
         23    2    1    2    0    0  0.49448469337E+02  0.25924747400E+02  0.15778335894E+02  0.10761983292E+03  0.90641209763E+02 0.  0.
         13    1    3    3    0    0 -0.28249409091E+02 -0.12799520845E+02  0.16309973419E+03  0.16602222786E+03  0.00000000000E+00 0. -1.
        -14    1    3    3    0    0  0.53944651118E+02 -0.25246323372E+02  0.42397177739E+03  0.42813487390E+03  0.00000000000E+00 0.  1.
        -13    1    4    4    0    0 -0.20897847235E+02  0.21667500199E+02  0.21379363684E+02  0.36922591667E+02  0.00000000000E+00 0.  1.
         13    1    4    4    0    0  0.70346316572E+02  0.42572472015E+01 -0.56010277898E+01  0.70697241256E+02  0.00000000000E+00 0. -1.
          2    1    1    2  501    0 -0.75143711364E+02  0.12121096817E+02 -0.43226740805E+02  0.87533133534E+02  0.00000000000E+00 0. -1.
<scales pt_clust_5="13000.00000" pt_clust_6="13000.00000" pt_clust_7="13000.00000" pt_clust_8="13000.00000" pt_clust_9="76.11503"></scales>
<clustering>
<clus scale="   76.115">  2  9  1 -1</clus>
<clus scale="   79.133">  5  6 -1 -1</clus>
<clus scale="   89.760">  1  5  2 -1</clus>
<clus scale="   90.641">  7  8 -1 -1</clus>
<clus scale="   76.115">  2  5  1 -1</clus>
</clustering>
</event>
<event>
 9    1  0.8429841E-005  0.1116703E+03  0.7546771E-02  0.1260848E+00
         21   -1    0    0  501  502  0.00000000000E+00  0.00000000000E+00  0.32004789193E+02  0.32004789193E+02  0.00000000000E+00 0.  1.
          1   -1    0    0  502    0 -0.00000000000E+00 -0.00000000000E+00 -0.56757904317E+03  0.56757904317E+03  0.00000000000E+00 0. -1.
         23    2    1    2    0    0 -0.33933976328E+02 -0.48644835860E+02 -0.30461685572E+03  0.32297622492E+03  0.89467191017E+02 0.  0.
        -24    2    1    2    0    0  0.35219395034E+02  0.76814664079E+02 -0.14475965015E+03  0.18591448036E+03  0.80423499610E+02 0.  0.
         13    1    4    4    0    0  0.25494207577E+02 -0.44079656159E+01 -0.71738840539E+02  0.76261694334E+02  0.00000000000E+00 0. -1.
        -14    1    4    4    0    0  0.97251874564E+01  0.81222629695E+02 -0.73020809616E+02  0.10965278602E+03  0.00000000000E+00 0.  1.
        -13    1    3    3    0    0  0.28884576340E+02 -0.29769681637E+02 -0.10704528747E+03  0.11480089836E+03  0.00000000000E+00 0.  1.
         13    1    3    3    0    0 -0.62818552667E+02 -0.18875154223E+02 -0.19757156825E+03  0.20817532656E+03  0.00000000000E+00 0. -1.
          2    1    1    2  501    0 -0.12854187062E+01 -0.28169828219E+02 -0.86197748102E+02  0.90693127088E+02  0.00000000000E+00 0. -1.
<scales pt_clust_5="13000.00000" pt_clust_6="13000.00000" pt_clust_7="13000.00000" pt_clust_8="13000.00000" pt_clust_9="28.19915"></scales>
<clustering>
<clus scale="   28.199">  1  9  2 -1</clus>
<clus scale="   80.423">  5  6 -1 -1</clus>
<clus scale="   89.467">  7  8 -1 -1</clus>
<clus scale="  104.565">  1  5  2 -1</clus>
<clus scale="   28.199">  1  5  2 -1</clus>
</clustering>
</event>
<event>
 9    1  0.8429841E-005  0.2086802E+03  0.7546771E-02  0.1143654E+00
         -4   -1    0    0    0  501 -0.00000000000E+00  0.00000000000E+00  0.14708103811E+03  0.14708103811E+03  0.00000000000E+00 0.  1.
         21   -1    0    0  501  502  0.00000000000E+00 -0.00000000000E+00 -0.50530604056E+03  0.50530604056E+03  0.00000000000E+00 0.  1.
         23    2    1    2    0    0  0.44797458650E+02  0.18850505654E+03 -0.90773300825E+01  0.21525149317E+03  0.93326516863E+02 0.  0.
        -24    2    1    2    0    0 -0.83956133960E+02 -0.15463004014E+03 -0.19663748722E+03  0.27607573586E+03  0.81193773203E+02 0.  0.
         11    1    4    4    0    0 -0.91537987809E+01 -0.57776520944E+02 -0.21298325101E+02  0.62253811583E+02  0.00000000000E+00 0. -1.
        -12    1    4    4    0    0 -0.74802335179E+02 -0.96853519198E+02 -0.17533916212E+03  0.21382192427E+03  0.00000000000E+00 0.  1.
        -11    1    3    3    0    0 -0.24734585876E+02  0.32630242310E+02  0.13434861212E+02  0.43093247121E+02  0.00000000000E+00 0. -1.
         11    1    3    3    0    0  0.69532044526E+02  0.15587481423E+03 -0.22512191295E+02  0.17215824605E+03  0.00000000000E+00 0.  1.
         -3    1    1    2    0  502  0.39158675309E+02 -0.33875016396E+02 -0.15251018516E+03  0.16105984964E+03  0.00000000000E+00 0.  1.
<scales pt_clust_5="13000.00000" pt_clust_6="13000.00000" pt_clust_7="13000.00000" pt_clust_8="13000.00000" pt_clust_9="51.77759"></scales>
<clustering>
<clus scale="   51.778">  2  9  1 -1</clus>
<clus scale="   81.194">  5  6 -1 -1</clus>
<clus scale="   93.327">  7  8 -1 -1</clus>
<clus scale="  203.544">  2  5  1 -1</clus>
<clus scale="   51.778">  2  5  1 -1</clus>
</clustering>
</event>
<event>
 9    1  0.8429841E-005  0.9452585E+02  0.7546771E-02  0.1299518E+00
          1   -1    0    0  502    0 -0.00000000000E+00  0.00000000000E+00  0.75562304154E+02  0.75562304154E+02  0.00000000000E+00 0. -1.
         21   -1    0    0  501  502  0.00000000000E+00 -0.00000000000E+00 -0.38689149824E+03  0.38689149824E+03  0.00000000000E+00 0. -1.
        -24    2    1    2    0    0 -0.34930218481E+02  0.73059558885E+01  0.38879351603E+02  0.91740935466E+02  0.75041975617E+02 0.  0.
         23    2    1    2    0    0  0.15814029431E+02 -0.27589715330E+02 -0.27704311384E+03  0.29241829497E+03  0.88001683998E+02 0.  0.
         13    1    3    3    0    0 -0.42482999573E+02  0.22875234492E+01  0.57206854999E+02  0.71292792589E+02  0.00000000000E+00 0. -1.
        -14    1    3    3    0    0  0.75527810918E+01  0.50184324393E+01 -0.18327503396E+02  0.20448142877E+02  0.00000000000E+00 0.  1.
        -13    1    4    4    0    0 -0.13570291836E+02  0.27740409371E+02 -0.87456711561E+02  0.92748905813E+02  0.00000000000E+00 0.  1.
         13    1    4    4    0    0  0.29384321268E+02 -0.55330124701E+02 -0.18958640228E+03  0.19966938916E+03  0.00000000000E+00 0. -1.
          2    1    1    2  501    0  0.19116189050E+02  0.20283759441E+02 -0.73165431842E+02  0.78294571954E+02  0.00000000000E+00 0. -1.
<scales pt_clust_5="13000.00000" pt_clust_6="13000.00000" pt_clust_7="13000.00000" pt_clust_8="13000.00000" pt_clust_9="27.87220"></scales>
<clustering>
<clus scale="   27.872">  2  9  1 -1</clus>
<clus scale="   75.042">  5  6 -1 -1</clus>
<clus scale="   82.596">  1  5  2 -1</clus>
<clus scale="   88.002">  7  8 -1 -1</clus>
<clus scale="   27.872">  2  5  1 -1</clus>
</clustering>
</event>
<event>
 9    1  0.8429841E-005  0.1040518E+03  0.7546771E-02  0.1276895E+00
         21   -1    0    0  501  502  0.00000000000E+00  0.00000000000E+00  0.40234025636E+02  0.40234025636E+02  0.00000000000E+00 0.  1.
         -4   -1    0    0    0  501 -0.00000000000E+00 -0.00000000000E+00 -0.40046257351E+03  0.40046257351E+03  0.00000000000E+00 0.  1.
        -24    2    1    2    0    0  0.33628371733E+02  0.50376967528E+02 -0.18753005467E+03  0.21327201193E+03  0.81539704606E+02 0.  0.
         23    2    1    2    0    0  0.11248314240E+02 -0.39916550250E+02 -0.12913240215E+03  0.16401053859E+03  0.92219433553E+02 0.  0.
         11    1    3    3    0    0  0.35044719298E+02 -0.12624918345E+02 -0.86780913083E+02  0.94437533796E+02  0.00000000000E+00 0. -1.
        -12    1    3    3    0    0 -0.14163475652E+01  0.63001885873E+02 -0.10074914159E+03  0.11883447814E+03  0.00000000000E+00 0.  1.
        -11    1    4    4    0    0  0.47770009999E+02 -0.43056084968E+02 -0.86473164611E+02  0.10776552559E+03  0.00000000000E+00 0.  1.
         11    1    4    4    0    0 -0.36521695759E+02  0.31395347172E+01 -0.42659237543E+02  0.56245012997E+02  0.00000000000E+00 0. -1.
         -3    1    1    2    0  502 -0.44876685973E+02 -0.10460417278E+02 -0.43566091049E+02  0.63414048624E+02  0.00000000000E+00 0.  1.
<scales pt_clust_5="13000.00000" pt_clust_6="13000.00000" pt_clust_7="13000.00000" pt_clust_8="13000.00000" pt_clust_9="46.07968"></scales>
<clustering>
<clus scale="   46.080">  1  9  2 -1</clus>
<clus scale="   81.540">  5  6 -1 -1</clus>
<clus scale="   92.219">  7  8 -1 -1</clus>
<clus scale="   94.716">  2  5  1 -1</clus>
<clus scale="   46.080">  1  5  2 -1</clus>
</clustering>
</event>
<event>
 9    1  0.8429841E-005  0.1156816E+03  0.7546771E-02  0.1259464E+00
         21   -1    0    0  501  502  0.00000000000E+00  0.00000000000E+00  0.55991452200E+02  0.55991452200E+02  0.00000000000E+00 0.  1.
          1   -1    0    0  502    0 -0.00000000000E+00 -0.00000000000E+00 -0.32703393403E+03  0.32703393403E+03  0.00000000000E+00 0. -1.
        -24    2    1    2    0    0 -0.20171005281E+02  0.51843822204E+02 -0.13894442501E+03  0.17017643036E+03  0.80992671614E+02 0.  0.
         23    2    1    2    0    0 -0.64410976605E+01 -0.49798840407E+02 -0.47266627344E+02  0.12391776111E+03  0.10295661811E+03 0.  0.
         13    1    3    3    0    0 -0.44687467647E+02  0.20227086034E+02 -0.11105798086E+03  0.12140831885E+03  0.00000000000E+00 0. -1.
        -14    1    3    3    0    0  0.24516462366E+02  0.31616736170E+02 -0.27886444150E+02  0.48768111510E+02  0.00000000000E+00 0.  1.
        -11    1    4    4    0    0  0.43151581478E+02 -0.21671196960E+02 -0.46295847091E+02  0.66895479815E+02  0.00000000000E+00 0. -1.
         11    1    4    4    0    0 -0.49592679139E+02 -0.28127643446E+02 -0.97078025341E+00  0.57022281297E+02  0.00000000000E+00 0.  1.
          2    1    1    2  501    0  0.26612102942E+02 -0.20449817970E+01 -0.84831429473E+02  0.88931194752E+02  0.00000000000E+00 0. -1.
<scales pt_clust_5="13000.00000" pt_clust_6="13000.00000" pt_clust_7="13000.00000" pt_clust_8="13000.00000" pt_clust_9="26.69057"></scales>
<clustering>
<clus scale="   26.691">  1  9  2 -1</clus>
<clus scale="   80.993">  5  6 -1 -1</clus>
<clus scale="   96.654">  2  5  1 -1</clus>
<clus scale="  102.957">  7  8 -1 -1</clus>
<clus scale="   26.691">  1  5  2 -1</clus>
</clustering>
</event>
<event>
 9    1  0.8429841E-005  0.1249967E+03  0.7546771E-02  0.1238750E+00
          1   -1    0    0  502    0 -0.00000000000E+00  0.00000000000E+00  0.88423700726E+03  0.88423700726E+03  0.00000000000E+00 0. -1.
         21   -1    0    0  501  502  0.00000000000E+00 -0.00000000000E+00 -0.38951146359E+02  0.38951146359E+02  0.00000000000E+00 0.  1.
        -24    2    1    2    0    0 -0.40918595953E+02  0.36792882018E+02  0.26172216298E+03  0.27883323591E+03  0.78876074875E+02 0.  0.
         23    2    1    2    0    0  0.12020269972E+03 -0.91167789752E+02  0.39711608735E+03  0.43458048841E+03  0.91644744371E+02 0.  0.
         11    1    3    3    0    0 -0.20073160902E+02  0.43858402177E+02  0.65303537515E+02  0.81185240297E+02  0.00000000000E+00 0. -1.
        -12    1    3    3    0    0 -0.20845435051E+02 -0.70655201592E+01  0.19641862547E+03  0.19764799561E+03  0.00000000000E+00 0.  1.
        -11    1    4    4    0    0  0.35644002644E+02  0.14359002441E+02  0.58833596425E+02  0.70271387804E+02  0.00000000000E+00 0. -1.
         11    1    4    4    0    0  0.84558697073E+02 -0.10552679219E+03  0.33828249092E+03  0.36430910061E+03  0.00000000000E+00 0.  1.
          2    1    1    2  501    0 -0.79284103764E+02  0.54374907734E+02  0.18644761057E+03  0.20977442930E+03  0.00000000000E+00 0. -1.
<scales pt_clust_5="13000.00000" pt_clust_6="13000.00000" pt_clust_7="13000.00000" pt_clust_8="13000.00000" pt_clust_9="96.13844"></scales>
<clustering>
<clus scale="   78.876">  5  6 -1 -1</clus>
<clus scale="   91.645">  7  8 -1 -1</clus>
<clus scale="   96.138">  2  9  1 -1</clus>
<clus scale="  115.961">  1  5  2 -1</clus>
<clus scale="   96.138">  2  5  1 -1</clus>
</clustering>
</event>
<event>
 9    1  0.8429841E-005  0.1980457E+03  0.7546771E-02  0.1152265E+00
          1   -1    0    0  502    0 -0.00000000000E+00  0.00000000000E+00  0.71840007378E+03  0.71840007378E+03  0.00000000000E+00 0. -1.
         21   -1    0    0  501  502  0.00000000000E+00 -0.00000000000E+00 -0.27410948866E+03  0.27410948866E+03  0.00000000000E+00 0.  1.
         23    2    1    2    0    0 -0.16745178635E+03  0.72620118400E+02  0.62735487964E+03  0.65937296629E+03  0.88796291157E+02 0.  0.
        -24    2    1    2    0    0  0.72358316774E+02 -0.93871312589E+02 -0.18747491131E+03  0.23559770774E+03  0.79447392587E+02 0.  0.
         11    1    4    4    0    0  0.34192522896E+02 -0.29471260082E+02 -0.14983645489E+02  0.47562521222E+02  0.00000000000E+00 0. -1.
        -12    1    4    4    0    0  0.38165793877E+02 -0.64400052507E+02 -0.17249126582E+03  0.18803518652E+03  0.00000000000E+00 0.  1.
        -13    1    3    3    0    0 -0.51775339085E+02  0.19708106680E+02  0.79201963298E+02  0.96654261140E+02  0.00000000000E+00 0.  1.
         13    1    3    3    0    0 -0.11567644727E+03  0.52912011720E+02  0.54815291634E+03  0.56271870515E+03  0.00000000000E+00 0. -1.
          2    1    1    2  501    0  0.95093469578E+02  0.21251194189E+02  0.44106167888E+01  0.97538888405E+02  0.00000000000E+00 0. -1.
<scales pt_clust_5="13000.00000" pt_clust_6="13000.00000" pt_clust_7="13000.00000" pt_clust_8="13000.00000" pt_clust_9="97.43912"></scales>
<clustering>
<clus scale="   79.447">  5  6 -1 -1</clus>
<clus scale="   88.796">  7  8 -1 -1</clus>
<clus scale="   97.439">  2  9  1 -1</clus>
<clus scale="  194.034">  2  5  1 -1</clus>
<clus scale="   97.439">  2  5  1 -1</clus>
</clustering>
</event>
<event>
 9    1  0.8429841E-005  0.1340882E+03  0.7546771E-02  0.1223884E+00
          1   -1    0    0  502    0 -0.00000000000E+00  0.00000000000E+00  0.65887663420E+03  0.65887663420E+03  0.00000000000E+00 0. -1.
         21   -1    0    0  501  502  0.00000000000E+00 -0.00000000000E+00 -0.93213395533E+02  0.93213395533E+02  0.00000000000E+00 0.  1.
        -24    2    1    2    0    0  0.94203178931E+02  0.11147278900E+02  0.49632679221E+03  0.51170540871E+03  0.80645147941E+02 0.  0.
         23    2    1    2    0    0 -0.13965253233E+03 -0.69129957567E+01  0.11888470148E+02  0.16700994651E+03  0.90555878957E+02 0.  0.
         11    1    3    3    0    0  0.93097085793E+02  0.35840355376E+02  0.39305860722E+03  0.40552024261E+03  0.00000000000E+00 0. -1.
        -12    1    3    3    0    0  0.11060931383E+01 -0.24693076476E+02  0.10326818499E+03  0.10618516610E+03  0.00000000000E+00 0.  1.
        -11    1    4    4    0    0 -0.90913634728E+02 -0.13304981521E+02  0.50187260309E+02  0.10469514129E+03  0.00000000000E+00 0.  1.
         11    1    4    4    0    0 -0.48738897605E+02  0.63919857641E+01 -0.38298790160E+02  0.62314805219E+02  0.00000000000E+00 0. -1.
          2    1    1    2  501    0  0.45449353401E+02 -0.42342831435E+01  0.57447976312E+02  0.73374674519E+02  0.00000000000E+00 0. -1.
<scales pt_clust_5="13000.00000" pt_clust_6="13000.00000" pt_clust_7="13000.00000" pt_clust_8="13000.00000" pt_clust_9="45.64619"></scales>
<clustering>
<clus scale="   45.646">  2  9  1 -1</clus>
<clus scale="   80.645">  5  6 -1 -1</clus>
<clus scale="   90.556">  7  8 -1 -1</clus>
<clus scale="  127.605">  1  5  2 -1</clus>
<clus scale="   45.646">  2  5  1 -1</clus>
</clustering>
</event>
<event>
 9    1  0.8429841E-005  0.1640478E+03  0.7546771E-02  0.1204047E+00
          1   -1    0    0  502    0 -0.00000000000E+00  0.00000000000E+00  0.50619952659E+03  0.50619952659E+03  0.00000000000E+00 0. -1.
         21   -1    0    0  501  502  0.00000000000E+00 -0.00000000000E+00 -0.11608701409E+03  0.11608701409E+03  0.00000000000E+00 0. -1.
         23    2    1    2    0    0  0.55443022045E+02 -0.60760138972E+01  0.24267071304E+03  0.26486698746E+03  0.90302820774E+02 0.  0.
        -24    2    1    2    0    0 -0.86699654799E+02 -0.13633527342E+03  0.11017273616E+03  0.20693056716E+03  0.67661591111E+02 0.  0.
         13    1    4    4    0    0 -0.90364397188E+02 -0.13185664636E+03  0.11691678827E+03  0.19804402250E+03  0.00000000000E+00 0. -1.
        -14    1    4    4    0    0  0.36647423890E+01 -0.44786270638E+01 -0.67440521117E+01  0.88865446626E+01  0.00000000000E+00 0.  1.
        -13    1    3    3    0    0  0.79830665274E+01 -0.35192466624E+02  0.36567939689E+02  0.51375609693E+02  0.00000000000E+00 0.  1.
         13    1    3    3    0    0  0.47459955518E+02  0.29116452727E+02  0.20610277335E+03  0.21349137776E+03  0.00000000000E+00 0. -1.
          2    1    1    2  501    0  0.31256632754E+02  0.14241128732E+03  0.37269063303E+02  0.15048898607E+03  0.00000000000E+00 0. -1.
<scales pt_clust_5="13000.00000" pt_clust_6="13000.00000" pt_clust_7="13000.00000" pt_clust_8="13000.00000" pt_clust_9="149.44425"></scales>
<clustering>
<clus scale="   67.662">  5  6 -1 -1</clus>
<clus scale="   90.303">  7  8 -1 -1</clus>
<clus scale="  106.139">  1  7  2 -1</clus>
<clus scale="  149.444">  2  9  1 -1</clus>
<clus scale="  149.444">  2  5  1 -1</clus>
</clustering>
</event>
<event>
 9    1  0.8429841E-005  0.2589642E+03  0.7546771E-02  0.1107767E+00
         -2   -1    0    0    0  501 -0.00000000000E+00  0.00000000000E+00  0.19575727827E+03  0.19575727827E+03  0.00000000000E+00 0.  1.
         21   -1    0    0  501  502  0.00000000000E+00 -0.00000000000E+00 -0.25625284590E+03  0.25625284590E+03  0.00000000000E+00 0.  1.
        -24    2    1    2    0    0  0.10392443278E+01 -0.55664301741E+02  0.26478957435E+02  0.10364044828E+03  0.83310340394E+02 0.  0.
         23    2    1    2    0    0 -0.45810737260E+02 -0.11733184698E+03 -0.14652837103E+02  0.15559369034E+03  0.90162657877E+02 0.  0.
         13    1    3    3    0    0  0.31482289173E+02 -0.57176704312E+02  0.31952403458E+02  0.72672320276E+02  0.00000000000E+00 0. -1.
        -14    1    3    3    0    0 -0.30443044845E+02  0.15124025711E+01 -0.54734460233E+01  0.30968128008E+02  0.00000000000E+00 0.  1.
        -13    1    4    4    0    0 -0.53052523087E+02 -0.59988026153E+02  0.26821008524E+02  0.84454129478E+02  0.00000000000E+00 0.  1.
         13    1    4    4    0    0  0.72417858277E+01 -0.57343820826E+02 -0.41473845627E+02  0.71139560865E+02  0.00000000000E+00 0. -1.
         -1    1    1    2    0  502  0.44771492932E+02  0.17299614872E+03 -0.72321687958E+02  0.19277598554E+03  0.00000000000E+00 0.  1.
<scales pt_clust_5="13000.00000" pt_clust_6="13000.00000" pt_clust_7="13000.00000" pt_clust_8="13000.00000" pt_clust_9="178.69570"></scales>
<clustering>
<clus scale="   83.310">  5  6 -1 -1</clus>
<clus scale="   90.163">  7  8 -1 -1</clus>
<clus scale="   99.313">  5  7 -1 -1</clus>
<clus scale="  178.696">  2  9  1 -1</clus>
<clus scale="  178.696">  2  5  1 -1</clus>
</clustering>
</event>
<event>
 9    1  0.8429841E-005  0.1047289E+03  0.7546771E-02  0.1273282E+00
         -2   -1    0    0    0  501 -0.00000000000E+00  0.00000000000E+00  0.35019928478E+03  0.35019928478E+03  0.00000000000E+00 0.  1.
         21   -1    0    0  501  502  0.00000000000E+00 -0.00000000000E+00 -0.61797931742E+02  0.61797931742E+02  0.00000000000E+00 0.  1.
         23    2    1    2    0    0  0.18232078625E+02  0.62947127106E+02  0.23358530611E+03  0.25830400992E+03  0.88679855706E+02 0.  0.
        -24    2    1    2    0    0 -0.10144139321E+02 -0.20527792311E+02  0.22404958806E+01  0.85656427619E+02  0.82508847712E+02 0.  0.
         13    1    4    4    0    0  0.17936056930E+02 -0.44491732315E+02  0.68366835240E+01  0.48455718179E+02  0.00000000000E+00 0. -1.
        -14    1    4    4    0    0 -0.28080196251E+02  0.23963940004E+02 -0.45961876434E+01  0.37200709440E+02  0.00000000000E+00 0.  1.
        -11    1    3    3    0    0 -0.19436342232E+02 -0.14081331950E+02  0.41317571326E+02  0.47782810812E+02  0.00000000000E+00 0. -1.
         11    1    3    3    0    0  0.37668420857E+02  0.77028459056E+02  0.19226773479E+03  0.21052119911E+03  0.00000000000E+00 0.  1.
         -1    1    1    2    0  502 -0.80879393040E+01 -0.42419334795E+02  0.52575551046E+02  0.68036778983E+02  0.00000000000E+00 0.  1.
<scales pt_clust_5="13000.00000" pt_clust_6="13000.00000" pt_clust_7="13000.00000" pt_clust_8="13000.00000" pt_clust_9="43.18352"></scales>
<clustering>
<clus scale="   43.184">  2  9  1 -1</clus>
<clus scale="   82.509">  5  6 -1 -1</clus>
<clus scale="   88.680">  7  8 -1 -1</clus>
<clus scale="   99.558">  2  5  1 -1</clus>
<clus scale="   43.184">  2  5  1 -1</clus>
</clustering>
</event>
<event>
 9    1  0.8429841E-005  0.2040001E+03  0.7546771E-02  0.1185795E+00
         21   -1    0    0  501  502  0.00000000000E+00  0.00000000000E+00  0.75898933952E+02  0.75898933952E+02  0.00000000000E+00 0.  1.
          1   -1    0    0  502    0 -0.00000000000E+00 -0.00000000000E+00 -0.11040570241E+04  0.11040570241E+04  0.00000000000E+00 0. -1.
        -24    2    1    2    0    0 -0.32705323177E+01  0.16254576669E+02 -0.91670877451E+02  0.12321507453E+03  0.80644263119E+02 0.  0.
         23    2    1    2    0    0 -0.12000735616E+03 -0.13985857544E+03 -0.15969830570E+03  0.26057733730E+03  0.91841239188E+02 0.  0.
         13    1    3    3    0    0  0.34878274351E+02 -0.35276664208E+01 -0.22095387767E+02  0.41438443657E+02  0.00000000000E+00 0. -1.
        -14    1    3    3    0    0 -0.38148806669E+02  0.19782243090E+02 -0.69575489684E+02  0.81776630871E+02  0.00000000000E+00 0.  1.
        -11    1    4    4    0    0 -0.83311454112E+02 -0.14536239319E+03 -0.14123698286E+03  0.21913217259E+03  0.00000000000E+00 0.  1.
         11    1    4    4    0    0 -0.36695902045E+02  0.55038177438E+01 -0.18461322844E+02  0.41445164709E+02  0.00000000000E+00 0. -1.
          2    1    1    2  501    0  0.12327788847E+03  0.12360399877E+03 -0.77678890697E+03  0.79616354619E+03  0.00000000000E+00 0. -1.
<scales pt_clust_5="13000.00000" pt_clust_6="13000.00000" pt_clust_7="13000.00000" pt_clust_8="13000.00000" pt_clust_9="182.15729"></scales>
<clustering>
<clus scale="   80.644">  5  6 -1 -1</clus>
<clus scale="   82.331">  2  5  1 -1</clus>
<clus scale="   91.841">  7  8 -1 -1</clus>
<clus scale="  182.157">  1  9  2 -1</clus>
<clus scale="  182.157">  1  5  2 -1</clus>
</clustering>
</event>
<event>
 9    1  0.8429841E-005  0.1230611E+03  0.7546771E-02  0.1241286E+00
         21   -1    0    0  501  502  0.00000000000E+00  0.00000000000E+00  0.23689991036E+03  0.23689991036E+03  0.00000000000E+00 0. -1.
          1   -1    0    0  502    0 -0.00000000000E+00 -0.00000000000E+00 -0.72279699362E+03  0.72279699362E+03  0.00000000000E+00 0. -1.
        -24    2    1    2    0    0  0.39693042967E+02 -0.77512436326E+02 -0.67389757967E+03  0.68420031170E+03  0.80052502828E+02 0.  0.
         23    2    1    2    0    0  0.41231685286E+02  0.26501889605E+02  0.75377580595E+02  0.12773053161E+03  0.90724346369E+02 0.  0.
         13    1    3    3    0    0  0.58403204419E+02 -0.70157471465E+02 -0.43593871827E+03  0.44539372601E+03  0.00000000000E+00 0. -1.
        -14    1    3    3    0    0 -0.18710161453E+02 -0.73549648613E+01 -0.23795886140E+03  0.23880658569E+03  0.00000000000E+00 0.  1.
        -11    1    4    4    0    0  0.49028841186E+02  0.46222587603E+02  0.81414364266E+02  0.10568185077E+03  0.00000000000E+00 0. -1.
         11    1    4    4    0    0 -0.77971558999E+01 -0.19720697998E+02 -0.60367836716E+01  0.22048680840E+02  0.00000000000E+00 0.  1.
          2    1    1    2  501    0 -0.80924728253E+02  0.51010546721E+02  0.11262291581E+03  0.14776606067E+03  0.00000000000E+00 0. -1.
<scales pt_clust_5="13000.00000" pt_clust_6="13000.00000" pt_clust_7="13000.00000" pt_clust_8="13000.00000" pt_clust_9="95.66027"></scales>
<clustering>
<clus scale="   80.053">  5  6 -1 -1</clus>
<clus scale="   90.724">  7  8 -1 -1</clus>
<clus scale="   95.660">  1  9  2 -1</clus>
<clus scale="  115.419">  2  5  1 -1</clus>
<clus scale="   95.660">  1  5  2 -1</clus>
</clustering>
</event>
<event>
 9    1  0.8429841E-005  0.2448642E+03  0.7546771E-02  0.1117278E+00
         21   -1    0    0  501  502  0.00000000000E+00  0.00000000000E+00  0.61217013281E+02  0.61217013281E+02  0.00000000000E+00 0. -1.
          1   -1    0    0  502    0 -0.00000000000E+00 -0.00000000000E+00 -0.18939879752E+04  0.18939879752E+04  0.00000000000E+00 0. -1.
        -24    2    1    2    0    0  0.10247827157E+03 -0.14055267088E+03 -0.38287236578E+03  0.42793783683E+03  0.79263448527E+02 0.  0.
         23    2    1    2    0    0 -0.14294134178E+03  0.26926786973E+03 -0.75369014240E+03  0.81810491809E+03  0.91155983800E+02 0.  0.
         11    1    3    3    0    0  0.96750078481E+02 -0.94276052292E+02 -0.21679170624E+03  0.25543530613E+03  0.00000000000E+00 0. -1.
        -12    1    3    3    0    0  0.57281930931E+01 -0.46276618592E+02 -0.16608065954E+03  0.17250253070E+03  0.00000000000E+00 0.  1.
        -11    1    4    4    0    0 -0.11229534465E+03  0.26381433700E+03 -0.69057723835E+03  0.74773335552E+03  0.00000000000E+00 0. -1.
         11    1    4    4    0    0 -0.30645997130E+02  0.54535327279E+01 -0.63112904055E+02  0.70371562563E+02  0.00000000000E+00 0.  1.
          2    1    1    2  501    0  0.40463070210E+02 -0.12871519885E+03 -0.69620845375E+03  0.70916223358E+03  0.00000000000E+00 0. -1.
<scales pt_clust_5="13000.00000" pt_clust_6="13000.00000" pt_clust_7="13000.00000" pt_clust_8="13000.00000" pt_clust_9="134.92546"></scales>
<clustering>
<clus scale="   79.263">  5  6 -1 -1</clus>
<clus scale="   91.156">  7  8 -1 -1</clus>
<clus scale="  134.925">  1  9  2 -1</clus>
<clus scale="  240.690">  2  5  1 -1</clus>
<clus scale="  134.925">  1  5  2 -1</clus>
</clustering>
</event>
<event>
 9    1  0.8429841E-005  0.2203841E+03  0.7546771E-02  0.1156251E+00
         -4   -1    0    0    0  501 -0.00000000000E+00  0.00000000000E+00  0.10628723503E+03  0.10628723503E+03  0.00000000000E+00 0.  1.
         21   -1    0    0  501  502  0.00000000000E+00 -0.00000000000E+00 -0.10507850248E+04  0.10507850248E+04  0.00000000000E+00 0. -1.
        -24    2    1    2    0    0 -0.36564613193E+02  0.93261305934E+02 -0.25090820521E+03  0.28176674418E+03  0.80018301391E+02 0.  0.
         23    2    1    2    0    0 -0.19863940348E+03  0.10167359204E+02 -0.53083737203E+03  0.57115637309E+03  0.69787528774E+02 0.  0.
         13    1    3    3    0    0 -0.49904215734E+02  0.97912698851E+02 -0.23984284883E+03  0.26382175702E+03  0.00000000000E+00 0. -1.
        -14    1    3    3    0    0  0.13339602541E+02 -0.46513929166E+01 -0.11065356386E+02  0.17944987154E+02  0.00000000000E+00 0.  1.
        -13    1    4    4    0    0 -0.79436947216E+02 -0.29859810941E+02 -0.22557212706E+03  0.24100751316E+03  0.00000000000E+00 0. -1.
         13    1    4    4    0    0 -0.11920245626E+03  0.40027170145E+02 -0.30526524497E+03  0.33014885993E+03  0.00000000000E+00 0.  1.
         -3    1    1    2    0  502  0.23520401667E+03 -0.10342866514E+03 -0.16275221251E+03  0.30414914254E+03  0.00000000000E+00 0.  1.
<scales pt_clust_5="13000.00000" pt_clust_6="13000.00000" pt_clust_7="13000.00000" pt_clust_8="13000.00000" pt_clust_9="209.04286"></scales>
<clustering>
<clus scale="   69.788">  7  8 -1 -1</clus>
<clus scale="   80.018">  5  6 -1 -1</clus>
<clus scale="  128.209">  1  5  2 -1</clus>
<clus scale="  209.043">  2  9  1 -1</clus>
<clus scale="  209.043">  2  5  1 -1</clus>
</clustering>
</event>
<event>
 9    1  0.8429841E-005  0.1198185E+03  0.7546771E-02  0.1263370E+00
         -4   -1    0    0    0  501 -0.00000000000E+00  0.00000000000E+00  0.31833829086E+03  0.31833829086E+03  0.00000000000E+00 0.  1.
         21   -1    0    0  501  502  0.00000000000E+00 -0.00000000000E+00 -0.60913581134E+02  0.60913581134E+02  0.00000000000E+00 0. -1.
         23    2    1    2    0    0 -0.63651092482E+01 -0.97827649396E+00  0.14667098845E+03  0.18944777185E+03  0.11973557435E+03 0.  0.
        -24    2    1    2    0    0 -0.17533396569E+02 -0.12307658228E+02  0.81825593307E+01  0.83650918823E+02  0.80446401389E+02 0.  0.
         11    1    4    4    0    0 -0.28569318254E+02  0.24707533503E+01 -0.29843514901E+02  0.41387751198E+02  0.00000000000E+00 0. -1.
        -12    1    4    4    0    0  0.11035921685E+02 -0.14778411578E+02  0.38026074232E+02  0.42263167625E+02  0.00000000000E+00 0.  1.
        -13    1    3    3    0    0 -0.33124924279E+02  0.45494970575E+02  0.36950348966E+02  0.67322962241E+02  0.00000000000E+00 0.  1.
         13    1    3    3    0    0  0.26759815031E+02 -0.46473247069E+02  0.10972063949E+03  0.12212480961E+03  0.00000000000E+00 0. -1.
         -3    1    1    2    0  502  0.23898505817E+02  0.13285934722E+02  0.10257116194E+03  0.10615318132E+03  0.00000000000E+00 0.  1.
<scales pt_clust_5="13000.00000" pt_clust_6="13000.00000" pt_clust_7="13000.00000" pt_clust_8="13000.00000" pt_clust_9="27.34329"></scales>
<clustering>
<clus scale="   27.343">  2  9  1 -1</clus>
<clus scale="   80.446">  5  6 -1 -1</clus>
<clus scale="   80.570">  2  5  1 -1</clus>
<clus scale="  119.736">  7  8 -1 -1</clus>
<clus scale="   27.343">  2  5  1 -1</clus>
</clustering>
</event>
<event>
 9    1  0.8429841E-005  0.1030337E+03  0.7546771E-02  0.1279142E+00
         21   -1    0    0  501  502  0.00000000000E+00  0.00000000000E+00  0.14436623336E+03  0.14436623336E+03  0.00000000000E+00 0.  1.
          1   -1    0    0  502    0 -0.00000000000E+00 -0.00000000000E+00 -0.10491828808E+03  0.10491828808E+03  0.00000000000E+00 0. -1.
         23    2    1    2    0    0  0.30114572586E+02 -0.27377392371E+02 -0.30331669269E+02  0.10519419090E+03  0.92137932166E+02 0.  0.
        -24    2    1    2    0    0 -0.33026945176E+02  0.50817652458E+02  0.63548530287E+02  0.11966177924E+03  0.81285378763E+02 0.  0.
         11    1    4    4    0    0 -0.26808794266E+02  0.28619954111E+02 -0.11730823184E+02  0.40931961056E+02  0.00000000000E+00 0. -1.
        -12    1    4    4    0    0 -0.62181509103E+01  0.22197698347E+02  0.75279353471E+02  0.78729818186E+02  0.00000000000E+00 0.  1.
        -13    1    3    3    0    0 -0.11915543460E+02  0.25341085859E+02  0.59526603075E+01  0.28628394527E+02  0.00000000000E+00 0.  1.
         13    1    3    3    0    0  0.42030116046E+02 -0.52718478230E+02 -0.36284329577E+02  0.76565796375E+02  0.00000000000E+00 0. -1.
          2    1    1    2  501    0  0.29123725907E+01 -0.23440260086E+02  0.62310842600E+01  0.24428551289E+02  0.00000000000E+00 0. -1.
<scales pt_clust_5="13000.00000" pt_clust_6="13000.00000" pt_clust_7="13000.00000" pt_clust_8="13000.00000" pt_clust_9="23.62049"></scales>
<clustering>
<clus scale="   23.620">  1  9  2 -1</clus>
<clus scale="   81.285">  5  6 -1 -1</clus>
<clus scale="   92.138">  7  8 -1 -1</clus>
<clus scale="   93.455">  1  5  2 -1</clus>
<clus scale="   23.620">  1  5  2 -1</clus>
</clustering>
</event>
<event>
 9    1  0.8429841E-005  0.1158774E+03  0.7546771E-02  0.1260946E+00
         21   -1    0    0  501  502  0.00000000000E+00  0.00000000000E+00  0.31586508476E+03  0.31586508476E+03  0.00000000000E+00 0. -1.
          1   -1    0    0  502    0 -0.00000000000E+00 -0.00000000000E+00 -0.29217527241E+03  0.29217527241E+03  0.00000000000E+00 0. -1.
         23    2    1    2    0    0 -0.56319937515E+02  0.42355326217E+02 -0.11258275737E+03  0.16078437729E+03  0.90613628676E+02 0.  0.
        -24    2    1    2    0    0  0.10347266248E+03 -0.15109142018E+02  0.27397617156E+03  0.29917486701E+03  0.59226517825E+02 0.  0.
         11    1    4    4    0    0  0.10082400525E+03 -0.16267154590E+01  0.26273902388E+03  0.28142480506E+03  0.00000000000E+00 0. -1.
        -12    1    4    4    0    0  0.26486572363E+01 -0.13482426559E+02  0.11237147687E+02  0.17750061950E+02  0.00000000000E+00 0.  1.
        -13    1    3    3    0    0 -0.66371674578E+02 -0.47960340699E+01 -0.67221349782E+02  0.94588112338E+02  0.00000000000E+00 0. -1.
         13    1    3    3    0    0  0.10051737063E+02  0.47151360287E+02 -0.45361407586E+02  0.66196264948E+02  0.00000000000E+00 0.  1.
          2    1    1    2  501    0 -0.47152724969E+02 -0.27246184198E+02 -0.13770360185E+03  0.14808111286E+03  0.00000000000E+00 0. -1.
<scales pt_clust_5="13000.00000" pt_clust_6="13000.00000" pt_clust_7="13000.00000" pt_clust_8="13000.00000" pt_clust_9="54.45858"></scales>
<clustering>
<clus scale="   54.459">  1  9  2 -1</clus>
<clus scale="   59.227">  5  6 -1 -1</clus>
<clus scale="   90.614">  7  8 -1 -1</clus>
<clus scale="   93.405">  1  5  2 -1</clus>
<clus scale="   54.459">  1  5  2 -1</clus>
</clustering>
</event>
<event>
 9    1  0.8429841E-005  0.2123454E+03  0.7546771E-02  0.1166352E+00
         21   -1    0    0  501  502  0.00000000000E+00  0.00000000000E+00  0.28815011335E+03  0.28815011335E+03  0.00000000000E+00 0. -1.
          1   -1    0    0  502    0 -0.00000000000E+00 -0.00000000000E+00 -0.37541872091E+03  0.37541872091E+03  0.00000000000E+00 0. -1.
        -24    2    1    2    0    0  0.52272953773E+02 -0.59426043832E+02 -0.39771378003E+02  0.12013242679E+03  0.81154920224E+02 0.  0.
         23    2    1    2    0    0  0.11994215577E+03 -0.51165703436E+02 -0.22331059669E+03  0.27362366021E+03  0.89432851317E+02 0.  0.
         13    1    3    3    0    0  0.45399320876E+01 -0.65043250389E+02 -0.25308693852E+02  0.69941156617E+02  0.00000000000E+00 0. -1.
        -14    1    3    3    0    0  0.47733021685E+02  0.56172065565E+01 -0.14462684151E+02  0.50191270173E+02  0.00000000000E+00 0.  1.
        -11    1    4    4    0    0  0.91560200414E+02 -0.55802202461E+01 -0.84226314084E+02  0.12453305241E+03  0.00000000000E+00 0. -1.
         11    1    4    4    0    0  0.28381955359E+02 -0.45585483190E+02 -0.13908428261E+03  0.14909060780E+03  0.00000000000E+00 0.  1.
          2    1    1    2  501    0 -0.17221510955E+03  0.11059174727E+03  0.17581336714E+03  0.26981274726E+03  0.00000000000E+00 0. -1.
<scales pt_clust_5="13000.00000" pt_clust_6="13000.00000" pt_clust_7="13000.00000" pt_clust_8="13000.00000" pt_clust_9="192.59365"></scales>
<clustering>
<clus scale="   81.155">  5  6 -1 -1</clus>
<clus scale="   89.433">  7  8 -1 -1</clus>
<clus scale="  113.358">  2  5  1 -1</clus>
<clus scale="  192.594">  1  9  2 -1</clus>
<clus scale="  192.594">  1  5  2 -1</clus>
</clustering>
</event>
<event>
 9    1  0.8429841E-005  0.9472197E+02  0.7546771E-02  0.1298783E+00
         -2   -1    0    0    0  501 -0.00000000000E+00  0.00000000000E+00  0.63589031665E+02  0.63589031665E+02  0.00000000000E+00 0.  1.
         21   -1    0    0  501  502  0.00000000000E+00 -0.00000000000E+00 -0.38347361917E+03  0.38347361917E+03  0.00000000000E+00 0. -1.
        -24    2    1    2    0    0 -0.12939005007E+01 -0.17090930355E+02  0.14235363089E+02  0.83583120457E+02  0.80558788373E+02 0.  0.
         23    2    1    2    0    0  0.24961540751E+02  0.45589416097E+02 -0.25163737725E+03  0.27305997614E+03  0.92406209527E+02 0.  0.
         11    1    3    3    0    0  0.14227792334E+02  0.29771134413E+02  0.57132041734E+01  0.33487179948E+02  0.00000000000E+00 0. -1.
        -12    1    3    3    0    0 -0.15521692835E+02 -0.46862064769E+02  0.85221589155E+01  0.50095940508E+02  0.00000000000E+00 0.  1.
        -13    1    4    4    0    0  0.81198772693E+01 -0.22780347663E+02 -0.21389890622E+02  0.32286282960E+02  0.00000000000E+00 0.  1.
         13    1    4    4    0    0  0.16841663482E+02  0.68369763760E+02 -0.23024748663E+03  0.24077369318E+03  0.00000000000E+00 0. -1.
         -1    1    1    2    0  502 -0.23667640250E+02 -0.28498485742E+02 -0.82482573337E+02  0.90419554239E+02  0.00000000000E+00 0.  1.
<scales pt_clust_5="13000.00000" pt_clust_6="13000.00000" pt_clust_7="13000.00000" pt_clust_8="13000.00000" pt_clust_9="37.04485"></scales>
<clustering>
<clus scale="   37.045">  2  9  1 -1</clus>
<clus scale="   80.559">  5  6 -1 -1</clus>
<clus scale="   83.205">  1  5  2 -1</clus>
<clus scale="   92.406">  7  8 -1 -1</clus>
<clus scale="   37.045">  2  5  1 -1</clus>
</clustering>
</event>
<event>
 9    1  0.8429841E-005  0.1094694E+03  0.7546771E-02  0.1267436E+00
         21   -1    0    0  501  502  0.00000000000E+00  0.00000000000E+00  0.11290243622E+03  0.11290243622E+03  0.00000000000E+00 0. -1.
          1   -1    0    0  502    0 -0.00000000000E+00 -0.00000000000E+00 -0.32648544916E+03  0.32648544916E+03  0.00000000000E+00 0. -1.
         23    2    1    2    0    0 -0.52018498673E+02  0.20892366050E+02 -0.27912295758E+03  0.29995212986E+03  0.94441725953E+02 0.  0.
        -24    2    1    2    0    0  0.54976305837E+02  0.40695275679E+01  0.47070753473E+02  0.10824351644E+03  0.80386863113E+02 0.  0.
         11    1    4    4    0    0  0.49257500685E+02 -0.32624348290E+02  0.20332786936E+02  0.62482571167E+02  0.00000000000E+00 0. -1.
        -12    1    4    4    0    0  0.57188051517E+01  0.36693875858E+02  0.26737966537E+02  0.45760945274E+02  0.00000000000E+00 0.  1.
        -11    1    3    3    0    0 -0.27861803837E+01 -0.33045975641E+02 -0.54928196348E+02  0.64163120726E+02  0.00000000000E+00 0.  1.
         11    1    3    3    0    0 -0.49232318289E+02  0.53938341692E+02 -0.22419476123E+03  0.23578900914E+03  0.00000000000E+00 0. -1.
          2    1    1    2  501    0 -0.29578071638E+01 -0.24961893618E+02  0.18469191162E+02  0.31192239073E+02  0.00000000000E+00 0. -1.
<scales pt_clust_5="13000.00000" pt_clust_6="13000.00000" pt_clust_7="13000.00000" pt_clust_8="13000.00000" pt_clust_9="25.13652"></scales>
<clustering>
<clus scale="   25.137">  1  9  2 -1</clus>
<clus scale="   80.387">  5  6 -1 -1</clus>
<clus scale="   94.442">  7  8 -1 -1</clus>
<clus scale="   97.603">  1  5  2 -1</clus>
<clus scale="   25.137">  1  5  2 -1</clus>
</clustering>
</event>
<event>
 9    1  0.8429841E-005  0.1026659E+03  0.7546771E-02  0.1279858E+00
         21   -1    0    0  501  502  0.00000000000E+00  0.00000000000E+00  0.66475672061E+03  0.66475672061E+03  0.00000000000E+00 0. -1.
          1   -1    0    0  502    0 -0.00000000000E+00 -0.00000000000E+00 -0.92991920890E+02  0.92991920890E+02  0.00000000000E+00 0. -1.
         23    2    1    2    0    0 -0.14298028775E+02 -0.46256915179E+02 -0.52415805727E+02  0.11582265318E+03  0.91232310456E+02 0.  0.
        -24    2    1    2    0    0 -0.36429684700E+02  0.42054482793E+02  0.37034147662E+03  0.38303360782E+03  0.80412896795E+02 0.  0.
         11    1    4    4    0    0  0.18975089392E+02  0.37398095657E+02  0.14585048821E+03  0.15175979866E+03  0.00000000000E+00 0. -1.
        -12    1    4    4    0    0 -0.55404774092E+02  0.46563871358E+01  0.22449098840E+03  0.23127380917E+03  0.00000000000E+00 0.  1.
        -13    1    3    3    0    0 -0.45609785658E+02  0.13538750865E+01 -0.29887409757E+02  0.54546702810E+02  0.00000000000E+00 0. -1.
         13    1    3    3    0    0  0.31311756883E+02 -0.47610790265E+02 -0.22528395971E+02  0.61275950371E+02  0.00000000000E+00 0.  1.
          2    1    1    2  501    0  0.50727713475E+02  0.42024323864E+01  0.25383912883E+03  0.25889238049E+03  0.00000000000E+00 0. -1.
<scales pt_clust_5="13000.00000" pt_clust_6="13000.00000" pt_clust_7="13000.00000" pt_clust_8="13000.00000" pt_clust_9="50.90149"></scales>
<clustering>
<clus scale="   50.901">  1  9  2 -1</clus>
<clus scale="   80.413">  5  6 -1 -1</clus>
<clus scale="   91.232">  7  8 -1 -1</clus>
<clus scale="   93.184">  1  5  2 -1</clus>
<clus scale="   50.901">  1  5  2 -1</clus>
</clustering>
</event>
<event>
 9    1  0.8429841E-005  0.1214771E+03  0.7546771E-02  0.1244717E+00
         21   -1    0    0  501  502  0.00000000000E+00  0.00000000000E+00  0.73918367603E+03  0.73918367603E+03  0.00000000000E+00 0.  1.
         -4   -1    0    0    0  501 -0.00000000000E+00 -0.00000000000E+00 -0.33437191970E+02  0.33437191970E+02  0.00000000000E+00 0.  1.
        -24    2    1    2    0    0  0.87685203069E+02 -0.50618955456E+02  0.26310847882E+03  0.29304151581E+03  0.79976777067E+02 0.  0.
         23    2    1    2    0    0 -0.23688086225E+02  0.50302835699E+02  0.35455370349E+03  0.37070063476E+03  0.92839276401E+02 0.  0.
         13    1    3    3    0    0  0.23256841151E+02  0.21647524055E+02  0.55075463780E+02  0.63583037586E+02  0.00000000000E+00 0. -1.
        -14    1    3    3    0    0  0.64428361918E+02 -0.72266479512E+02  0.20803301504E+03  0.22945847822E+03  0.00000000000E+00 0.  1.
        -11    1    4    4    0    0  0.10376261118E+02  0.55417788728E+02  0.30610898605E+03  0.31125794679E+03  0.00000000000E+00 0.  1.
         11    1    4    4    0    0 -0.34064347343E+02 -0.51149530297E+01  0.48444717443E+02  0.59442687966E+02  0.00000000000E+00 0. -1.
         -3    1    1    2    0  502 -0.63997116843E+02  0.31611975780E+00  0.88084301750E+02  0.10887871744E+03  0.00000000000E+00 0.  1.
<scales pt_clust_5="13000.00000" pt_clust_6="13000.00000" pt_clust_7="13000.00000" pt_clust_8="13000.00000" pt_clust_9="63.99793"></scales>
<clustering>
<clus scale="   63.998">  1  9  2 -1</clus>
<clus scale="   79.977">  5  6 -1 -1</clus>
<clus scale="   92.839">  7  8 -1 -1</clus>
<clus scale="  111.955">  2  5  1 -1</clus>
<clus scale="   63.998">  1  5  2 -1</clus>
</clustering>
</event>
<event>
 9    1  0.8429841E-005  0.1064346E+03  0.7546771E-02  0.1267715E+00
          1   -1    0    0  502    0 -0.00000000000E+00  0.00000000000E+00  0.34872354002E+03  0.34872354002E+03  0.00000000000E+00 0. -1.
         21   -1    0    0  501  502  0.00000000000E+00 -0.00000000000E+00 -0.56148082674E+02  0.56148082674E+02  0.00000000000E+00 0. -1.
        -24    2    1    2    0    0  0.57707638651E+02 -0.27665799825E+02  0.95297554578E+02  0.14644763058E+03  0.90937981923E+02 0.  0.
         23    2    1    2    0    0 -0.52084100704E+02 -0.16116739690E+02  0.77214632593E+02  0.13050322057E+03  0.89980488158E+02 0.  0.
         13    1    3    3    0    0  0.56318800283E+02 -0.57416186086E+02  0.60477052487E+02  0.10062752887E+03  0.00000000000E+00 0. -1.
        -14    1    3    3    0    0  0.13888383680E+01  0.29750386261E+02  0.34820502091E+02  0.45820101708E+02  0.00000000000E+00 0.  1.
        -11    1    4    4    0    0  0.25762878510E+02 -0.27878823777E+00  0.18477833616E+02  0.31705424885E+02  0.00000000000E+00 0.  1.
         11    1    4    4    0    0 -0.77846979213E+02 -0.15837951452E+02  0.58736798977E+02  0.98797795689E+02  0.00000000000E+00 0. -1.
          2    1    1    2  501    0 -0.56235379472E+01  0.43782539515E+02  0.12006327017E+03  0.12792077153E+03  0.00000000000E+00 0. -1.
<scales pt_clust_5="13000.00000" pt_clust_6="13000.00000" pt_clust_7="13000.00000" pt_clust_8="13000.00000" pt_clust_9="44.14223"></scales>
<clustering>
<clus scale="   44.142">  2  9  1 -1</clus>
<clus scale="   89.980">  7  8 -1 -1</clus>
<clus scale="   90.938">  5  6 -1 -1</clus>
<clus scale="  105.618">  2  7  1 -1</clus>
<clus scale="   44.142">  2  5  1 -1</clus>
</clustering>
</event>
<event>
 9    1  0.8429841E-005  0.9517864E+02  0.7546771E-02  0.1297155E+00
         -4   -1    0    0    0  501 -0.00000000000E+00  0.00000000000E+00  0.53728627131E+02  0.53728627131E+02  0.00000000000E+00 0.  1.
         21   -1    0    0  501  502  0.00000000000E+00 -0.00000000000E+00 -0.25445667356E+03  0.25445667356E+03  0.00000000000E+00 0. -1.
        -24    2    1    2    0    0  0.33083673947E+00  0.24177885538E+02 -0.16201701520E+02  0.85180831420E+02  0.80053727628E+02 0.  0.
         23    2    1    2    0    0  0.22064015275E+02 -0.34937353491E+02 -0.15295518333E+03  0.18282942987E+03  0.91235261165E+02 0.  0.
         11    1    3    3    0    0 -0.31971956081E+02 -0.36944933008E+00 -0.28452054391E+02  0.42800255461E+02  0.00000000000E+00 0. -1.
        -12    1    3    3    0    0  0.32302792821E+02  0.24547334868E+02  0.12250352870E+02  0.42380575959E+02  0.00000000000E+00 0.  1.
        -13    1    4    4    0    0 -0.17723973840E+01 -0.54118596932E+02 -0.44335252351E+02  0.69982701630E+02  0.00000000000E+00 0.  1.
         13    1    4    4    0    0  0.23836412659E+02  0.19181243441E+02 -0.10861993098E+03  0.11284672824E+03  0.00000000000E+00 0. -1.
         -3    1    1    2    0  502 -0.22394852014E+02  0.10759467953E+02 -0.31571161570E+02  0.40175039393E+02  0.00000000000E+00 0.  1.
<scales pt_clust_5="13000.00000" pt_clust_6="13000.00000" pt_clust_7="13000.00000" pt_clust_8="13000.00000" pt_clust_9="24.84543"></scales>
<clustering>
<clus scale="   24.845">  2  9  1 -1</clus>
<clus scale="   80.054">  5  6 -1 -1</clus>
<clus scale="   84.520">  1  5  2 -1</clus>
<clus scale="   91.235">  7  8 -1 -1</clus>
<clus scale="   24.845">  2  5  1 -1</clus>
</clustering>
</event>
<event>
 9    1  0.8429841E-005  0.3053623E+03  0.7546771E-02  0.1082637E+00
         21   -1    0    0  501  502  0.00000000000E+00  0.00000000000E+00  0.16334076597E+03  0.16334076597E+03  0.00000000000E+00 0.  1.
          1   -1    0    0  502    0 -0.00000000000E+00 -0.00000000000E+00 -0.80723972391E+03  0.80723972391E+03  0.00000000000E+00 0. -1.
        -24    2    1    2    0    0  0.28875189007E+03 -0.41370398388E+01 -0.53084499264E+03  0.60979006339E+03  0.81564367691E+02 0.  0.
         23    2    1    2    0    0 -0.31003371929E+03  0.22487442833E+01 -0.11250093086E+03  0.33941783277E+03  0.80137642912E+02 0.  0.
         13    1    3    3    0    0  0.19022030036E+03  0.34367574102E+02 -0.36625759947E+03  0.41413708116E+03  0.00000000000E+00 0. -1.
        -14    1    3    3    0    0  0.98531589706E+02 -0.38504613941E+02 -0.16458739317E+03  0.19565298223E+03  0.00000000000E+00 0.  1.
        -13    1    4    4    0    0 -0.23620250421E+03  0.35906369590E+02 -0.79082273402E+02  0.25166425320E+03  0.00000000000E+00 0. -1.
         13    1    4    4    0    0 -0.73831215085E+02 -0.33657625307E+02 -0.33418657456E+02  0.87753579576E+02  0.00000000000E+00 0.  1.
          2    1    1    2  501    0  0.21281829224E+02  0.18882955555E+01 -0.55303443911E+00  0.21372593720E+02  0.00000000000E+00 0. -1.
<scales pt_clust_5="13000.00000" pt_clust_6="13000.00000" pt_clust_7="13000.00000" pt_clust_8="13000.00000" pt_clust_9="21.36544"></scales>
<clustering>
<clus scale="   21.365">  1  9  2 -1</clus>
<clus scale="   80.138">  7  8 -1 -1</clus>
<clus scale="   81.564">  5  6 -1 -1</clus>
<clus scale="  304.984">  1  7  2 -1</clus>
<clus scale="   21.365">  1  5  2 -1</clus>
</clustering>
</event>
<event>
 9    1  0.8429841E-005  0.1010366E+03  0.7546771E-02  0.1286505E+00
         -2   -1    0    0    0  501 -0.00000000000E+00  0.00000000000E+00  0.43564102837E+02  0.43564102837E+02  0.00000000000E+00 0.  1.
         21   -1    0    0  501  502  0.00000000000E+00 -0.00000000000E+00 -0.59469931998E+03  0.59469931998E+03  0.00000000000E+00 0. -1.
        -24    2    1    2    0    0  0.42117520420E+00  0.36338081171E+02 -0.18324194157E+02  0.89070030541E+02  0.79227903654E+02 0.  0.
         23    2    1    2    0    0 -0.25817632313E+02 -0.15416831542E+02 -0.38048609372E+03  0.39335513383E+03  0.95154426920E+02 0.  0.
         13    1    3    3    0    0 -0.33807283433E+02  0.40162987762E+02 -0.14188079258E+02  0.54381059130E+02  0.00000000000E+00 0. -1.
        -14    1    3    3    0    0  0.34228458637E+02 -0.38249065914E+01 -0.41361148990E+01  0.34688971411E+02  0.00000000000E+00 0.  1.
        -11    1    4    4    0    0  0.18776237976E+02  0.28299136759E+02 -0.89111389921E+02  0.95363662197E+02  0.00000000000E+00 0.  1.
         11    1    4    4    0    0 -0.44593870289E+02 -0.43715968301E+02 -0.29137470380E+03  0.29799147163E+03  0.00000000000E+00 0. -1.
         -1    1    1    2    0  502  0.25396457109E+02 -0.20921249629E+02 -0.15232492927E+03  0.15583825845E+03  0.00000000000E+00 0.  1.
<scales pt_clust_5="13000.00000" pt_clust_6="13000.00000" pt_clust_7="13000.00000" pt_clust_8="13000.00000" pt_clust_9="32.90408"></scales>
<clustering>
<clus scale="   32.904">  2  9  1 -1</clus>
<clus scale="   79.228">  5  6 -1 -1</clus>
<clus scale="   86.204">  1  5  2 -1</clus>
<clus scale="   95.154">  7  8 -1 -1</clus>
<clus scale="   32.904">  2  5  1 -1</clus>
</clustering>
</event>
<event>
 9    1  0.8429841E-005  0.1481584E+03  0.7546771E-02  0.1204603E+00
          1   -1    0    0  502    0 -0.00000000000E+00  0.00000000000E+00  0.25398924242E+03  0.25398924242E+03  0.00000000000E+00 0. -1.
         21   -1    0    0  501  502  0.00000000000E+00 -0.00000000000E+00 -0.12771969357E+03  0.12771969357E+03  0.00000000000E+00 0. -1.
         23    2    1    2    0    0  0.84056388163E+02  0.38328418630E+02  0.38489196411E+02  0.13521988682E+03  0.90931047969E+02 0.  0.
        -24    2    1    2    0    0 -0.13797565790E+03 -0.57925898530E+02  0.48646586559E+02  0.17704266339E+03  0.81147534678E+02 0.  0.
         13    1    4    4    0    0 -0.57509036630E+02 -0.47463382026E+02  0.59208764534E+02  0.95214178173E+02  0.00000000000E+00 0. -1.
        -14    1    4    4    0    0 -0.80466621265E+02 -0.10462516504E+02 -0.10562177975E+02  0.81828485218E+02  0.00000000000E+00 0.  1.
        -13    1    3    3    0    0  0.68925567736E+00  0.20997760721E+02  0.45161855562E+02  0.49809378901E+02  0.00000000000E+00 0.  1.
         13    1    3    3    0    0  0.83367132486E+02  0.17330657909E+02 -0.66726591503E+01  0.85410507917E+02  0.00000000000E+00 0. -1.
          2    1    1    2  501    0  0.53919269732E+02  0.19597479900E+02  0.39133765871E+02  0.69446385782E+02  0.00000000000E+00 0. -1.
<scales pt_clust_5="13000.00000" pt_clust_6="13000.00000" pt_clust_7="13000.00000" pt_clust_8="13000.00000" pt_clust_9="57.37031"></scales>
<clustering>
<clus scale="   57.370">  2  9  1 -1</clus>
<clus scale="   81.148">  5  6 -1 -1</clus>
<clus scale="   90.931">  7  8 -1 -1</clus>
<clus scale="  142.364">  2  5  1 -1</clus>
<clus scale="   57.370">  2  5  1 -1</clus>
</clustering>
</event>
<event>
 9    1  0.8429841E-005  0.1234908E+03  0.7546771E-02  0.1240670E+00
         21   -1    0    0  501  502  0.00000000000E+00  0.00000000000E+00  0.16172216605E+03  0.16172216605E+03  0.00000000000E+00 0. -1.
          1   -1    0    0  502    0 -0.00000000000E+00 -0.00000000000E+00 -0.66496061230E+03  0.66496061230E+03  0.00000000000E+00 0. -1.
        -24    2    1    2    0    0  0.20305749924E+02 -0.87443454270E+02 -0.59645987713E+03  0.60878644322E+03  0.82449179788E+02 0.  0.
         23    2    1    2    0    0 -0.24927343269E+02 -0.23268752422E+01  0.12784837318E+02  0.97272470286E+02  0.93121934148E+02 0.  0.
         11    1    3    3    0    0 -0.17364386978E+02 -0.77747914454E+02 -0.32869372667E+03  0.33820973684E+03  0.00000000000E+00 0. -1.
        -12    1    3    3    0    0  0.37670136901E+02 -0.96955398157E+01 -0.26776615046E+03  0.27057670639E+03  0.00000000000E+00 0.  1.
        -11    1    4    4    0    0  0.28936847767E+02 -0.23636290240E+02 -0.22369999349E+01  0.37430195614E+02  0.00000000000E+00 0.  1.
         11    1    4    4    0    0 -0.53864191036E+02  0.21309414998E+02  0.15021837253E+02  0.59842274672E+02  0.00000000000E+00 0. -1.
          2    1    1    2  501    0  0.46215933458E+01  0.89770329512E+02  0.80436593568E+02  0.12062386485E+03  0.00000000000E+00 0. -1.
<scales pt_clust_5="13000.00000" pt_clust_6="13000.00000" pt_clust_7="13000.00000" pt_clust_8="13000.00000" pt_clust_9="89.88922"></scales>
<clustering>
<clus scale="   82.449">  5  6 -1 -1</clus>
<clus scale="   89.889">  1  9  2 -1</clus>
<clus scale="   93.122">  7  8 -1 -1</clus>
<clus scale="  115.655">  2  5  1 -1</clus>
<clus scale="   89.889">  1  5  2 -1</clus>
</clustering>
</event>
<event>
 9    1  0.8429841E-005  0.1343349E+03  0.7546771E-02  0.1223178E+00
          3   -1    0    0  502    0 -0.00000000000E+00  0.00000000000E+00  0.33005637637E+03  0.33005637637E+03  0.00000000000E+00 0. -1.
         21   -1    0    0  501  502  0.00000000000E+00 -0.00000000000E+00 -0.38941205933E+03  0.38941205933E+03  0.00000000000E+00 0. -1.
         23    2    1    2    0    0 -0.13306989856E+01 -0.11690159451E+03  0.27366880086E+03  0.31096871807E+03  0.90217390231E+02 0.  0.
        -24    2    1    2    0    0  0.25479070523E+02  0.35607831815E+02 -0.35757765231E+02  0.99373009501E+02  0.81726840889E+02 0.  0.
         11    1    4    4    0    0  0.33796448909E+02 -0.49154165524E+01 -0.45482597497E+02  0.56877306141E+02  0.00000000000E+00 0. -1.
        -12    1    4    4    0    0 -0.83173783868E+01  0.40523248367E+02  0.97248322663E+01  0.42495703360E+02  0.00000000000E+00 0.  1.
        -11    1    3    3    0    0 -0.21245567665E+02  0.94929145120E+00  0.15009439559E+02  0.26029955350E+02  0.00000000000E+00 0.  1.
         11    1    3    3    0    0  0.19914868679E+02 -0.11785088596E+03  0.25865936130E+03  0.28493876272E+03  0.00000000000E+00 0. -1.
          4    1    1    2  501    0 -0.24148371537E+02  0.81293762693E+02 -0.29726671858E+03  0.30912670813E+03  0.00000000000E+00 0. -1.
<scales pt_clust_5="13000.00000" pt_clust_6="13000.00000" pt_clust_7="13000.00000" pt_clust_8="13000.00000" pt_clust_9="84.80460"></scales>
<clustering>
<clus scale="   81.727">  5  6 -1 -1</clus>
<clus scale="   84.805">  2  9  1 -1</clus>
<clus scale="   90.217">  7  8 -1 -1</clus>
<clus scale="  128.786">  2  5  1 -1</clus>
<clus scale="   84.805">  2  5  1 -1</clus>
</clustering>
</event>
<event>
 9    1  0.8429841E-005  0.2079722E+03  0.7546771E-02  0.1180614E+00
         21   -1    0    0  501  502  0.00000000000E+00  0.00000000000E+00  0.14991419679E+03  0.14991419679E+03  0.00000000000E+00 0.  1.
          1   -1    0    0  502    0 -0.00000000000E+00 -0.00000000000E+00 -0.39464672720E+03  0.39464672720E+03  0.00000000000E+00 0. -1.
        -24    2    1    2    0    0 -0.18596578752E+02 -0.28348990996E+02 -0.24495833740E+02  0.90618421715E+02  0.80387526717E+02 0.  0.
         23    2    1    2    0    0 -0.16499616153E+03  0.60579906477E+02 -0.15904276679E+03  0.25775426804E+03  0.10123735789E+03 0.  0.
         13    1    3    3    0    0 -0.31429805331E+02 -0.35548127204E+02 -0.44990523056E+02  0.65388448335E+02  0.00000000000E+00 0. -1.
        -14    1    3    3    0    0  0.12833226579E+02  0.71991362073E+01  0.20494689316E+02  0.25229973379E+02  0.00000000000E+00 0.  1.
        -13    1    4    4    0    0 -0.10251778703E+03 -0.80051740435E+01 -0.49261411477E+02  0.11402046364E+03  0.00000000000E+00 0. -1.
         13    1    4    4    0    0 -0.62478374505E+02  0.68585080521E+02 -0.10978135532E+03  0.14373380440E+03  0.00000000000E+00 0.  1.
          2    1    1    2  501    0  0.18359274029E+03 -0.32230915481E+02 -0.61193929877E+02  0.19618823423E+03  0.00000000000E+00 0. -1.
<scales pt_clust_5="13000.00000" pt_clust_6="13000.00000" pt_clust_7="13000.00000" pt_clust_8="13000.00000" pt_clust_9="181.66849"></scales>
<clustering>
<clus scale="   80.388">  5  6 -1 -1</clus>
<clus scale="   87.245">  2  5  1 -1</clus>
<clus scale="  101.237">  7  8 -1 -1</clus>
<clus scale="  181.668">  1  9  2 -1</clus>
<clus scale="  181.668">  1  5  2 -1</clus>
</clustering>
</event>
<event>
 9    1  0.8429841E-005  0.1320463E+03  0.7546771E-02  0.1240314E+00
          1   -1    0    0  502    0 -0.00000000000E+00  0.00000000000E+00  0.29243861797E+03  0.29243861797E+03  0.00000000000E+00 0. -1.
         21   -1    0    0  501  502  0.00000000000E+00 -0.00000000000E+00 -0.24988754147E+03  0.24988754147E+03  0.00000000000E+00 0. -1.
         23    2    1    2    0    0 -0.92794339534E+01 -0.27010029577E+02  0.21958250583E+03  0.23936536304E+03  0.90904623461E+02 0.  0.
        -24    2    1    2    0    0  0.11182483186E+03  0.26367569904E+02 -0.74497470232E+02  0.15794636899E+03  0.78721919724E+02 0.  0.
         11    1    4    4    0    0  0.10953889192E+03  0.51485660049E+01 -0.38735026219E+02  0.11629995199E+03  0.00000000000E+00 0. -1.
        -12    1    4    4    0    0  0.22859399335E+01  0.21219003899E+02 -0.35762444013E+02  0.41646417008E+02  0.00000000000E+00 0.  1.
        -13    1    3    3    0    0  0.65783582124E+00 -0.57110855850E+02  0.95302041982E+02  0.11110608359E+03  0.00000000000E+00 0. -1.
         13    1    3    3    0    0 -0.99372697747E+01  0.30100826273E+02  0.12428046384E+03  0.12825927946E+03  0.00000000000E+00 0.  1.
          2    1    1    2  501    0 -0.10254539790E+03  0.64245967248E+00 -0.10253395910E+03  0.14501442740E+03  0.00000000000E+00 0. -1.
<scales pt_clust_5="13000.00000" pt_clust_6="13000.00000" pt_clust_7="13000.00000" pt_clust_8="13000.00000" pt_clust_9="106.01450"></scales>
<clustering>
<clus scale="   78.722">  5  6 -1 -1</clus>
<clus scale="   90.905">  7  8 -1 -1</clus>
<clus scale="   95.285">  1  7  2 -1</clus>
<clus scale="  106.014">  2  9  1 -1</clus>
<clus scale="  106.014">  2  5  1 -1</clus>
</clustering>
</event>
<event>
 9    1  0.8429841E-005  0.1411081E+03  0.7546771E-02  0.1213882E+00
         21   -1    0    0  501  502  0.00000000000E+00  0.00000000000E+00  0.56916803405E+02  0.56916803405E+02  0.00000000000E+00 0.  1.
         -2   -1    0    0    0  501 -0.00000000000E+00 -0.00000000000E+00 -0.77404011342E+03  0.77404011342E+03  0.00000000000E+00 0.  1.
         23    2    1    2    0    0  0.93111937542E+01 -0.70700126151E+02 -0.14521919174E+03  0.17550613942E+03  0.68033706052E+02 0.  0.
        -24    2    1    2    0    0  0.69601118100E+01  0.16628192281E+03 -0.50516578530E+03  0.53774504124E+03  0.79241010374E+02 0.  0.
         13    1    4    4    0    0 -0.31691538645E+02  0.36628199946E+02 -0.15309535366E+03  0.16057448728E+03  0.00000000000E+00 0. -1.
        -14    1    4    4    0    0  0.38651650455E+02  0.12965372287E+03 -0.35207043165E+03  0.37717055396E+03  0.00000000000E+00 0.  1.
        -11    1    3    3    0    0  0.31135246555E+02 -0.12894200481E+02 -0.73392744276E+02  0.80759884203E+02  0.00000000000E+00 0.  1.
         11    1    3    3    0    0 -0.21824052801E+02 -0.57805925670E+02 -0.71826447463E+02  0.94746255221E+02  0.00000000000E+00 0. -1.
         -1    1    1    2    0  502 -0.16271305564E+02 -0.95581796660E+02 -0.66738332972E+02  0.11770573616E+03  0.00000000000E+00 0.  1.
<scales pt_clust_5="13000.00000" pt_clust_6="13000.00000" pt_clust_7="13000.00000" pt_clust_8="13000.00000" pt_clust_9="96.95687"></scales>
<clustering>
<clus scale="   68.034">  7  8 -1 -1</clus>
<clus scale="   79.241">  5  6 -1 -1</clus>
<clus scale="   96.957">  1  9  2 -1</clus>
<clus scale="  135.133">  2  7  1 -1</clus>
<clus scale="   96.957">  1  5  2 -1</clus>
</clustering>
</event>
<event>
 9    1  0.1171499E-004  0.1280313E+03  0.7546771E-02  0.1233236E+00
         21   -1    0    0  501  502  0.00000000000E+00  0.00000000000E+00  0.14894839876E+03  0.14894839876E+03  0.00000000000E+00 0. -1.
         -2   -1    0    0    0  501 -0.00000000000E+00 -0.00000000000E+00 -0.34385523937E+03  0.34385523937E+03  0.00000000000E+00 0.  1.
         23    2    1    2    0    0  0.56897943915E+02 -0.80799074577E+02 -0.10314607068E+03  0.16927268331E+03  0.90819947934E+02 0.  0.
        -24    2    1    2    0    0 -0.39595109510E+02  0.46299217992E+02  0.91577975691E+02  0.13617374566E+03  0.80283080975E+02 0.  0.
         13    1    4    4    0    0 -0.44191467443E+02  0.43764801518E+02  0.10484590897E+03  0.12190532505E+03  0.00000000000E+00 0. -1.
        -14    1    4    4    0    0  0.45963579332E+01  0.25344164736E+01 -0.13267933282E+02  0.14268420609E+02  0.00000000000E+00 0.  1.
        -11    1    3    3    0    0 -0.77795486462E+01 -0.67381350644E+02 -0.46294107069E+02  0.82121325738E+02  0.00000000000E+00 0. -1.
         11    1    3    3    0    0  0.64677492561E+02 -0.13417723933E+02 -0.56851963615E+02  0.87151357571E+02  0.00000000000E+00 0.  1.
         -1    1    1    2    0  502 -0.17302834404E+02  0.34499856585E+02 -0.18333874561E+03  0.18735720916E+03  0.00000000000E+00 0.  1.
<scales pt_clust_5="13000.00000" pt_clust_6="13000.00000" pt_clust_7="13000.00000" pt_clust_8="13000.00000" pt_clust_9="38.59572"></scales>
<clustering>
<clus scale="   38.596">  1  9  2 -1</clus>
<clus scale="   80.283">  5  6 -1 -1</clus>
<clus scale="   90.820">  7  8 -1 -1</clus>
<clus scale="  120.785">  1  5  2 -1</clus>
<clus scale="   38.596">  1  5  2 -1</clus>
</clustering>
</event>
<event>
 9    1  0.8429841E-005  0.4496486E+03  0.7546771E-02  0.1027827E+00
          1   -1    0    0  502    0 -0.00000000000E+00  0.00000000000E+00  0.88375542026E+03  0.88375542026E+03  0.00000000000E+00 0. -1.
         21   -1    0    0  501  502  0.00000000000E+00 -0.00000000000E+00 -0.20760048980E+03  0.20760048980E+03  0.00000000000E+00 0. -1.
        -24    2    1    2    0    0 -0.62518921832E+02  0.27806265879E+02  0.14377002839E+03  0.17780571894E+03  0.79140688740E+02 0.  0.
         23    2    1    2    0    0 -0.25038915598E+03  0.21177081713E+03  0.31012597354E+03  0.46110386815E+03  0.94324171567E+02 0.  0.
         11    1    3    3    0    0 -0.75104478728E+02  0.99621097032E+01  0.13388887530E+03  0.15383808788E+03  0.00000000000E+00 0. -1.
        -12    1    3    3    0    0  0.12585556896E+02  0.17844156176E+02  0.98811530948E+01  0.23967631057E+02  0.00000000000E+00 0.  1.
        -11    1    4    4    0    0 -0.25149701358E+02  0.62707384365E+02  0.37217208585E+02  0.77135232853E+02  0.00000000000E+00 0.  1.
         11    1    4    4    0    0 -0.22523945462E+03  0.14906343277E+03  0.27290876496E+03  0.38396863530E+03  0.00000000000E+00 0. -1.
          2    1    1    2  501    0  0.31290807781E+03 -0.23957708301E+03  0.22225892853E+03  0.45244632297E+03  0.00000000000E+00 0. -1.
<scales pt_clust_5="13000.00000" pt_clust_6="13000.00000" pt_clust_7="13000.00000" pt_clust_8="13000.00000" pt_clust_9="394.09218"></scales>
<clustering>
<clus scale="   79.141">  5  6 -1 -1</clus>
<clus scale="   94.324">  7  8 -1 -1</clus>
<clus scale="  102.207">  5  7 -1 -1</clus>
<clus scale="  394.092">  2  9  1 -1</clus>
<clus scale="  394.092">  2  5  1 -1</clus>
</clustering>
</event>
<event>
 9    1  0.8429841E-005  0.1007033E+03  0.7546771E-02  0.1284182E+00
          3   -1    0    0  502    0 -0.00000000000E+00  0.00000000000E+00  0.23738530050E+02  0.23738530050E+02  0.00000000000E+00 0. -1.
         21   -1    0    0  501  502  0.00000000000E+00 -0.00000000000E+00 -0.69823725120E+03  0.69823725120E+03  0.00000000000E+00 0.  1.
         23    2    1    2    0    0 -0.26762914271E+02  0.26339380214E+01 -0.28813172883E+03  0.30355136066E+03  0.91653391599E+02 0.  0.
        -24    2    1    2    0    0  0.59745681864E+02 -0.87562713220E+01 -0.36491359113E+03  0.37860489842E+03  0.80830200590E+02 0.  0.
         11    1    4    4    0    0  0.54849932079E+01 -0.26387736408E+02 -0.37059652920E+02  0.45823745567E+02  0.00000000000E+00 0. -1.
        -12    1    4    4    0    0  0.54260688656E+02  0.17631465086E+02 -0.32785393821E+03  0.33278115285E+03  0.00000000000E+00 0.  1.
        -11    1    3    3    0    0  0.29666694207E+02  0.20101284059E+02 -0.12586330387E+03  0.13086537215E+03  0.00000000000E+00 0. -1.
         11    1    3    3    0    0 -0.56429608478E+02 -0.17467346038E+02 -0.16226842496E+03  0.17268598852E+03  0.00000000000E+00 0.  1.
          4    1    1    2  501    0 -0.32982767593E+02  0.61223333007E+01 -0.21453401191E+02  0.39819522169E+02  0.00000000000E+00 0. -1.
<scales pt_clust_5="13000.00000" pt_clust_6="13000.00000" pt_clust_7="13000.00000" pt_clust_8="13000.00000" pt_clust_9="33.54619"></scales>
<clustering>
<clus scale="   33.546">  2  9  1 -1</clus>
<clus scale="   80.830">  5  6 -1 -1</clus>
<clus scale="   90.963">  2  5  1 -1</clus>
<clus scale="   91.653">  7  8 -1 -1</clus>
<clus scale="   33.546">  2  5  1 -1</clus>
</clustering>
</event>
<event>
 9    1  0.8429841E-005  0.1154703E+03  0.7546771E-02  0.1256628E+00
         21   -1    0    0  501  502  0.00000000000E+00  0.00000000000E+00  0.27252751878E+02  0.27252751878E+02  0.00000000000E+00 0. -1.
         -2   -1    0    0    0  501 -0.00000000000E+00 -0.00000000000E+00 -0.65037654860E+03  0.65037654860E+03  0.00000000000E+00 0.  1.
        -24    2    1    2    0    0 -0.63971500614E+02  0.21400711885E+02 -0.30952455522E+03  0.32688547461E+03  0.80612157054E+02 0.  0.
         23    2    1    2    0    0  0.61871619943E+02  0.47240625356E+01 -0.30019842929E+03  0.32130753695E+03  0.96275761394E+02 0.  0.
         13    1    3    3    0    0  0.10634585529E+02  0.27674683142E+02 -0.72873472259E+02  0.78673537199E+02  0.00000000000E+00 0. -1.
        -14    1    3    3    0    0 -0.74606086143E+02 -0.62739712568E+01 -0.23665108296E+03  0.24821193741E+03  0.00000000000E+00 0.  1.
        -13    1    4    4    0    0  0.60296517705E+02  0.40267833945E+02 -0.24609551755E+03  0.25655442358E+03  0.00000000000E+00 0.  1.
         13    1    4    4    0    0  0.15751022380E+01 -0.35543771409E+02 -0.54102911738E+02  0.64753113373E+02  0.00000000000E+00 0. -1.
         -1    1    1    2    0  502  0.20998806709E+01 -0.26124774421E+02 -0.13400812211E+02  0.29436288919E+02  0.00000000000E+00 0.  1.
<scales pt_clust_5="13000.00000" pt_clust_6="13000.00000" pt_clust_7="13000.00000" pt_clust_8="13000.00000" pt_clust_9="26.20903"></scales>
<clustering>
<clus scale="   26.209">  1  9  2 -1</clus>
<clus scale="   80.612">  5  6 -1 -1</clus>
<clus scale="   96.276">  7  8 -1 -1</clus>
<clus scale="  102.775">  2  5  1 -1</clus>
<clus scale="   26.209">  1  5  2 -1</clus>
</clustering>
</event>
<event>
 9    1  0.8429841E-005  0.9347972E+02  0.7546771E-02  0.1299389E+00
          1   -1    0    0  502    0 -0.00000000000E+00  0.00000000000E+00  0.14099272787E+03  0.14099272787E+03  0.00000000000E+00 0. -1.
         21   -1    0    0  501  502  0.00000000000E+00 -0.00000000000E+00 -0.10656445902E+03  0.10656445902E+03  0.00000000000E+00 0.  1.
         23    2    1    2    0    0  0.16790958380E+02  0.31279330810E+02  0.87931021142E+02  0.12939059459E+03  0.88032543248E+02 0.  0.
        -24    2    1    2    0    0  0.30251006976E+01 -0.22511485930E+02 -0.35879828934E+02  0.90235986704E+02  0.79619425639E+02 0.  0.
         11    1    4    4    0    0 -0.32100593051E+02 -0.88521327262E+01  0.60650153537E+01  0.33846606023E+02  0.00000000000E+00 0. -1.
        -12    1    4    4    0    0  0.35125693748E+02 -0.13659353204E+02 -0.41944844288E+02  0.56389380681E+02  0.00000000000E+00 0.  1.
        -11    1    3    3    0    0  0.88805010470E+01 -0.27882993785E+02  0.52148423373E+02  0.59797848636E+02  0.00000000000E+00 0. -1.
         11    1    3    3    0    0  0.79104573326E+01  0.59162324595E+02  0.35782597769E+02  0.69592745957E+02  0.00000000000E+00 0.  1.
          2    1    1    2  501    0 -0.19816059077E+02 -0.87678448803E+01 -0.17622923361E+02  0.27930605597E+02  0.00000000000E+00 0. -1.
<scales pt_clust_5="13000.00000" pt_clust_6="13000.00000" pt_clust_7="13000.00000" pt_clust_8="13000.00000" pt_clust_9="21.66913"></scales>
<clustering>
<clus scale="   21.669">  2  9  1 -1</clus>
<clus scale="   79.619">  5  6 -1 -1</clus>
<clus scale="   85.604">  2  5  1 -1</clus>
<clus scale="   88.033">  7  8 -1 -1</clus>
<clus scale="   21.669">  2  5  1 -1</clus>
</clustering>
</event>
<event>
 9    1  0.8429841E-005  0.1379286E+03  0.7546771E-02  0.1233837E+00
          1   -1    0    0  502    0 -0.00000000000E+00  0.00000000000E+00  0.69662543629E+03  0.69662543629E+03  0.00000000000E+00 0. -1.
         21   -1    0    0  501  502  0.00000000000E+00 -0.00000000000E+00 -0.60257661595E+02  0.60257661595E+02  0.00000000000E+00 0.  1.
        -24    2    1    2    0    0 -0.39519811653E+02  0.32551265282E+02  0.38125372070E+03  0.39301346059E+03  0.80521924218E+02 0.  0.
         23    2    1    2    0    0 -0.20134441342E+02  0.66644198417E+02  0.20996768809E+03  0.23962566652E+03  0.92125919816E+02 0.  0.
         11    1    3    3    0    0 -0.21904090643E+02  0.54002366441E+02  0.32612978632E+03  0.33129546072E+03  0.00000000000E+00 0. -1.
        -12    1    3    3    0    0 -0.17615721010E+02 -0.21451101158E+02  0.55123934378E+02  0.61717999878E+02  0.00000000000E+00 0.  1.
        -11    1    4    4    0    0  0.25448185414E+02 -0.72263832588E+01  0.31252943297E+02  0.40946028142E+02  0.00000000000E+00 0. -1.
         11    1    4    4    0    0 -0.45582626756E+02  0.73870581676E+02  0.17871474479E+03  0.19867963837E+03  0.00000000000E+00 0.  1.
          2    1    1    2  501    0  0.59654252994E+02 -0.99195463699E+02  0.45146365915E+02  0.12424397078E+03  0.00000000000E+00 0. -1.
<scales pt_clust_5="13000.00000" pt_clust_6="13000.00000" pt_clust_7="13000.00000" pt_clust_8="13000.00000" pt_clust_9="102.65045"></scales>
<clustering>
<clus scale="   80.522">  5  6 -1 -1</clus>
<clus scale="   92.126">  7  8 -1 -1</clus>
<clus scale="   95.421">  1  5  2 -1</clus>
<clus scale="  102.650">  2  9  1 -1</clus>
<clus scale="  102.650">  2  5  1 -1</clus>
</clustering>
</event>
<event>
 9    1  0.8429841E-005  0.1557679E+03  0.7546771E-02  0.1195211E+00
         21   -1    0    0  501  502  0.00000000000E+00  0.00000000000E+00  0.12384810340E+03  0.12384810340E+03  0.00000000000E+00 0. -1.
          1   -1    0    0  502    0 -0.00000000000E+00 -0.00000000000E+00 -0.54758048951E+03  0.54758048951E+03  0.00000000000E+00 0. -1.
        -24    2    1    2    0    0 -0.67415945677E+02 -0.74876293560E+02 -0.18842623509E+03  0.22827840546E+03  0.80344354255E+02 0.  0.
         23    2    1    2    0    0  0.43053958489E+02  0.18050725219E+03 -0.26002444540E+03  0.33196385773E+03  0.90281665913E+02 0.  0.
         13    1    3    3    0    0 -0.59646184569E+02 -0.73371723484E+02 -0.93349626464E+02  0.13287298409E+03  0.00000000000E+00 0. -1.
        -14    1    3    3    0    0 -0.77697611083E+01 -0.15045700762E+01 -0.95076608622E+02  0.95405421366E+02  0.00000000000E+00 0.  1.
        -13    1    4    4    0    0  0.64490756407E+02  0.78363777576E+02 -0.13985812731E+03  0.17280114315E+03  0.00000000000E+00 0.  1.
         13    1    4    4    0    0 -0.21436797918E+02  0.10214347461E+03 -0.12016631809E+03  0.15916271459E+03  0.00000000000E+00 0. -1.
          2    1    1    2  501    0  0.24361987188E+02 -0.10563095863E+03  0.24718294372E+02  0.11118632972E+03  0.00000000000E+00 0. -1.
<scales pt_clust_5="13000.00000" pt_clust_6="13000.00000" pt_clust_7="13000.00000" pt_clust_8="13000.00000" pt_clust_9="108.40390"></scales>
<clustering>
<clus scale="   80.344">  5  6 -1 -1</clus>
<clus scale="   90.282">  7  8 -1 -1</clus>
<clus scale="  108.404">  1  9  2 -1</clus>
<clus scale="  150.227">  2  5  1 -1</clus>
<clus scale="  108.404">  1  5  2 -1</clus>
</clustering>
</event>
<event>
 9    1  0.8429841E-005  0.1157958E+03  0.7546771E-02  0.1259353E+00
         21   -1    0    0  501  502  0.00000000000E+00  0.00000000000E+00  0.39507883311E+02  0.39507883311E+02  0.00000000000E+00 0. -1.
          1   -1    0    0  502    0 -0.00000000000E+00 -0.00000000000E+00 -0.48609914431E+03  0.48609914431E+03  0.00000000000E+00 0. -1.
         23    2    1    2    0    0  0.73062766547E+01  0.69893542715E+02 -0.22170307130E+03  0.25145452617E+03  0.95596223348E+02 0.  0.
        -24    2    1    2    0    0  0.45983186301E+02 -0.54946844726E+02 -0.15550750512E+03  0.18540088154E+03  0.71114650813E+02 0.  0.
         11    1    4    4    0    0  0.27567888530E+02  0.93089730085E+01 -0.23374888986E+02  0.37323329053E+02  0.00000000000E+00 0. -1.
        -12    1    4    4    0    0  0.18415297771E+02 -0.64255817734E+02 -0.13213261614E+03  0.14807755249E+03  0.00000000000E+00 0.  1.
        -13    1    3    3    0    0  0.15105565562E+02  0.91034536852E+02 -0.19955616418E+03  0.21985933610E+03  0.00000000000E+00 0. -1.
         13    1    3    3    0    0 -0.77992889070E+01 -0.21140994137E+02 -0.22146907121E+02  0.31595190070E+02  0.00000000000E+00 0.  1.
          2    1    1    2  501    0 -0.53289462956E+02 -0.14946697989E+02 -0.69380684576E+02  0.88751619902E+02  0.00000000000E+00 0. -1.
<scales pt_clust_5="13000.00000" pt_clust_6="13000.00000" pt_clust_7="13000.00000" pt_clust_8="13000.00000" pt_clust_9="55.34592"></scales>
<clustering>
<clus scale="   55.346">  1  9  2 -1</clus>
<clus scale="   71.115">  5  6 -1 -1</clus>
<clus scale="   95.596">  7  8 -1 -1</clus>
<clus scale="   96.578">  1  5  2 -1</clus>
<clus scale="   55.346">  1  5  2 -1</clus>
</clustering>
</event>
<event>
 9    1  0.8429841E-005  0.1294585E+03  0.7546771E-02  0.1230490E+00
         21   -1    0    0  501  502  0.00000000000E+00  0.00000000000E+00  0.16215809106E+03  0.16215809106E+03  0.00000000000E+00 0. -1.
          1   -1    0    0  502    0 -0.00000000000E+00 -0.00000000000E+00 -0.44198381543E+03  0.44198381543E+03  0.00000000000E+00 0. -1.
         23    2    1    2    0    0  0.88406022930E+02  0.29215075529E+02 -0.36568355858E+03  0.38792281084E+03  0.89947187970E+02 0.  0.
        -24    2    1    2    0    0 -0.72236425299E+02 -0.73215906350E+02  0.16013557742E+02  0.13210160665E+03  0.81337140130E+02 0.  0.
         13    1    4    4    0    0 -0.53354882924E+02 -0.41580678511E+02 -0.29286506966E+02  0.73711572005E+02  0.00000000000E+00 0. -1.
        -14    1    4    4    0    0 -0.18881542375E+02 -0.31635227839E+02  0.45300064708E+02  0.58390034642E+02  0.00000000000E+00 0.  1.
        -13    1    3    3    0    0  0.70816381805E+02 -0.31105641277E+01 -0.32674394502E+03  0.33434449472E+03  0.00000000000E+00 0. -1.
         13    1    3    3    0    0  0.17589641125E+02  0.32325639657E+02 -0.38939613566E+02  0.53578316125E+02  0.00000000000E+00 0.  1.
          2    1    1    2  501    0 -0.16169597631E+02  0.44000830821E+02  0.69844276476E+02  0.84117489007E+02  0.00000000000E+00 0. -1.
<scales pt_clust_5="13000.00000" pt_clust_6="13000.00000" pt_clust_7="13000.00000" pt_clust_8="13000.00000" pt_clust_9="46.87781"></scales>
<clustering>
<clus scale="   46.878">  1  9  2 -1</clus>
<clus scale="   81.337">  5  6 -1 -1</clus>
<clus scale="   89.947">  7  8 -1 -1</clus>
<clus scale="  123.631">  1  5  2 -1</clus>
<clus scale="   46.878">  1  5  2 -1</clus>
</clustering>
</event>
<event>
 9    1  0.8429841E-005  0.1134126E+03  0.7546771E-02  0.1258649E+00
         21   -1    0    0  501  502  0.00000000000E+00  0.00000000000E+00  0.37148669010E+02  0.37148669010E+02  0.00000000000E+00 0.  1.
          1   -1    0    0  502    0 -0.00000000000E+00 -0.00000000000E+00 -0.51485175745E+03  0.51485175745E+03  0.00000000000E+00 0. -1.
        -24    2    1    2    0    0 -0.25363260513E+01 -0.68806088601E+02 -0.27804654179E+03  0.29772010736E+03  0.81158315337E+02 0.  0.
         23    2    1    2    0    0 -0.30350072124E+02  0.57840392155E+02 -0.18427677492E+03  0.21635540562E+03  0.92655781932E+02 0.  0.
         13    1    3    3    0    0 -0.30864713963E+02 -0.20296473947E+02 -0.18794730025E+03  0.19154311550E+03  0.00000000000E+00 0. -1.
        -14    1    3    3    0    0  0.28328387912E+02 -0.48509614654E+02 -0.90099241532E+02  0.10617699186E+03  0.00000000000E+00 0.  1.
        -11    1    4    4    0    0 -0.56342583944E+02  0.16211918516E+02 -0.13314840278E+03  0.14548474226E+03  0.00000000000E+00 0.  1.
         11    1    4    4    0    0  0.25992511820E+02  0.41628473639E+02 -0.51128372144E+02  0.70870663369E+02  0.00000000000E+00 0. -1.
          2    1    1    2  501    0  0.32886398175E+02  0.10965696446E+02 -0.15379771732E+02  0.37924913474E+02  0.00000000000E+00 0. -1.
<scales pt_clust_5="13000.00000" pt_clust_6="13000.00000" pt_clust_7="13000.00000" pt_clust_8="13000.00000" pt_clust_9="34.66643"></scales>
<clustering>
<clus scale="   34.666">  1  9  2 -1</clus>
<clus scale="   81.158">  5  6 -1 -1</clus>
<clus scale="   92.656">  7  8 -1 -1</clus>
<clus scale="  104.230">  2  5  1 -1</clus>
<clus scale="   34.666">  1  5  2 -1</clus>
</clustering>
</event>
<event>
 9    1  0.8429841E-005  0.2506287E+03  0.7546771E-02  0.1113568E+00
          1   -1    0    0  502    0 -0.00000000000E+00  0.00000000000E+00  0.83331275943E+03  0.83331275943E+03  0.00000000000E+00 0. -1.
         21   -1    0    0  501  502  0.00000000000E+00 -0.00000000000E+00 -0.49200192122E+03  0.49200192122E+03  0.00000000000E+00 0.  1.
         23    2    1    2    0    0  0.58638938651E+02 -0.22342044809E+03  0.75151818805E+03  0.79162325113E+03  0.92371873460E+02 0.  0.
        -24    2    1    2    0    0 -0.42982756596E+02  0.26395645353E+03 -0.27605188859E+03  0.39267380098E+03  0.80421029962E+02 0.  0.
         11    1    4    4    0    0 -0.56959190829E+02  0.14669235778E+03 -0.12518349359E+03  0.20108183488E+03  0.00000000000E+00 0. -1.
        -12    1    4    4    0    0  0.13976434233E+02  0.11726409575E+03 -0.15086839500E+03  0.19159196611E+03  0.00000000000E+00 0.  1.
        -11    1    3    3    0    0 -0.97933652065E+01 -0.80235228279E+02  0.16099032388E+03  0.18014296057E+03  0.00000000000E+00 0.  1.
         11    1    3    3    0    0  0.68432303857E+02 -0.14318521981E+03  0.59052786417E+03  0.61148029056E+03  0.00000000000E+00 0. -1.
          2    1    1    2  501    0 -0.15656182055E+02 -0.40536005442E+02 -0.13415546126E+03  0.14101762854E+03  0.00000000000E+00 0. -1.
<scales pt_clust_5="13000.00000" pt_clust_6="13000.00000" pt_clust_7="13000.00000" pt_clust_8="13000.00000" pt_clust_9="43.45439"></scales>
<clustering>
<clus scale="   43.454">  2  9  1 -1</clus>
<clus scale="   80.421">  5  6 -1 -1</clus>
<clus scale="   92.372">  7  8 -1 -1</clus>
<clus scale="  246.475">  2  5  1 -1</clus>
<clus scale="   43.454">  2  5  1 -1</clus>
</clustering>
</event>
<event>
 9    1  0.8429841E-005  0.1078155E+03  0.7546771E-02  0.1270187E+00
         -2   -1    0    0    0  501 -0.00000000000E+00  0.00000000000E+00  0.22162120261E+03  0.22162120261E+03  0.00000000000E+00 0.  1.
         21   -1    0    0  501  502  0.00000000000E+00 -0.00000000000E+00 -0.29456625429E+03  0.29456625429E+03  0.00000000000E+00 0.  1.
         23    2    1    2    0    0 -0.59550789097E+02  0.35597636948E+01  0.17071450793E+03  0.20310240892E+03  0.92456351289E+02 0.  0.
        -24    2    1    2    0    0  0.37633296552E+02  0.33750311305E+02 -0.35708559127E+02  0.10067968839E+03  0.79410011567E+02 0.  0.
         11    1    4    4    0    0 -0.21566367256E+02  0.11980142725E+02  0.55780158253E+01  0.25293206140E+02  0.00000000000E+00 0. -1.
        -12    1    4    4    0    0  0.59199663807E+02  0.21770168580E+02 -0.41286574952E+02  0.75386482251E+02  0.00000000000E+00 0.  1.
        -13    1    3    3    0    0 -0.19380617281E+02 -0.41748686952E+02  0.99464131795E+02  0.10959778603E+03  0.00000000000E+00 0. -1.
         13    1    3    3    0    0 -0.40170171816E+02  0.45308450647E+02  0.71250376133E+02  0.93504622896E+02  0.00000000000E+00 0.  1.
         -1    1    1    2    0  502  0.21917492545E+02 -0.37310075000E+02 -0.20795100049E+03  0.21240535958E+03  0.00000000000E+00 0.  1.
<scales pt_clust_5="13000.00000" pt_clust_6="13000.00000" pt_clust_7="13000.00000" pt_clust_8="13000.00000" pt_clust_9="43.27145"></scales>
<clustering>
<clus scale="   43.271">  2  9  1 -1</clus>
<clus scale="   79.410">  5  6 -1 -1</clus>
<clus scale="   92.456">  7  8 -1 -1</clus>
<clus scale="   96.861">  2  5  1 -1</clus>
<clus scale="   43.271">  2  5  1 -1</clus>
</clustering>
</event>
<event>
 9    1  0.8429841E-005  0.1789398E+03  0.7546771E-02  0.1168857E+00
          1   -1    0    0  502    0 -0.00000000000E+00  0.00000000000E+00  0.44451037761E+03  0.44451037761E+03  0.00000000000E+00 0. -1.
         21   -1    0    0  501  502  0.00000000000E+00 -0.00000000000E+00 -0.88587956628E+02  0.88587956628E+02  0.00000000000E+00 0. -1.
        -24    2    1    2    0    0  0.13550474744E+03  0.58253377984E+02  0.22963593975E+03  0.28795222131E+03  0.91808628704E+02 0.  0.
         23    2    1    2    0    0 -0.14654742227E+03 -0.76213802459E+02  0.11081027160E+03  0.21899213467E+03  0.91618492105E+02 0.  0.
         13    1    3    3    0    0  0.14900670707E+03  0.58836281562E+02  0.21286999596E+03  0.26641760820E+03  0.00000000000E+00 0. -1.
        -14    1    3    3    0    0 -0.13501959629E+02 -0.58290357749E+00  0.16765943790E+02  0.21534613104E+02  0.00000000000E+00 0.  1.
        -11    1    4    4    0    0 -0.84507680168E+02 -0.32398079438E+02  0.11076649299E+03  0.14303985294E+03  0.00000000000E+00 0.  1.
         11    1    4    4    0    0 -0.62039742098E+02 -0.43815723021E+02  0.43778611057E-01  0.75952281730E+02  0.00000000000E+00 0. -1.
          2    1    1    2  501    0  0.11042674827E+02  0.17960424474E+02  0.15476209630E+02  0.26153978266E+02  0.00000000000E+00 0. -1.
<scales pt_clust_5="13000.00000" pt_clust_6="13000.00000" pt_clust_7="13000.00000" pt_clust_8="13000.00000" pt_clust_9="21.08358"></scales>
<clustering>
<clus scale="   21.084">  2  9  1 -1</clus>
<clus scale="   91.618">  7  8 -1 -1</clus>
<clus scale="   91.809">  5  6 -1 -1</clus>
<clus scale="  178.842">  2  7  1 -1</clus>
<clus scale="   21.084">  2  5  1 -1</clus>
</clustering>
</event>
<event>
 9    1  0.8429841E-005  0.1721949E+03  0.7546771E-02  0.1203107E+00
          1   -1    0    0  502    0 -0.00000000000E+00  0.00000000000E+00  0.10213555436E+04  0.10213555436E+04  0.00000000000E+00 0. -1.
         21   -1    0    0  501  502  0.00000000000E+00 -0.00000000000E+00 -0.43876563769E+02  0.43876563769E+02  0.00000000000E+00 0. -1.
         23    2    1    2    0    0 -0.22024008413E+02 -0.17395968550E+02  0.31378141702E+03  0.32745995438E+03  0.89350810807E+02 0.  0.
        -24    2    1    2    0    0 -0.10862917795E+03  0.95323980228E+02  0.32756665384E+03  0.36881820183E+03  0.88543739375E+02 0.  0.
         13    1    4    4    0    0 -0.10563448654E+03  0.38355417896E+02  0.21256966629E+03  0.24044884249E+03  0.00000000000E+00 0. -1.
        -14    1    4    4    0    0 -0.29946914089E+01  0.56968562332E+02  0.11499698755E+03  0.12836935934E+03  0.00000000000E+00 0.  1.
        -11    1    3    3    0    0  0.34597936467E+02 -0.93822718331E+01  0.10304999839E+03  0.10910704102E+03  0.00000000000E+00 0.  1.
         11    1    3    3    0    0 -0.56621944880E+02 -0.80136967173E+01  0.21073141863E+03  0.21835291336E+03  0.00000000000E+00 0. -1.
          2    1    1    2  501    0  0.13065318636E+03 -0.77928011678E+02  0.33613090901E+03  0.36895395119E+03  0.00000000000E+00 0. -1.
<scales pt_clust_5="13000.00000" pt_clust_6="13000.00000" pt_clust_7="13000.00000" pt_clust_8="13000.00000" pt_clust_9="147.68582"></scales>
<clustering>
<clus scale="   88.544">  5  6 -1 -1</clus>
<clus scale="   89.351">  7  8 -1 -1</clus>
<clus scale="   93.655">  1  7  2 -1</clus>
<clus scale="  147.686">  2  9  1 -1</clus>
<clus scale="  147.686">  2  5  1 -1</clus>
</clustering>
</event>
<event>
 9    1  0.8429841E-005  0.1189580E+03  0.7546771E-02  0.1250876E+00
          3   -1    0    0  502    0 -0.00000000000E+00  0.00000000000E+00  0.10291994112E+04  0.10291994112E+04  0.00000000000E+00 0. -1.
         21   -1    0    0  501  502  0.00000000000E+00 -0.00000000000E+00 -0.28296041918E+02  0.28296041918E+02  0.00000000000E+00 0. -1.
        -24    2    1    2    0    0 -0.38014803739E+02  0.72461747237E+02  0.58041406495E+03  0.59078905768E+03  0.73860637434E+02 0.  0.
         23    2    1    2    0    0  0.54330650922E+02 -0.23888539057E+02  0.12279948459E+03  0.16463886623E+03  0.92215838834E+02 0.  0.
         13    1    3    3    0    0 -0.59495667869E+02  0.41509232212E+02  0.38607956404E+03  0.39283607347E+03  0.00000000000E+00 0. -1.
        -14    1    3    3    0    0  0.21480864130E+02  0.30952515025E+02  0.19433450092E+03  0.19795298421E+03  0.00000000000E+00 0.  1.
        -13    1    4    4    0    0  0.54527774884E+02  0.24729547975E+02  0.55692879069E+02  0.81771178027E+02  0.00000000000E+00 0. -1.
         13    1    4    4    0    0 -0.19712396272E+00 -0.48618087032E+02  0.67106605517E+02  0.82867688206E+02  0.00000000000E+00 0.  1.
          4    1    1    2  501    0 -0.16315847182E+02 -0.48573208180E+02  0.29768981977E+03  0.30206752923E+03  0.00000000000E+00 0. -1.
<scales pt_clust_5="13000.00000" pt_clust_6="13000.00000" pt_clust_7="13000.00000" pt_clust_8="13000.00000" pt_clust_9="51.24028"></scales>
<clustering>
<clus scale="   51.240">  2  9  1 -1</clus>
<clus scale="   73.861">  5  6 -1 -1</clus>
<clus scale="   92.216">  7  8 -1 -1</clus>
<clus scale="  105.369">  1  5  2 -1</clus>
<clus scale="   51.240">  2  5  1 -1</clus>
</clustering>
</event>
<event>
 9    1  0.8429841E-005  0.1125106E+03  0.7546771E-02  0.1259646E+00
         21   -1    0    0  501  502  0.00000000000E+00  0.00000000000E+00  0.30599945020E+03  0.30599945020E+03  0.00000000000E+00 0.  1.
          1   -1    0    0  502    0 -0.00000000000E+00 -0.00000000000E+00 -0.24378982880E+03  0.24378982880E+03  0.00000000000E+00 0. -1.
         23    2    1    2    0    0 -0.65742612666E+02 -0.78664794391E+01 -0.20215267640E+03  0.23074545843E+03  0.89407994006E+02 0.  0.
        -24    2    1    2    0    0  0.10440344579E+03  0.14575393524E+02  0.23686507762E+03  0.27112966125E+03  0.79332884901E+02 0.  0.
         11    1    4    4    0    0  0.68018506802E+02 -0.17029412155E+02  0.76926328890E+02  0.10408735861E+03  0.00000000000E+00 0. -1.
        -12    1    4    4    0    0  0.36384938985E+02  0.31604805679E+02  0.15993874873E+03  0.16704230264E+03  0.00000000000E+00 0.  1.
        -11    1    3    3    0    0 -0.88115772937E+02 -0.73190913049E+01 -0.16922824124E+03  0.19093495272E+03  0.00000000000E+00 0. -1.
         11    1    3    3    0    0  0.22373160271E+02 -0.54738813422E+00 -0.32924435166E+02  0.39810505715E+02  0.00000000000E+00 0.  1.
          2    1    1    2  501    0 -0.38660833121E+02 -0.67089140846E+01  0.27497220181E+02  0.47914159322E+02  0.00000000000E+00 0. -1.
<scales pt_clust_5="13000.00000" pt_clust_6="13000.00000" pt_clust_7="13000.00000" pt_clust_8="13000.00000" pt_clust_9="39.23862"></scales>
<clustering>
<clus scale="   39.239">  1  9  2 -1</clus>
<clus scale="   79.333">  5  6 -1 -1</clus>
<clus scale="   89.408">  7  8 -1 -1</clus>
<clus scale="  104.683">  1  5  2 -1</clus>
<clus scale="   39.239">  1  5  2 -1</clus>
</clustering>
</event>
<event>
 9    1  0.8429841E-005  0.1881816E+03  0.7546771E-02  0.1172705E+00
          1   -1    0    0  502    0 -0.00000000000E+00  0.00000000000E+00  0.72365921459E+03  0.72365921459E+03  0.00000000000E+00 0. -1.
         21   -1    0    0  501  502  0.00000000000E+00 -0.00000000000E+00 -0.10484428308E+03  0.10484428308E+03  0.00000000000E+00 0. -1.
        -24    2    1    2    0    0  0.11324959684E+03 -0.15848505251E+02  0.23459811175E+03  0.27362073251E+03  0.82191148684E+02 0.  0.
         23    2    1    2    0    0 -0.94711151471E+02  0.16044382628E+03  0.88191681625E+02  0.22490948861E+03  0.89967114867E+02 0.  0.
         13    1    3    3    0    0  0.60405806062E+02 -0.27814988289E+02  0.19633039961E+03  0.20728762817E+03  0.00000000000E+00 0. -1.
        -14    1    3    3    0    0  0.52843790774E+02  0.11966483038E+02  0.38267712136E+02  0.66333104344E+02  0.00000000000E+00 0.  1.
        -13    1    4    4    0    0 -0.60668854078E+02  0.15981375448E+03  0.61580202817E+02  0.18169553477E+03  0.00000000000E+00 0. -1.
         13    1    4    4    0    0 -0.34042297393E+02  0.63007179366E+00  0.26611478808E+02  0.43213953842E+02  0.00000000000E+00 0.  1.
          2    1    1    2  501    0 -0.18538445366E+02 -0.14459532103E+03  0.29602513814E+03  0.32997327654E+03  0.00000000000E+00 0. -1.
<scales pt_clust_5="13000.00000" pt_clust_6="13000.00000" pt_clust_7="13000.00000" pt_clust_8="13000.00000" pt_clust_9="165.28236"></scales>
<clustering>
<clus scale="   82.191">  5  6 -1 -1</clus>
<clus scale="   89.967">  7  8 -1 -1</clus>
<clus scale="  140.826">  1  5  2 -1</clus>
<clus scale="  165.282">  2  9  1 -1</clus>
<clus scale="  165.282">  2  5  1 -1</clus>
</clustering>
</event>
<event>
 9    1  0.8429841E-005  0.9437800E+02  0.7546771E-02  0.1298585E+00
          3   -1    0    0  502    0 -0.00000000000E+00  0.00000000000E+00  0.47806801772E+02  0.47806801772E+02  0.00000000000E+00 0. -1.
         21   -1    0    0  501  502  0.00000000000E+00 -0.00000000000E+00 -0.43519567546E+03  0.43519567546E+03  0.00000000000E+00 0.  1.
         23    2    1    2    0    0 -0.19307965148E+02 -0.16834793452E+02 -0.78934853843E+02  0.12321522964E+03  0.91077296157E+02 0.  0.
        -24    2    1    2    0    0  0.39427441537E+02 -0.35166216404E+02 -0.28205256906E+03  0.29809498746E+03  0.80720405821E+02 0.  0.
         11    1    4    4    0    0  0.43391034155E+02  0.26126590146E+01 -0.68062972556E+02  0.80759990499E+02  0.00000000000E+00 0. -1.
        -12    1    4    4    0    0 -0.39635926186E+01 -0.37778875418E+02 -0.21398959650E+03  0.21733499696E+03  0.00000000000E+00 0.  1.
        -13    1    3    3    0    0 -0.41396358594E+02 -0.31960129063E+02 -0.15790071137E+02  0.54629979875E+02  0.00000000000E+00 0.  1.
         13    1    3    3    0    0  0.22088393446E+02  0.15125335611E+02 -0.63144782706E+02  0.68585249765E+02  0.00000000000E+00 0. -1.
          4    1    1    2  501    0 -0.20119476388E+02  0.52001009856E+02 -0.26401450787E+02  0.61692260129E+02  0.00000000000E+00 0. -1.
<scales pt_clust_5="13000.00000" pt_clust_6="13000.00000" pt_clust_7="13000.00000" pt_clust_8="13000.00000" pt_clust_9="55.75752"></scales>
<clustering>
<clus scale="   55.758">  2  9  1 -1</clus>
<clus scale="   80.720">  5  6 -1 -1</clus>
<clus scale="   84.427">  2  5  1 -1</clus>
<clus scale="   91.077">  7  8 -1 -1</clus>
<clus scale="   55.758">  2  5  1 -1</clus>
</clustering>
</event>
<event>
 9    1  0.8429841E-005  0.1154562E+03  0.7546771E-02  0.1255048E+00
         21   -1    0    0  501  502  0.00000000000E+00  0.00000000000E+00  0.33158868688E+02  0.33158868688E+02  0.00000000000E+00 0. -1.
          1   -1    0    0  502    0 -0.00000000000E+00 -0.00000000000E+00 -0.66573122496E+03  0.66573122496E+03  0.00000000000E+00 0. -1.
         23    2    1    2    0    0  0.79126906059E+02 -0.11624688360E+02 -0.35483697688E+03  0.37503785029E+03  0.91366888653E+02 0.  0.
        -24    2    1    2    0    0 -0.51486235465E+02 -0.64971376952E+01 -0.81706239283E+02  0.12505629013E+03  0.79184095137E+02 0.  0.
         13    1    4    4    0    0 -0.60079837985E+01 -0.21204618123E+02  0.79709897275E+01  0.23436475339E+02  0.00000000000E+00 0. -1.
        -14    1    4    4    0    0 -0.45478251667E+02  0.14707480428E+02 -0.89677229010E+02  0.10161981479E+03  0.00000000000E+00 0.  1.
        -13    1    3    3    0    0  0.18113195964E+02 -0.13867619115E+02 -0.10120870059E+02  0.24956577063E+02  0.00000000000E+00 0.  1.
         13    1    3    3    0    0  0.61013710095E+02  0.22429307551E+01 -0.34471610682E+03  0.35008127322E+03  0.00000000000E+00 0. -1.
          2    1    1    2  501    0 -0.27640670594E+02  0.18121826055E+02 -0.19602914011E+03  0.19879595323E+03  0.00000000000E+00 0. -1.
<scales pt_clust_5="13000.00000" pt_clust_6="13000.00000" pt_clust_7="13000.00000" pt_clust_8="13000.00000" pt_clust_9="33.05160"></scales>
<clustering>
<clus scale="   33.052">  1  9  2 -1</clus>
<clus scale="   79.184">  5  6 -1 -1</clus>
<clus scale="   91.367">  7  8 -1 -1</clus>
<clus scale="  106.077">  1  5  2 -1</clus>
<clus scale="   33.052">  1  5  2 -1</clus>
</clustering>
</event>
<event>
 9    1  0.8429841E-005  0.2928983E+03  0.7546771E-02  0.1089083E+00
          1   -1    0    0  502    0 -0.00000000000E+00  0.00000000000E+00  0.57635229333E+03  0.57635229333E+03  0.00000000000E+00 0. -1.
         21   -1    0    0  501  502  0.00000000000E+00 -0.00000000000E+00 -0.23654913185E+03  0.23654913185E+03  0.00000000000E+00 0. -1.
         23    2    1    2    0    0 -0.14899235159E+03  0.25672882846E+03  0.26058899826E+03  0.40443732375E+03  0.86916687889E+02 0.  0.
        -24    2    1    2    0    0  0.13094555110E+03 -0.20353524686E+03 -0.56796968175E+02  0.26131019562E+03  0.80521976358E+02 0.  0.
         11    1    4    4    0    0  0.13517478541E+03 -0.15283325801E+03 -0.49023868713E+02  0.20984176674E+03  0.00000000000E+00 0. -1.
        -12    1    4    4    0    0 -0.42292343173E+01 -0.50701988853E+02 -0.77730994621E+01  0.51468428884E+02  0.00000000000E+00 0.  1.
        -11    1    3    3    0    0 -0.49222255090E+02  0.85228415988E+02  0.36095566783E+02  0.10483130844E+03  0.00000000000E+00 0.  1.
         11    1    3    3    0    0 -0.99770096498E+02  0.17150041248E+03  0.22449343148E+03  0.29960601531E+03  0.00000000000E+00 0. -1.
          2    1    1    2  501    0  0.18046800492E+02 -0.53193581605E+02  0.13601113139E+03  0.14715390580E+03  0.00000000000E+00 0. -1.
<scales pt_clust_5="13000.00000" pt_clust_6="13000.00000" pt_clust_7="13000.00000" pt_clust_8="13000.00000" pt_clust_9="56.17159"></scales>
<clustering>
<clus scale="   56.172">  2  9  1 -1</clus>
<clus scale="   80.522">  5  6 -1 -1</clus>
<clus scale="   86.917">  7  8 -1 -1</clus>
<clus scale="  291.065">  2  5  1 -1</clus>
<clus scale="   56.172">  2  5  1 -1</clus>
</clustering>
</event>
<event>
 9    1  0.8429841E-005  0.8263265E+02  0.7546771E-02  0.1325634E+00
          1   -1    0    0  502    0 -0.00000000000E+00  0.00000000000E+00  0.30873292737E+03  0.30873292737E+03  0.00000000000E+00 0. -1.
         21   -1    0    0  501  502  0.00000000000E+00 -0.00000000000E+00 -0.70464528142E+02  0.70464528142E+02  0.00000000000E+00 0.  1.
         23    2    1    2    0    0 -0.26212658664E+02 -0.12161848952E+02  0.25987724204E+03  0.27129442459E+03  0.72315073370E+02 0.  0.
        -24    2    1    2    0    0  0.14779426521E+02 -0.55823119138E+01 -0.30793682972E+01  0.79815391858E+02  0.78175575558E+02 0.  0.
         13    1    4    4    0    0  0.28182844590E+02  0.11048394439E+01  0.31409402524E+02  0.42214262594E+02  0.00000000000E+00 0. -1.
        -14    1    4    4    0    0 -0.13403418069E+02 -0.66871513577E+01 -0.34488770821E+02  0.37601129265E+02  0.00000000000E+00 0.  1.
        -13    1    3    3    0    0 -0.48763892811E+02  0.23852918725E+01  0.19640498377E+03  0.20238212498E+03  0.00000000000E+00 0. -1.
         13    1    3    3    0    0  0.22551234147E+02 -0.14547140825E+02  0.63472258268E+02  0.68912299609E+02  0.00000000000E+00 0.  1.
          2    1    1    2  501    0  0.11433232142E+02  0.17744160866E+02 -0.18529474521E+02  0.28087639062E+02  0.00000000000E+00 0. -1.
<scales pt_clust_5="13000.00000" pt_clust_6="13000.00000" pt_clust_7="13000.00000" pt_clust_8="13000.00000" pt_clust_9="21.10862"></scales>
<clustering>
<clus scale="   21.109">  2  9  1 -1</clus>
<clus scale="   72.315">  7  8 -1 -1</clus>
<clus scale="   77.112">  1  7  2 -1</clus>
<clus scale="   78.176">  5  6 -1 -1</clus>
<clus scale="   21.109">  2  5  1 -1</clus>
</clustering>
</event>
<event>
 9    1  0.8429841E-005  0.1133426E+03  0.7546771E-02  0.1257453E+00
         21   -1    0    0  501  502  0.00000000000E+00  0.00000000000E+00  0.49151212650E+02  0.49151212650E+02  0.00000000000E+00 0. -1.
          1   -1    0    0  502    0 -0.00000000000E+00 -0.00000000000E+00 -0.74576146833E+03  0.74576146833E+03  0.00000000000E+00 0. -1.
        -24    2    1    2    0    0  0.59787843056E+02 -0.26515376992E+02 -0.43390758913E+03  0.44628805058E+03  0.81360781633E+02 0.  0.
         23    2    1    2    0    0 -0.60487971477E+02  0.86872810421E+02 -0.89188517982E+02  0.16491107700E+03  0.89640346356E+02 0.  0.
         11    1    3    3    0    0  0.72277569704E+02 -0.27896933170E+02 -0.24488192483E+03  0.25684517334E+03  0.00000000000E+00 0. -1.
        -12    1    3    3    0    0 -0.12489726647E+02  0.13815561781E+01 -0.18902566430E+03  0.18944287723E+03  0.00000000000E+00 0.  1.
        -11    1    4    4    0    0 -0.36947292873E+02  0.69418361853E+02 -0.10533522111E+03  0.13145158888E+03  0.00000000000E+00 0. -1.
         11    1    4    4    0    0 -0.23540678603E+02  0.17454448568E+02  0.16146703124E+02  0.33459488126E+02  0.00000000000E+00 0.  1.
          2    1    1    2  501    0  0.70012842080E+00 -0.60357433429E+02 -0.17351414857E+03  0.18371355341E+03  0.00000000000E+00 0. -1.
<scales pt_clust_5="13000.00000" pt_clust_6="13000.00000" pt_clust_7="13000.00000" pt_clust_8="13000.00000" pt_clust_9="60.36152"></scales>
<clustering>
<clus scale="   60.362">  1  9  2 -1</clus>
<clus scale="   81.361">  5  6 -1 -1</clus>
<clus scale="   89.640">  7  8 -1 -1</clus>
<clus scale="  106.915">  2  5  1 -1</clus>
<clus scale="   60.362">  1  5  2 -1</clus>
</clustering>
</event>
<event>
 9    1  0.8429841E-005  0.3081021E+03  0.7546771E-02  0.1081776E+00
          1   -1    0    0  502    0 -0.00000000000E+00  0.00000000000E+00  0.51210622336E+03  0.51210622336E+03  0.00000000000E+00 0. -1.
         21   -1    0    0  501  502  0.00000000000E+00 -0.00000000000E+00 -0.24326160122E+03  0.24326160122E+03  0.00000000000E+00 0. -1.
        -24    2    1    2    0    0 -0.94481636391E+02 -0.28377467810E+03  0.22878609315E+03  0.38370534537E+03  0.73701208250E+02 0.  0.
         23    2    1    2    0    0  0.54395646532E+02  0.28239305887E+03 -0.17240669264E+02  0.30171969134E+03  0.89625919268E+02 0.  0.
         13    1    3    3    0    0 -0.33733799375E+02 -0.17249103644E+03  0.96643342428E+02  0.20057682445E+03  0.00000000000E+00 0. -1.
        -14    1    3    3    0    0 -0.60747837016E+02 -0.11128364167E+03  0.13214275072E+03  0.18312852092E+03  0.00000000000E+00 0.  1.
        -11    1    4    4    0    0  0.45872118276E+02  0.56819246038E+02 -0.20893468033E+02  0.75955348475E+02  0.00000000000E+00 0.  1.
         11    1    4    4    0    0  0.85235282559E+01  0.22557381283E+03  0.36527987690E+01  0.22576434286E+03  0.00000000000E+00 0. -1.
          2    1    1    2  501    0  0.40085989858E+02  0.13816192323E+01  0.57299198251E+02  0.69942787869E+02  0.00000000000E+00 0. -1.
<scales pt_clust_5="13000.00000" pt_clust_6="13000.00000" pt_clust_7="13000.00000" pt_clust_8="13000.00000" pt_clust_9="40.10981"></scales>
<clustering>
<clus scale="   40.110">  2  9  1 -1</clus>
<clus scale="   73.701">  5  6 -1 -1</clus>
<clus scale="   89.626">  7  8 -1 -1</clus>
<clus scale="  303.852">  1  5  2 -1</clus>
<clus scale="   40.110">  2  5  1 -1</clus>
</clustering>
</event>
<event>
 9    1  0.8429841E-005  0.1921244E+03  0.7546771E-02  0.1192690E+00
         21   -1    0    0  501  502  0.00000000000E+00  0.00000000000E+00  0.44890279431E+03  0.44890279431E+03  0.00000000000E+00 0. -1.
          1   -1    0    0  502    0 -0.00000000000E+00 -0.00000000000E+00 -0.12196977910E+03  0.12196977910E+03  0.00000000000E+00 0. -1.
        -24    2    1    2    0    0  0.31208758703E+02  0.22263795064E+02  0.13227420532E+02  0.85645174761E+02  0.75435191493E+02 0.  0.
         23    2    1    2    0    0 -0.37384821943E+02 -0.18232154485E+03  0.14624708694E+03  0.25349699745E+03  0.90739994773E+02 0.  0.
         11    1    3    3    0    0  0.39077576488E+02 -0.17854499089E+02  0.10067417171E+01  0.42975035204E+02  0.00000000000E+00 0. -1.
        -12    1    3    3    0    0 -0.78688177854E+01  0.40118294154E+02  0.12220678815E+02  0.42670139557E+02  0.00000000000E+00 0.  1.
        -11    1    4    4    0    0 -0.15100559199E+02 -0.10863846539E+03  0.13770063985E+03  0.17604490696E+03  0.00000000000E+00 0. -1.
         11    1    4    4    0    0 -0.22284262744E+02 -0.73683079455E+02  0.85464470903E+01  0.77452090494E+02  0.00000000000E+00 0.  1.
          2    1    1    2  501    0  0.61760632404E+01  0.16005774978E+03  0.16745850775E+03  0.23173040120E+03  0.00000000000E+00 0. -1.
<scales pt_clust_5="13000.00000" pt_clust_6="13000.00000" pt_clust_7="13000.00000" pt_clust_8="13000.00000" pt_clust_9="169.34588"></scales>
<clustering>
<clus scale="   75.435">  5  6 -1 -1</clus>
<clus scale="   84.618">  2  5  1 -1</clus>
<clus scale="   90.740">  7  8 -1 -1</clus>
<clus scale="  169.346">  1  9  2 -1</clus>
<clus scale="  169.346">  1  5  2 -1</clus>
</clustering>
</event>
<event>
 9    1  0.8429841E-005  0.1269755E+03  0.7546771E-02  0.1236952E+00
         -2   -1    0    0    0  501 -0.00000000000E+00  0.00000000000E+00  0.88692168533E+02  0.88692168533E+02  0.00000000000E+00 0.  1.
         21   -1    0    0  501  502  0.00000000000E+00 -0.00000000000E+00 -0.26800728796E+03  0.26800728796E+03  0.00000000000E+00 0. -1.
        -24    2    1    2    0    0  0.96177405569E+02 -0.76202952065E+01 -0.21210590542E+02  0.12363835515E+03  0.74353153754E+02 0.  0.
         23    2    1    2    0    0 -0.62573374293E+02  0.44736390411E+02 -0.12350497575E+03  0.17220089662E+03  0.92102649066E+02 0.  0.
         13    1    3    3    0    0  0.68249165876E+02 -0.23033047436E+02  0.16852421945E+02  0.73976172126E+02  0.00000000000E+00 0. -1.
        -14    1    3    3    0    0  0.27928239692E+02  0.15412752229E+02 -0.38063012486E+02  0.49662183028E+02  0.00000000000E+00 0.  1.
        -13    1    4    4    0    0 -0.54526021390E+02  0.72671707044E+02 -0.96123677817E+02  0.13226498195E+03  0.00000000000E+00 0. -1.
         13    1    4    4    0    0 -0.80473529031E+01 -0.27935316633E+02 -0.27381297930E+02  0.39935914669E+02  0.00000000000E+00 0.  1.
         -1    1    1    2    0  502 -0.33604031275E+02 -0.37116095205E+02 -0.34599553143E+02  0.60860204723E+02  0.00000000000E+00 0.  1.
<scales pt_clust_5="13000.00000" pt_clust_6="13000.00000" pt_clust_7="13000.00000" pt_clust_8="13000.00000" pt_clust_9="50.06831"></scales>
<clustering>
<clus scale="   50.068">  2  9  1 -1</clus>
<clus scale="   74.353">  5  6 -1 -1</clus>
<clus scale="   92.103">  7  8 -1 -1</clus>
<clus scale="  114.753">  1  5  2 -1</clus>
<clus scale="   50.068">  2  5  1 -1</clus>
</clustering>
</event>
<event>
 9    1  0.8429841E-005  0.1289376E+03  0.7546771E-02  0.1237055E+00
         21   -1    0    0  501  502  0.00000000000E+00  0.00000000000E+00  0.60082921736E+02  0.60082921736E+02  0.00000000000E+00 0.  1.
         -2   -1    0    0    0  501 -0.00000000000E+00 -0.00000000000E+00 -0.52860448705E+03  0.52860448705E+03  0.00000000000E+00 0.  1.
        -24    2    1    2    0    0  0.60063541268E+02  0.53769808952E+02 -0.33628359683E+03  0.35527858423E+03  0.81470200516E+02 0.  0.
         23    2    1    2    0    0 -0.51973739015E+02 -0.25303497113E+02 -0.15459180904E+03  0.19632149522E+03  0.10631070290E+03 0.  0.
         11    1    3    3    0    0  0.76675620785E+01 -0.21291785550E+02 -0.54972028398E+02  0.59447922977E+02  0.00000000000E+00 0. -1.
        -12    1    3    3    0    0  0.52395979190E+02  0.75061594502E+02 -0.28131156843E+03  0.29583066125E+03  0.00000000000E+00 0.  1.
        -11    1    4    4    0    0 -0.47566024002E+02 -0.62391478471E+02 -0.75634316435E+02  0.10897602052E+03  0.00000000000E+00 0. -1.
         11    1    4    4    0    0 -0.44077150132E+01  0.37087981358E+02 -0.78957492602E+02  0.87345474701E+02  0.00000000000E+00 0.  1.
         -1    1    1    2    0  502 -0.80898022532E+01 -0.28466311839E+02  0.22353840549E+02  0.37087329339E+02  0.00000000000E+00 0.  1.
<scales pt_clust_5="13000.00000" pt_clust_6="13000.00000" pt_clust_7="13000.00000" pt_clust_8="13000.00000" pt_clust_9="29.59351"></scales>
<clustering>
<clus scale="   29.594">  1  9  2 -1</clus>
<clus scale="   81.470">  5  6 -1 -1</clus>
<clus scale="  106.311">  7  8 -1 -1</clus>
<clus scale="  109.363">  2  5  1 -1</clus>
<clus scale="   29.594">  1  5  2 -1</clus>
</clustering>
</event>
<event>
 9    1  0.8429841E-005  0.1886929E+03  0.7546771E-02  0.1160306E+00
         21   -1    0    0  501  502  0.00000000000E+00  0.00000000000E+00  0.16646395193E+03  0.16646395193E+03  0.00000000000E+00 0. -1.
          1   -1    0    0  502    0 -0.00000000000E+00 -0.00000000000E+00 -0.26321666002E+03  0.26321666002E+03  0.00000000000E+00 0. -1.
        -24    2    1    2    0    0 -0.33544148749E+02  0.16553467541E+03 -0.11396123580E+03  0.22067544506E+03  0.84755826408E+02 0.  0.
         23    2    1    2    0    0  0.14382953399E+02 -0.15824354178E+03  0.29025810291E+02  0.18534168861E+03  0.90890901679E+02 0.  0.
         13    1    3    3    0    0 -0.30246565933E+02  0.16785484327E+03 -0.12332953763E+03  0.21047631223E+03  0.00000000000E+00 0. -1.
        -14    1    3    3    0    0 -0.32975828151E+01 -0.23201678633E+01  0.93683018259E+01  0.10199132828E+02  0.00000000000E+00 0.  1.
        -11    1    4    4    0    0  0.23476063364E+02 -0.24116582703E+01  0.16392737715E+02  0.28734360902E+02  0.00000000000E+00 0.  1.
         11    1    4    4    0    0 -0.90931099656E+01 -0.15583188351E+03  0.12633072576E+02  0.15660732770E+03  0.00000000000E+00 0. -1.
          2    1    1    2  501    0  0.19161195350E+02 -0.72911336248E+01 -0.11817282586E+02  0.23663478284E+02  0.00000000000E+00 0. -1.
<scales pt_clust_5="13000.00000" pt_clust_6="13000.00000" pt_clust_7="13000.00000" pt_clust_8="13000.00000" pt_clust_9="20.50152"></scales>
<clustering>
<clus scale="   20.502">  1  9  2 -1</clus>
<clus scale="   84.756">  5  6 -1 -1</clus>
<clus scale="   90.891">  7  8 -1 -1</clus>
<clus scale="  185.816">  2  5  1 -1</clus>
<clus scale="   20.502">  1  5  2 -1</clus>
</clustering>
</event>
<event>
 9    1  0.8429841E-005  0.1297031E+03  0.7546771E-02  0.1250893E+00
         21   -1    0    0  501  502  0.00000000000E+00  0.00000000000E+00  0.14944059112E+03  0.14944059112E+03  0.00000000000E+00 0. -1.
          1   -1    0    0  502    0 -0.00000000000E+00 -0.00000000000E+00 -0.17621563042E+03  0.17621563042E+03  0.00000000000E+00 0. -1.
        -24    2    1    2    0    0  0.70776470146E+01  0.25411644671E+02  0.17964966169E+02  0.83225386130E+02  0.76862735541E+02 0.  0.
         23    2    1    2    0    0  0.88461361032E+02 -0.48564696262E+01  0.13889548320E+02  0.12846749983E+03  0.91989027970E+02 0.  0.
         11    1    3    3    0    0  0.17953356817E+02  0.50386397182E+02  0.16371877723E+02  0.55938809624E+02  0.00000000000E+00 0. -1.
        -12    1    3    3    0    0 -0.10875709803E+02 -0.24974752510E+02  0.15930884468E+01  0.27286576507E+02  0.00000000000E+00 0.  1.
        -11    1    4    4    0    0  0.36117857003E+02 -0.44033616509E+02  0.24915780796E+02  0.62163133046E+02  0.00000000000E+00 0. -1.
         11    1    4    4    0    0  0.52343504029E+02  0.39177146883E+02 -0.11026232476E+02  0.66304366783E+02  0.00000000000E+00 0.  1.
          2    1    1    2  501    0 -0.95539008047E+02 -0.20555175045E+02 -0.58629553792E+02  0.11396333558E+03  0.00000000000E+00 0. -1.
<scales pt_clust_5="13000.00000" pt_clust_6="13000.00000" pt_clust_7="13000.00000" pt_clust_8="13000.00000" pt_clust_9="91.43802"></scales>
<clustering>
<clus scale="   76.863">  5  6 -1 -1</clus>
<clus scale="   81.263">  2  5  1 -1</clus>
<clus scale="   91.438">  1  9  2 -1</clus>
<clus scale="   91.989">  7  8 -1 -1</clus>
<clus scale="   91.438">  1  5  2 -1</clus>
</clustering>
</event>
<event>
 9    1  0.8429841E-005  0.1819648E+03  0.7546771E-02  0.1167919E+00
         -2   -1    0    0    0  501 -0.00000000000E+00  0.00000000000E+00  0.35109008309E+03  0.35109008309E+03  0.00000000000E+00 0.  1.
         21   -1    0    0  501  502  0.00000000000E+00 -0.00000000000E+00 -0.14124505710E+03  0.14124505710E+03  0.00000000000E+00 0. -1.
        -24    2    1    2    0    0 -0.69829183051E+01 -0.13662279236E+03  0.12665831718E+03  0.20435697051E+03  0.83695242075E+02 0.  0.
         23    2    1    2    0    0 -0.24100812034E+02  0.18692565299E+03  0.45852762088E+02  0.21804677717E+03  0.99598555993E+02 0.  0.
         13    1    3    3    0    0 -0.37590047121E+02 -0.31484241929E+02  0.25443100992E+02  0.55241474641E+02  0.00000000000E+00 0. -1.
        -14    1    3    3    0    0  0.30607128816E+02 -0.10513855043E+03  0.10121521619E+03  0.14911549587E+03  0.00000000000E+00 0.  1.
        -11    1    4    4    0    0 -0.25725916400E+01  0.40579117469E+02 -0.31207675295E+02  0.51256238641E+02  0.00000000000E+00 0. -1.
         11    1    4    4    0    0 -0.21528220394E+02  0.14634653552E+03  0.77060437384E+02  0.16679053853E+03  0.00000000000E+00 0.  1.
         -1    1    1    2    0  502  0.31083730339E+02 -0.50302860632E+02  0.37333946728E+02  0.69931392506E+02  0.00000000000E+00 0.  1.
<scales pt_clust_5="13000.00000" pt_clust_6="13000.00000" pt_clust_7="13000.00000" pt_clust_8="13000.00000" pt_clust_9="59.13188"></scales>
<clustering>
<clus scale="   59.132">  2  9  1 -1</clus>
<clus scale="   83.695">  5  6 -1 -1</clus>
<clus scale="   99.599">  7  8 -1 -1</clus>
<clus scale="  173.771">  1  5  2 -1</clus>
<clus scale="   59.132">  2  5  1 -1</clus>
</clustering>
</event>
<event>
 9    1  0.1843898E-004  0.4003561E+03  0.7546771E-02  0.1111371E+00
         -2   -1    0    0    0  501 -0.00000000000E+00  0.00000000000E+00  0.34546907335E+03  0.34546907335E+03  0.00000000000E+00 0.  1.
         21   -1    0    0  501  502  0.00000000000E+00 -0.00000000000E+00 -0.52946966551E+03  0.52946966551E+03  0.00000000000E+00 0.  1.
        -24    2    1    2    0    0  0.11458990846E+02  0.30734994098E+01 -0.57608470363E+01  0.64192131348E+02  0.62822667076E+02 0.  0.
         23    2    1    2    0    0 -0.21441413258E+02 -0.39086299203E+03 -0.11036537390E+03  0.41693539689E+03  0.91765988722E+02 0.  0.
         11    1    3    3    0    0 -0.58677579401E+01  0.21620786313E+02 -0.24080362486E+02  0.32890011272E+02  0.00000000000E+00 0. -1.
        -12    1    3    3    0    0  0.17326748786E+02 -0.18547286903E+02  0.18319515449E+02  0.31302120076E+02  0.00000000000E+00 0.  1.
        -13    1    4    4    0    0 -0.31606382587E+02 -0.35312609424E+03 -0.71220139584E+02  0.36162039508E+03  0.00000000000E+00 0.  1.
         13    1    4    4    0    0  0.10164969328E+02 -0.37736897786E+02 -0.39145234315E+02  0.55315001813E+02  0.00000000000E+00 0. -1.
         -1    1    1    2    0  502  0.99824224128E+01  0.38778949262E+03 -0.67874371219E+02  0.39381121062E+03  0.00000000000E+00 0.  1.
<scales pt_clust_5="13000.00000" pt_clust_6="13000.00000" pt_clust_7="13000.00000" pt_clust_8="13000.00000" pt_clust_9="389.69748"></scales>
<clustering>
<clus scale="   62.823">  5  6 -1 -1</clus>
<clus scale="   63.933">  1  5  2 -1</clus>
<clus scale="   91.766">  7  8 -1 -1</clus>
<clus scale="  389.697">  2  9  1 -1</clus>
<clus scale="  389.697">  2  5  1 -1</clus>
</clustering>
</event>
<event>
 9    1  0.8429841E-005  0.9619770E+02  0.7546771E-02  0.1288821E+00
         21   -1    0    0  501  502  0.00000000000E+00  0.00000000000E+00  0.36773092435E+03  0.36773092435E+03  0.00000000000E+00 0.  1.
          1   -1    0    0  502    0 -0.00000000000E+00 -0.00000000000E+00 -0.13618168967E+03  0.13618168967E+03  0.00000000000E+00 0. -1.
        -24    2    1    2    0    0 -0.20498384044E+02 -0.28062593038E+02 -0.10274156310E+03  0.14123343352E+03  0.90461931663E+02 0.  0.
         23    2    1    2    0    0  0.20205424208E+02  0.47779883152E+01  0.14418660602E+03  0.17115408458E+03  0.89849067736E+02 0.  0.
         11    1    3    3    0    0 -0.49183140583E+02  0.78129480303E+01 -0.42444243417E+02  0.65433456838E+02  0.00000000000E+00 0. -1.
        -12    1    3    3    0    0  0.28684756538E+02 -0.35875541069E+02 -0.60297319682E+02  0.75799976685E+02  0.00000000000E+00 0.  1.
        -13    1    4    4    0    0 -0.24912281211E+02  0.27997988401E+02  0.86837057967E+02  0.94578981523E+02  0.00000000000E+00 0. -1.
         13    1    4    4    0    0  0.45117705419E+02 -0.23220000085E+02  0.57349548052E+02  0.76575103056E+02  0.00000000000E+00 0.  1.
          2    1    1    2  501    0  0.29295983597E+00  0.23284604723E+02  0.19010419176E+03  0.19152509592E+03  0.00000000000E+00 0. -1.
<scales pt_clust_5="13000.00000" pt_clust_6="13000.00000" pt_clust_7="13000.00000" pt_clust_8="13000.00000" pt_clust_9="23.28645"></scales>
<clustering>
<clus scale="   23.286">  1  9  2 -1</clus>
<clus scale="   89.849">  7  8 -1 -1</clus>
<clus scale="   90.462">  5  6 -1 -1</clus>
<clus scale="   95.622">  1  7  2 -1</clus>
<clus scale="   23.286">  1  5  2 -1</clus>
</clustering>
</event>
<event>
 9    1  0.8429841E-005  0.1268004E+03  0.7546771E-02  0.1253662E+00
         21   -1    0    0  501  502  0.00000000000E+00  0.00000000000E+00  0.59384532594E+02  0.59384532594E+02  0.00000000000E+00 0.  1.
         -2   -1    0    0    0  501 -0.00000000000E+00 -0.00000000000E+00 -0.54357075882E+03  0.54357075882E+03  0.00000000000E+00 0.  1.
         23    2    1    2    0    0 -0.88603536543E+01  0.17510537891E+01 -0.15164130142E+02  0.83695891505E+02  0.81813686848E+02 0.  0.
        -24    2    1    2    0    0  0.29152807200E+02 -0.93679356921E+02 -0.26217034475E+03  0.29199250039E+03  0.83069985767E+02 0.  0.
         13    1    4    4    0    0 -0.20781078355E+02  0.16805723728E+01 -0.39246170434E+02  0.44440290670E+02  0.00000000000E+00 0. -1.
        -14    1    4    4    0    0  0.49933885555E+02 -0.95359929294E+02 -0.22292417432E+03  0.24755220972E+03  0.00000000000E+00 0.  1.
        -13    1    3    3    0    0 -0.28057539752E+02  0.16192205705E+02  0.22202935844E+02  0.39273189616E+02  0.00000000000E+00 0.  1.
         13    1    3    3    0    0  0.19197186098E+02 -0.14441151916E+02 -0.37367065986E+02  0.44422701889E+02  0.00000000000E+00 0. -1.
         -1    1    1    2    0  502 -0.20292453545E+02  0.91928303132E+02 -0.20685175133E+03  0.22726689951E+03  0.00000000000E+00 0.  1.
<scales pt_clust_5="13000.00000" pt_clust_6="13000.00000" pt_clust_7="13000.00000" pt_clust_8="13000.00000" pt_clust_9="95.80043"></scales>
<clustering>
<clus scale="   81.814">  7  8 -1 -1</clus>
<clus scale="   82.311">  2  7  1 -1</clus>
<clus scale="   83.070">  5  6 -1 -1</clus>
<clus scale="   95.800">  1  9  2 -1</clus>
<clus scale="   95.800">  1  5  2 -1</clus>
</clustering>
</event>
<event>
 9    1  0.8429841E-005  0.1869415E+03  0.7546771E-02  0.1187522E+00
         21   -1    0    0  501  502  0.00000000000E+00  0.00000000000E+00  0.16935068905E+04  0.16935068905E+04  0.00000000000E+00 0.  1.
         -2   -1    0    0    0  501 -0.00000000000E+00 -0.00000000000E+00 -0.37756851628E+02  0.37756851628E+02  0.00000000000E+00 0.  1.
         23    2    1    2    0    0 -0.20836624675E+02  0.39636725744E+02  0.14454206304E+03  0.17746380544E+03  0.92713317799E+02 0.  0.
        -24    2    1    2    0    0 -0.15779975441E+03 -0.10565410119E+02  0.62802509327E+03  0.65226341421E+03  0.77586425041E+02 0.  0.
         11    1    4    4    0    0 -0.98124692820E+02 -0.33122946909E+02  0.48051475010E+03  0.49154858358E+03  0.00000000000E+00 0. -1.
        -12    1    4    4    0    0 -0.59675061585E+02  0.22557536790E+02  0.14751034317E+03  0.16071483063E+03  0.00000000000E+00 0.  1.
        -13    1    3    3    0    0 -0.73365521443E+00 -0.26408588736E+02  0.74810825872E+02  0.79338587564E+02  0.00000000000E+00 0. -1.
         13    1    3    3    0    0 -0.20102969460E+02  0.66045314480E+02  0.69731237171E+02  0.98125217876E+02  0.00000000000E+00 0.  1.
         -1    1    1    2    0  502  0.17863637908E+03 -0.29071315625E+02  0.88318288251E+03  0.90153652243E+03  0.00000000000E+00 0.  1.
<scales pt_clust_5="13000.00000" pt_clust_6="13000.00000" pt_clust_7="13000.00000" pt_clust_8="13000.00000" pt_clust_9="170.08073"></scales>
<clustering>
<clus scale="   77.586">  5  6 -1 -1</clus>
<clus scale="   92.713">  7  8 -1 -1</clus>
<clus scale="  102.961">  2  7  1 -1</clus>
<clus scale="  170.081">  1  9  2 -1</clus>
<clus scale="  170.081">  1  5  2 -1</clus>
</clustering>
</event>
<event>
 9    1  0.8429841E-005  0.2419899E+03  0.7546771E-02  0.1119345E+00
         21   -1    0    0  501  502  0.00000000000E+00  0.00000000000E+00  0.14450439093E+03  0.14450439093E+03  0.00000000000E+00 0. -1.
          3   -1    0    0  502    0 -0.00000000000E+00 -0.00000000000E+00 -0.59840012166E+03  0.59840012166E+03  0.00000000000E+00 0. -1.
        -24    2    1    2    0    0 -0.41763580535E+02  0.22077618678E+03 -0.36102878578E+03  0.43209325105E+03  0.76658151127E+02 0.  0.
         23    2    1    2    0    0  0.84015871781E+02 -0.20901880824E+03 -0.47574055412E+02  0.24776415289E+03  0.91521887006E+02 0.  0.
         13    1    3    3    0    0 -0.40556594164E+02  0.17409941164E+03 -0.33212993975E+03  0.37718130831E+03  0.00000000000E+00 0. -1.
        -14    1    3    3    0    0 -0.12069863709E+01  0.46676775137E+02 -0.28898846035E+02  0.54911942740E+02  0.00000000000E+00 0.  1.
        -13    1    4    4    0    0  0.94921606671E+02 -0.12213253573E+03 -0.40585862836E+02  0.15991772872E+03  0.00000000000E+00 0. -1.
         13    1    4    4    0    0 -0.10905734890E+02 -0.86886272517E+02 -0.69881925762E+01  0.87846424178E+02  0.00000000000E+00 0.  1.
          4    1    1    2  501    0 -0.42252291246E+02 -0.11757378534E+02 -0.45292889540E+02  0.63047108644E+02  0.00000000000E+00 0. -1.
<scales pt_clust_5="13000.00000" pt_clust_6="13000.00000" pt_clust_7="13000.00000" pt_clust_8="13000.00000" pt_clust_9="43.85766"></scales>
<clustering>
<clus scale="   43.858">  1  9  2 -1</clus>
<clus scale="   76.658">  5  6 -1 -1</clus>
<clus scale="   91.522">  7  8 -1 -1</clus>
<clus scale="  236.768">  2  5  1 -1</clus>
<clus scale="   43.858">  1  5  2 -1</clus>
</clustering>
</event>
<event>
 9    1  0.8429841E-005  0.1970253E+03  0.7546771E-02  0.1153259E+00
         21   -1    0    0  501  502  0.00000000000E+00  0.00000000000E+00  0.19360155808E+03  0.19360155808E+03  0.00000000000E+00 0. -1.
          1   -1    0    0  502    0 -0.00000000000E+00 -0.00000000000E+00 -0.27397980867E+03  0.27397980867E+03  0.00000000000E+00 0. -1.
        -24    2    1    2    0    0 -0.15648225086E+03  0.80498406094E+02 -0.39100320346E+02  0.19736204496E+03  0.80350815330E+02 0.  0.
         23    2    1    2    0    0  0.17658750144E+03 -0.27404620035E+02 -0.61264111196E+00  0.20038496806E+03  0.90662016490E+02 0.  0.
         13    1    3    3    0    0 -0.13011989330E+03  0.96749353429E+02 -0.28521703368E+02  0.16463630093E+03  0.00000000000E+00 0. -1.
        -14    1    3    3    0    0 -0.26362357560E+02 -0.16250947336E+02 -0.10578616979E+02  0.32725744035E+02  0.00000000000E+00 0.  1.
        -11    1    4    4    0    0  0.11707036626E+03 -0.56713134281E+02  0.18383973651E+02  0.13137663697E+03  0.00000000000E+00 0.  1.
         11    1    4    4    0    0  0.59517135180E+02  0.29308514246E+02 -0.18996614763E+02  0.69008331089E+02  0.00000000000E+00 0. -1.
          2    1    1    2  501    0 -0.20105250579E+02 -0.53093786058E+02 -0.40665289134E+02  0.69834353718E+02  0.00000000000E+00 0. -1.
<scales pt_clust_5="13000.00000" pt_clust_6="13000.00000" pt_clust_7="13000.00000" pt_clust_8="13000.00000" pt_clust_9="56.77301"></scales>
<clustering>
<clus scale="   56.773">  1  9  2 -1</clus>
<clus scale="   80.351">  5  6 -1 -1</clus>
<clus scale="   90.662">  7  8 -1 -1</clus>
<clus scale="  192.498">  2  5  1 -1</clus>
<clus scale="   56.773">  1  5  2 -1</clus>
</clustering>
</event>
<event>
 9    1  0.8429841E-005  0.1146126E+03  0.7546771E-02  0.1252655E+00
         21   -1    0    0  501  502  0.00000000000E+00  0.00000000000E+00  0.61513593475E+03  0.61513593475E+03  0.00000000000E+00 0. -1.
          3   -1    0    0  502    0 -0.00000000000E+00 -0.00000000000E+00 -0.32723921930E+02  0.32723921930E+02  0.00000000000E+00 0. -1.
        -24    2    1    2    0    0  0.44441332927E+02  0.69701619493E+02  0.23492668607E+03  0.26347423589E+03  0.85992891082E+02 0.  0.
         23    2    1    2    0    0 -0.63978350257E+02 -0.34229755932E+02  0.30893752049E+03  0.32847603737E+03  0.84789209625E+02 0.  0.
         11    1    3    3    0    0  0.49472084766E+02  0.29525755577E+02  0.20549353225E+03  0.21341707807E+03  0.00000000000E+00 0. -1.
        -12    1    3    3    0    0 -0.50307518388E+01  0.40175863915E+02  0.29433153819E+02  0.50057157821E+02  0.00000000000E+00 0.  1.
        -11    1    4    4    0    0 -0.69623216587E+02  0.69245205356E+01  0.18734733862E+03  0.19998591591E+03  0.00000000000E+00 0. -1.
         11    1    4    4    0    0  0.56448663300E+01 -0.41154276467E+02  0.12159018187E+03  0.12849012147E+03  0.00000000000E+00 0.  1.
          4    1    1    2  501    0  0.19537017330E+02 -0.35471863561E+02  0.38547806259E+02  0.55909583419E+02  0.00000000000E+00 0. -1.
<scales pt_clust_5="13000.00000" pt_clust_6="13000.00000" pt_clust_7="13000.00000" pt_clust_8="13000.00000" pt_clust_9="40.49629"></scales>
<clustering>
<clus scale="   40.496">  1  9  2 -1</clus>
<clus scale="   84.789">  7  8 -1 -1</clus>
<clus scale="   85.993">  5  6 -1 -1</clus>
<clus scale="  113.712">  1  7  2 -1</clus>
<clus scale="   40.496">  1  5  2 -1</clus>
</clustering>
</event>
<event>
 9    1  0.8429841E-005  0.2019011E+03  0.7546771E-02  0.1186022E+00
         21   -1    0    0  501  502  0.00000000000E+00  0.00000000000E+00  0.12118948163E+03  0.12118948163E+03  0.00000000000E+00 0. -1.
          1   -1    0    0  502    0 -0.00000000000E+00 -0.00000000000E+00 -0.60580308589E+03  0.60580308589E+03  0.00000000000E+00 0. -1.
        -24    2    1    2    0    0  0.24049864947E+02  0.74695339836E+01 -0.15343493453E+03  0.17516333893E+03  0.80658082236E+02 0.  0.
         23    2    1    2    0    0 -0.12054790951E+03 -0.15274214830E+03 -0.30760074963E+03  0.37584081024E+03  0.93681007224E+02 0.  0.
         13    1    3    3    0    0  0.42604195637E+02 -0.58084302119E+01 -0.14432820918E+03  0.15059710261E+03  0.00000000000E+00 0. -1.
        -14    1    3    3    0    0 -0.18554330690E+02  0.13277964196E+02 -0.91067253404E+01  0.24566236321E+02  0.00000000000E+00 0.  1.
        -13    1    4    4    0    0 -0.19473329597E+02 -0.83544229128E+01  0.15413145433E+00  0.21190344601E+02  0.00000000000E+00 0.  1.
         13    1    4    4    0    0 -0.10107457991E+03 -0.14438772539E+03 -0.30775488108E+03  0.35465046564E+03  0.00000000000E+00 0. -1.
          2    1    1    2  501    0  0.96498044560E+02  0.14527261432E+03 -0.23577920107E+02  0.17598841835E+03  0.00000000000E+00 0. -1.
<scales pt_clust_5="13000.00000" pt_clust_6="13000.00000" pt_clust_7="13000.00000" pt_clust_8="13000.00000" pt_clust_9="178.85164"></scales>
<clustering>
<clus scale="   80.658">  5  6 -1 -1</clus>
<clus scale="   84.498">  2  5  1 -1</clus>
<clus scale="   93.681">  7  8 -1 -1</clus>
<clus scale="  178.852">  1  9  2 -1</clus>
<clus scale="  178.852">  1  5  2 -1</clus>
</clustering>
</event>
<event>
 9    1  0.8429841E-005  0.1156464E+03  0.7546771E-02  0.1258199E+00
          1   -1    0    0  502    0 -0.00000000000E+00  0.00000000000E+00  0.42852141264E+03  0.42852141264E+03  0.00000000000E+00 0. -1.
         21   -1    0    0  501  502  0.00000000000E+00 -0.00000000000E+00 -0.70272244837E+02  0.70272244837E+02  0.00000000000E+00 0.  1.
         23    2    1    2    0    0 -0.77755322232E+02 -0.12204362043E+02  0.27170088665E+03  0.29994005973E+03  0.99738814087E+02 0.  0.
        -24    2    1    2    0    0 -0.28215371072E+01  0.29598375082E+02  0.93544392646E+01  0.85919673811E+02  0.80066596872E+02 0.  0.
         13    1    4    4    0    0  0.28067211064E+02  0.17586144924E+02  0.31780861560E+02  0.45902766711E+02  0.00000000000E+00 0. -1.
        -14    1    4    4    0    0 -0.30888748171E+02  0.12012230157E+02 -0.22426422295E+02  0.40016907100E+02  0.00000000000E+00 0.  1.
        -11    1    3    3    0    0 -0.98724464197E+02 -0.25373115363E+02  0.20917410553E+03  0.23268889367E+03  0.00000000000E+00 0. -1.
         11    1    3    3    0    0  0.20969141964E+02  0.13168753320E+02  0.62526781119E+02  0.67251166056E+02  0.00000000000E+00 0.  1.
          2    1    1    2  501    0  0.80576859339E+02 -0.17394013039E+02  0.77193841890E+02  0.11293392394E+03  0.00000000000E+00 0. -1.
<scales pt_clust_5="13000.00000" pt_clust_6="13000.00000" pt_clust_7="13000.00000" pt_clust_8="13000.00000" pt_clust_9="82.43289"></scales>
<clustering>
<clus scale="   80.067">  5  6 -1 -1</clus>
<clus scale="   82.433">  2  9  1 -1</clus>
<clus scale="   99.181">  2  5  1 -1</clus>
<clus scale="   99.739">  7  8 -1 -1</clus>
<clus scale="   82.433">  2  5  1 -1</clus>
</clustering>
</event>
<event>
 9    1  0.8429841E-005  0.1331806E+03  0.7546771E-02  0.1231187E+00
         -4   -1    0    0    0  501 -0.00000000000E+00  0.00000000000E+00  0.33048141116E+03  0.33048141116E+03  0.00000000000E+00 0.  1.
         21   -1    0    0  501  502  0.00000000000E+00 -0.00000000000E+00 -0.51470704992E+03  0.51470704992E+03  0.00000000000E+00 0.  1.
        -24    2    1    2    0    0 -0.63479647437E+02  0.47295846452E+02  0.27941498292E+03  0.30100086007E+03  0.79134204672E+02 0.  0.
         23    2    1    2    0    0 -0.80758852015E+02  0.33156350998E+02 -0.24531299318E+03  0.27042811868E+03  0.73017579795E+02 0.  0.
         11    1    3    3    0    0 -0.63068958501E+02 -0.15377454278E+01  0.15559853194E+03  0.16790164183E+03  0.00000000000E+00 0. -1.
        -12    1    3    3    0    0 -0.41068893579E+00  0.48833591879E+02  0.12381645098E+03  0.13309921824E+03  0.00000000000E+00 0.  1.
        -13    1    4    4    0    0 -0.30395686052E+02  0.49177634241E+01 -0.17509804310E+02  0.35421397130E+02  0.00000000000E+00 0. -1.
         13    1    4    4    0    0 -0.50363165963E+02  0.28238587574E+02 -0.22780318887E+03  0.23500672155E+03  0.00000000000E+00 0.  1.
         -3    1    1    2    0  502  0.14423849945E+03 -0.80452197450E+02 -0.21832762851E+03  0.27375948234E+03  0.00000000000E+00 0.  1.
<scales pt_clust_5="13000.00000" pt_clust_6="13000.00000" pt_clust_7="13000.00000" pt_clust_8="13000.00000" pt_clust_9="111.38006"></scales>
<clustering>
<clus scale="   73.018">  7  8 -1 -1</clus>
<clus scale="   79.134">  5  6 -1 -1</clus>
<clus scale="  111.932">  1  5  2 -1</clus>
<clus scale="  111.380">  2  9  1 -1</clus>
<clus scale="  111.380">  2  5  1 -1</clus>
</clustering>
</event>
<event>
 9    1  0.8429841E-005  0.9403010E+02  0.7546771E-02  0.1306006E+00
         -2   -1    0    0    0  501 -0.00000000000E+00  0.00000000000E+00  0.17210979748E+03  0.17210979748E+03  0.00000000000E+00 0.  1.
         21   -1    0    0  501  502  0.00000000000E+00 -0.00000000000E+00 -0.10099978283E+03  0.10099978283E+03  0.00000000000E+00 0. -1.
        -24    2    1    2    0    0 -0.11321190324E+02 -0.11120341318E+02  0.89015543138E+02  0.11612029374E+03  0.72858248385E+02 0.  0.
         23    2    1    2    0    0  0.25126569583E+02 -0.10950832751E+02 -0.55316176323E+02  0.11141207963E+03  0.92744309190E+02 0.  0.
         13    1    3    3    0    0 -0.30537341604E+02  0.87131145791E+01  0.11403365147E+02  0.33741433499E+02  0.00000000000E+00 0. -1.
        -14    1    3    3    0    0  0.19216151279E+02 -0.19833455897E+02  0.77612177991E+02  0.82378860245E+02  0.00000000000E+00 0.  1.
        -11    1    4    4    0    0  0.19923527470E+02 -0.42886133672E+02  0.45748824482E-01  0.47288153920E+02  0.00000000000E+00 0.  1.
         11    1    4    4    0    0  0.52030421131E+01  0.31935300921E+02 -0.55361925147E+02  0.64123925708E+02  0.00000000000E+00 0. -1.
         -1    1    1    2    0  502 -0.13805379259E+02  0.22071174069E+02  0.37410647837E+02  0.45577206944E+02  0.00000000000E+00 0.  1.
<scales pt_clust_5="13000.00000" pt_clust_6="13000.00000" pt_clust_7="13000.00000" pt_clust_8="13000.00000" pt_clust_9="26.03317"></scales>
<clustering>
<clus scale="   26.033">  2  9  1 -1</clus>
<clus scale="   72.858">  5  6 -1 -1</clus>
<clus scale="   74.488">  1  5  2 -1</clus>
<clus scale="   92.744">  7  8 -1 -1</clus>
<clus scale="   26.033">  2  5  1 -1</clus>
</clustering>
</event>
<event>
 9    1  0.8429841E-005  0.1239681E+03  0.7546771E-02  0.1240127E+00
          1   -1    0    0  502    0 -0.00000000000E+00  0.00000000000E+00  0.51489842561E+03  0.51489842561E+03  0.00000000000E+00 0. -1.
         21   -1    0    0  501  502  0.00000000000E+00 -0.00000000000E+00 -0.67287103048E+02  0.67287103048E+02  0.00000000000E+00 0.  1.
        -24    2    1    2    0    0 -0.21044707102E+02  0.47691611716E+02  0.78902151469E+02  0.12333090119E+03  0.79168125889E+02 0.  0.
         23    2    1    2    0    0  0.88934916409E+02 -0.10613473810E+03  0.15395298162E+03  0.22616405942E+03  0.90965153964E+02 0.  0.
         13    1    3    3    0    0 -0.17908445667E+01  0.22374934579E+02  0.87540395576E+02  0.90372372323E+02  0.00000000000E+00 0. -1.
        -14    1    3    3    0    0 -0.19253862535E+02  0.25316677138E+02 -0.86382441074E+01  0.32958528867E+02  0.00000000000E+00 0.  1.
        -11    1    4    4    0    0  0.11440826578E+02 -0.43146552132E+02  0.10674838668E+03  0.11570538247E+03  0.00000000000E+00 0. -1.
         11    1    4    4    0    0  0.77494089831E+02 -0.62988185967E+02  0.47204594940E+02  0.11045867695E+03  0.00000000000E+00 0.  1.
          2    1    1    2  501    0 -0.67890209307E+02  0.58443126383E+02  0.21475618947E+03  0.23269056805E+03  0.00000000000E+00 0. -1.
<scales pt_clust_5="13000.00000" pt_clust_6="13000.00000" pt_clust_7="13000.00000" pt_clust_8="13000.00000" pt_clust_9="89.58062"></scales>
<clustering>
<clus scale="   79.168">  5  6 -1 -1</clus>
<clus scale="   89.581">  2  9  1 -1</clus>
<clus scale="   90.965">  7  8 -1 -1</clus>
<clus scale="  115.590">  1  5  2 -1</clus>
<clus scale="   89.581">  2  5  1 -1</clus>
</clustering>
</event>
<event>
 9    1  0.8429841E-005  0.1095358E+03  0.7546771E-02  0.1263428E+00
          1   -1    0    0  502    0 -0.00000000000E+00  0.00000000000E+00  0.15960303696E+03  0.15960303696E+03  0.00000000000E+00 0. -1.
         21   -1    0    0  501  502  0.00000000000E+00 -0.00000000000E+00 -0.15673276075E+03  0.15673276075E+03  0.00000000000E+00 0.  1.
        -24    2    1    2    0    0 -0.59573400727E+02  0.22098824222E+02  0.63374774133E+02  0.12469758378E+03  0.86578157168E+02 0.  0.
         23    2    1    2    0    0  0.57020428953E+02  0.28866214879E+02 -0.79570112333E+02  0.13716390320E+03  0.91640307104E+02 0.  0.
         13    1    3    3    0    0 -0.77850261235E+02  0.87156926436E+01  0.29004659991E+02  0.83533806173E+02  0.00000000000E+00 0. -1.
        -14    1    3    3    0    0  0.18276860509E+02  0.13383131579E+02  0.34370114142E+02  0.41163777609E+02  0.00000000000E+00 0.  1.
        -11    1    4    4    0    0  0.27012793434E+02  0.58336198980E+02 -0.67923876319E+02  0.93522489781E+02  0.00000000000E+00 0.  1.
         11    1    4    4    0    0  0.30007635519E+02 -0.29469984101E+02 -0.11646236014E+02  0.43641413424E+02  0.00000000000E+00 0. -1.
          2    1    1    2  501    0  0.25529717738E+01 -0.50965039102E+02  0.19065614419E+02  0.54474310722E+02  0.00000000000E+00 0. -1.
<scales pt_clust_5="13000.00000" pt_clust_6="13000.00000" pt_clust_7="13000.00000" pt_clust_8="13000.00000" pt_clust_9="51.02897"></scales>
<clustering>
<clus scale="   51.029">  2  9  1 -1</clus>
<clus scale="   86.578">  5  6 -1 -1</clus>
<clus scale="   91.640">  7  8 -1 -1</clus>
<clus scale="  105.337">  1  5  2 -1</clus>
<clus scale="   51.029">  2  5  1 -1</clus>
</clustering>
</event>
<event>
 9    1  0.8429841E-005  0.1417406E+03  0.7546771E-02  0.1213701E+00
         -2   -1    0    0    0  501 -0.00000000000E+00  0.00000000000E+00  0.72086348560E+03  0.72086348560E+03  0.00000000000E+00 0.  1.
         21   -1    0    0  501  502  0.00000000000E+00 -0.00000000000E+00 -0.54088038228E+02  0.54088038228E+02  0.00000000000E+00 0.  1.
        -24    2    1    2    0    0  0.12646131190E+03 -0.78861757453E+01  0.48114163015E+03  0.50403215158E+03  0.80600784027E+02 0.  0.
         23    2    1    2    0    0 -0.69514460775E+02 -0.33189254142E+02  0.14858087852E+03  0.19152759018E+03  0.93127619367E+02 0.  0.
         11    1    3    3    0    0  0.39026541525E+02  0.33862261589E+02  0.13380294040E+03  0.14343273882E+03  0.00000000000E+00 0. -1.
        -12    1    3    3    0    0  0.87434770377E+02 -0.41748437334E+02  0.34733868975E+03  0.36059941277E+03  0.00000000000E+00 0.  1.
        -13    1    4    4    0    0 -0.66819422342E+02 -0.96187346378E+01  0.36065091624E+02  0.76537873579E+02  0.00000000000E+00 0.  1.
         13    1    4    4    0    0 -0.26950384333E+01 -0.23570519504E+02  0.11251578690E+03  0.11498971660E+03  0.00000000000E+00 0. -1.
         -1    1    1    2    0  502 -0.56946851127E+02  0.41075429887E+02  0.37052938692E+02  0.79391782065E+02  0.00000000000E+00 0.  1.
<scales pt_clust_5="13000.00000" pt_clust_6="13000.00000" pt_clust_7="13000.00000" pt_clust_8="13000.00000" pt_clust_9="70.21492"></scales>
<clustering>
<clus scale="   70.215">  2  9  1 -1</clus>
<clus scale="   80.601">  5  6 -1 -1</clus>
<clus scale="   93.128">  7  8 -1 -1</clus>
<clus scale="  133.844">  1  5  2 -1</clus>
<clus scale="   70.215">  2  5  1 -1</clus>
</clustering>
</event>
<event>
 9    1  0.8429841E-005  0.1261802E+03  0.7546771E-02  0.1235291E+00
         -2   -1    0    0    0  501 -0.00000000000E+00  0.00000000000E+00  0.67525886220E+02  0.67525886220E+02  0.00000000000E+00 0.  1.
         21   -1    0    0  501  502  0.00000000000E+00 -0.00000000000E+00 -0.37263429053E+03  0.37263429053E+03  0.00000000000E+00 0. -1.
         23    2    1    2    0    0 -0.12221263245E+02 -0.84942937687E+02 -0.56487798750E+02  0.13756197807E+03  0.91475485591E+02 0.  0.
        -24    2    1    2    0    0 -0.31107678944E+02  0.90665810181E+02 -0.16850761611E+03  0.21133900967E+03  0.84150956593E+02 0.  0.
         11    1    4    4    0    0 -0.50724833961E+02  0.21646864872E+02 -0.62795195737E+02  0.83575308237E+02  0.00000000000E+00 0. -1.
        -12    1    4    4    0    0  0.19617155018E+02  0.69018945309E+02 -0.10571242037E+03  0.12776370143E+03  0.00000000000E+00 0.  1.
        -11    1    3    3    0    0  0.19532729426E+02 -0.55323371373E+02  0.86216611578E+01  0.59300387689E+02  0.00000000000E+00 0.  1.
         11    1    3    3    0    0 -0.31753992671E+02 -0.29619566313E+02 -0.65109459908E+02  0.78261590379E+02  0.00000000000E+00 0. -1.
         -1    1    1    2    0  502  0.43328942189E+02 -0.57228724948E+01 -0.80112989454E+02  0.91259189017E+02  0.00000000000E+00 0.  1.
<scales pt_clust_5="13000.00000" pt_clust_6="13000.00000" pt_clust_7="13000.00000" pt_clust_8="13000.00000" pt_clust_9="43.70525"></scales>
<clustering>
<clus scale="   43.705">  2  9  1 -1</clus>
<clus scale="   84.151">  5  6 -1 -1</clus>
<clus scale="   91.475">  7  8 -1 -1</clus>
<clus scale="  120.975">  2  5  1 -1</clus>
<clus scale="   43.705">  2  5  1 -1</clus>
</clustering>
</event>
<event>
 9    1  0.8429841E-005  0.1080766E+03  0.7546771E-02  0.1268028E+00
         21   -1    0    0  501  502  0.00000000000E+00  0.00000000000E+00  0.11006096984E+03  0.11006096984E+03  0.00000000000E+00 0. -1.
          3   -1    0    0  502    0 -0.00000000000E+00 -0.00000000000E+00 -0.19624856589E+03  0.19624856589E+03  0.00000000000E+00 0. -1.
        -24    2    1    2    0    0  0.73759430070E+02 -0.33619287111E-01 -0.69940818745E+02  0.13134196858E+03  0.83177761030E+02 0.  0.
         23    2    1    2    0    0 -0.17562558985E+02  0.22367439564E+02  0.27242297071E+02  0.10048141113E+03  0.92442551900E+02 0.  0.
         13    1    3    3    0    0  0.75055211350E+02  0.14660503489E+02 -0.19685779924E+02  0.78966733785E+02  0.00000000000E+00 0. -1.
        -14    1    3    3    0    0 -0.12957812802E+01 -0.14694122776E+02 -0.50255038821E+02  0.52375234798E+02  0.00000000000E+00 0.  1.
        -13    1    4    4    0    0 -0.54440294759E+01  0.50259813252E+02 -0.10883812204E+02  0.51712122884E+02  0.00000000000E+00 0.  1.
         13    1    4    4    0    0 -0.12118529510E+02 -0.27892373688E+02  0.38126109275E+02  0.48769288244E+02  0.00000000000E+00 0. -1.
          4    1    1    2  501    0 -0.56196871084E+02 -0.22333820276E+02 -0.43489074375E+02  0.74486156015E+02  0.00000000000E+00 0. -1.
<scales pt_clust_5="13000.00000" pt_clust_6="13000.00000" pt_clust_7="13000.00000" pt_clust_8="13000.00000" pt_clust_9="60.47224"></scales>
<clustering>
<clus scale="   60.472">  1  9  2 -1</clus>
<clus scale="   83.178">  5  6 -1 -1</clus>
<clus scale="   92.443">  7  8 -1 -1</clus>
<clus scale="  100.267">  2  5  1 -1</clus>
<clus scale="   60.472">  1  5  2 -1</clus>
</clustering>
</event>
<event>
 9    1  0.8429841E-005  0.9695477E+02  0.7546771E-02  0.1292757E+00
          1   -1    0    0  502    0 -0.00000000000E+00  0.00000000000E+00  0.98515663501E+02  0.98515663501E+02  0.00000000000E+00 0. -1.
         21   -1    0    0  501  502  0.00000000000E+00 -0.00000000000E+00 -0.30781731345E+03  0.30781731345E+03  0.00000000000E+00 0.  1.
        -24    2    1    2    0    0  0.11107649940E+02 -0.15701559720E+02 -0.22140038159E+02  0.85951912059E+02  0.80793756146E+02 0.  0.
         23    2    1    2    0    0  0.16416704966E+02  0.93251160914E+02 -0.19752095982E+03  0.23744225099E+03  0.91646089805E+02 0.  0.
         11    1    3    3    0    0  0.23894685019E+02 -0.71253219295E+01  0.25632437376E+02  0.35759586555E+02  0.00000000000E+00 0. -1.
        -12    1    3    3    0    0 -0.12787035079E+02 -0.85762377900E+01 -0.47772475535E+02  0.50192325504E+02  0.00000000000E+00 0.  1.
        -11    1    4    4    0    0  0.32410800350E+02  0.65411694435E+02 -0.19127681327E+03  0.20473389813E+03  0.00000000000E+00 0.  1.
         11    1    4    4    0    0 -0.15994095384E+02  0.27839466480E+02 -0.62441465444E+01  0.32708352864E+02  0.00000000000E+00 0. -1.
          2    1    1    2  501    0 -0.27524354906E+02 -0.77549601195E+02  0.10359348029E+02  0.82938813894E+02  0.00000000000E+00 0. -1.
<scales pt_clust_5="13000.00000" pt_clust_6="13000.00000" pt_clust_7="13000.00000" pt_clust_8="13000.00000" pt_clust_9="82.28935"></scales>
<clustering>
<clus scale="   80.794">  5  6 -1 -1</clus>
<clus scale="   82.289">  2  9  1 -1</clus>
<clus scale="   86.769">  1  5  2 -1</clus>
<clus scale="   91.646">  7  8 -1 -1</clus>
<clus scale="   82.289">  2  5  1 -1</clus>
</clustering>
</event>
<event>
 9    1  0.8429841E-005  0.1080717E+03  0.7546771E-02  0.1267020E+00
         21   -1    0    0  501  502  0.00000000000E+00  0.00000000000E+00  0.88434446383E+03  0.88434446383E+03  0.00000000000E+00 0. -1.
         -2   -1    0    0    0  501 -0.00000000000E+00 -0.00000000000E+00 -0.38801900651E+02  0.38801900651E+02  0.00000000000E+00 0.  1.
         23    2    1    2    0    0  0.42271082681E+02 -0.25772708256E+02  0.33462095108E+03  0.34957066690E+03  0.88189530747E+02 0.  0.
        -24    2    1    2    0    0 -0.90674699989E+02 -0.33903470533E+02  0.46973939937E+03  0.48639696663E+03  0.80966408471E+02 0.  0.
         13    1    4    4    0    0 -0.74146885817E+02 -0.44823235131E+02  0.45059200210E+03  0.45884641814E+03  0.00000000000E+00 0. -1.
        -14    1    4    4    0    0 -0.16527814172E+02  0.10919764598E+02  0.19147397267E+02  0.27550548493E+02  0.00000000000E+00 0.  1.
        -13    1    3    3    0    0  0.21832246711E+02 -0.54955912896E+02  0.14435046077E+03  0.15599312448E+03  0.00000000000E+00 0.  1.
         13    1    3    3    0    0  0.20438835970E+02  0.29183204640E+02  0.19027049031E+03  0.19357754243E+03  0.00000000000E+00 0. -1.
         -1    1    1    2    0  502  0.48403617309E+02  0.59676178789E+02  0.41182212725E+02  0.87178730941E+02  0.00000000000E+00 0.  1.
<scales pt_clust_5="13000.00000" pt_clust_6="13000.00000" pt_clust_7="13000.00000" pt_clust_8="13000.00000" pt_clust_9="76.83855"></scales>
<clustering>
<clus scale="   76.839">  1  9  2 -1</clus>
<clus scale="   80.966">  5  6 -1 -1</clus>
<clus scale="   88.190">  7  8 -1 -1</clus>
<clus scale="  102.263">  1  5  2 -1</clus>
<clus scale="   76.839">  1  5  2 -1</clus>
</clustering>
</event>
<event>
 9    1  0.8429841E-005  0.1565107E+03  0.7546771E-02  0.1194980E+00
         21   -1    0    0  501  502  0.00000000000E+00  0.00000000000E+00  0.40766191701E+03  0.40766191701E+03  0.00000000000E+00 0. -1.
          1   -1    0    0  502    0 -0.00000000000E+00 -0.00000000000E+00 -0.16303390128E+03  0.16303390128E+03  0.00000000000E+00 0. -1.
        -24    2    1    2    0    0  0.13145189813E+03  0.65926516077E+01 -0.98390431580E+02  0.18253451339E+03  0.79467647360E+02 0.  0.
         23    2    1    2    0    0 -0.87046658517E+02  0.17125390301E+02  0.27477457124E+03  0.30335801817E+03  0.93030223254E+02 0.  0.
         13    1    3    3    0    0  0.11180467875E+03  0.16525252273E+02 -0.10994220392E+03  0.15767263033E+03  0.00000000000E+00 0. -1.
        -14    1    3    3    0    0  0.19647219379E+02 -0.99326006651E+01  0.11551772339E+02  0.24861883064E+02  0.00000000000E+00 0.  1.
        -11    1    4    4    0    0 -0.53900348487E+02  0.55315171303E+02  0.18170386099E+03  0.19743684773E+03  0.00000000000E+00 0. -1.
         11    1    4    4    0    0 -0.33146310029E+02 -0.38189781002E+02  0.93070710246E+02  0.10592117044E+03  0.00000000000E+00 0.  1.
          2    1    1    2  501    0 -0.44405239611E+02 -0.23718041909E+02  0.68243876080E+02  0.84803286724E+02  0.00000000000E+00 0. -1.
<scales pt_clust_5="13000.00000" pt_clust_6="13000.00000" pt_clust_7="13000.00000" pt_clust_8="13000.00000" pt_clust_9="50.34253"></scales>
<clustering>
<clus scale="   50.343">  1  9  2 -1</clus>
<clus scale="   79.468">  5  6 -1 -1</clus>
<clus scale="   93.030">  7  8 -1 -1</clus>
<clus scale="  148.849">  2  5  1 -1</clus>
<clus scale="   50.343">  1  5  2 -1</clus>
</clustering>
</event>
<event>
 9    1  0.8429841E-005  0.1463346E+03  0.7546771E-02  0.1206863E+00
         21   -1    0    0  501  502  0.00000000000E+00  0.00000000000E+00  0.26711094172E+03  0.26711094172E+03  0.00000000000E+00 0.  1.
         -4   -1    0    0    0  501 -0.00000000000E+00 -0.00000000000E+00 -0.18531661813E+03  0.18531661813E+03  0.00000000000E+00 0.  1.
        -24    2    1    2    0    0  0.65805215618E+02 -0.10192715703E+03 -0.83503185423E+02  0.16825367388E+03  0.81345221460E+02 0.  0.
         23    2    1    2    0    0 -0.33306305782E+02  0.98959397996E+02  0.25505511720E+02  0.14062323553E+03  0.90675745304E+02 0.  0.
         11    1    3    3    0    0  0.19840553280E+02 -0.65246849118E+02 -0.26132842879E+01  0.68246817721E+02  0.00000000000E+00 0. -1.
        -12    1    3    3    0    0  0.45964662338E+02 -0.36680307911E+02 -0.80889901135E+02  0.10000685616E+03  0.00000000000E+00 0.  1.
        -11    1    4    4    0    0 -0.19712408919E+02  0.57628978949E+02  0.59699354854E+02  0.85285938173E+02  0.00000000000E+00 0.  1.
         11    1    4    4    0    0 -0.13593896864E+02  0.41330419047E+02 -0.34193843134E+02  0.55337297357E+02  0.00000000000E+00 0. -1.
         -3    1    1    2    0  502 -0.32498909836E+02  0.29677590333E+01  0.13979199730E+03  0.14355065044E+03  0.00000000000E+00 0.  1.
<scales pt_clust_5="13000.00000" pt_clust_6="13000.00000" pt_clust_7="13000.00000" pt_clust_8="13000.00000" pt_clust_9="32.63413"></scales>
<clustering>
<clus scale="   32.634">  1  9  2 -1</clus>
<clus scale="   81.345">  5  6 -1 -1</clus>
<clus scale="   90.676">  7  8 -1 -1</clus>
<clus scale="  140.744">  2  5  1 -1</clus>
<clus scale="   32.634">  1  5  2 -1</clus>
</clustering>
</event>
<event>
 9    1  0.8429841E-005  0.1501172E+03  0.7546771E-02  0.1221677E+00
         21   -1    0    0  501  502  0.00000000000E+00  0.00000000000E+00  0.43666307757E+02  0.43666307757E+02  0.00000000000E+00 0.  1.
         -4   -1    0    0    0  501 -0.00000000000E+00 -0.00000000000E+00 -0.90573458715E+03  0.90573458715E+03  0.00000000000E+00 0.  1.
        -24    2    1    2    0    0  0.14986439054E+02 -0.48459757599E+02 -0.11067025226E+03  0.14600215305E+03  0.80596417398E+02 0.  0.
         23    2    1    2    0    0  0.43334579793E+02 -0.73020985863E+02 -0.52781481396E+03  0.54234632282E+03  0.91329654884E+02 0.  0.
         11    1    3    3    0    0 -0.16417700434E+02  0.16365102793E+02 -0.25745123797E+02  0.34643453585E+02  0.00000000000E+00 0. -1.
        -12    1    3    3    0    0  0.31404139488E+02 -0.64824860392E+02 -0.84925128465E+02  0.11135869947E+03  0.00000000000E+00 0.  1.
        -13    1    4    4    0    0  0.64759722690E+02 -0.63830097782E+02 -0.48634872349E+03  0.49477589261E+03  0.00000000000E+00 0.  1.
         13    1    4    4    0    0 -0.21425142897E+02 -0.91908880815E+01 -0.41466090466E+02  0.47570430211E+02  0.00000000000E+00 0. -1.
         -3    1    1    2    0  502 -0.58321018848E+02  0.12148074346E+03 -0.22358321317E+03  0.26105241903E+03  0.00000000000E+00 0.  1.
<scales pt_clust_5="13000.00000" pt_clust_6="13000.00000" pt_clust_7="13000.00000" pt_clust_8="13000.00000" pt_clust_9="119.13888"></scales>
<clustering>
<clus scale="   80.596">  5  6 -1 -1</clus>
<clus scale="   91.330">  7  8 -1 -1</clus>
<clus scale="   95.230">  2  5  1 -1</clus>
<clus scale="  119.139">  1  9  2 -1</clus>
<clus scale="  119.139">  1  5  2 -1</clus>
</clustering>
</event>
<event>
 9    1  0.8429841E-005  0.9534107E+02  0.7546771E-02  0.1294438E+00
         21   -1    0    0  501  502  0.00000000000E+00  0.00000000000E+00  0.11034628026E+03  0.11034628026E+03  0.00000000000E+00 0. -1.
          1   -1    0    0  502    0 -0.00000000000E+00 -0.00000000000E+00 -0.32965746064E+03  0.32965746064E+03  0.00000000000E+00 0. -1.
        -24    2    1    2    0    0  0.47420823162E+02  0.24239030968E+02 -0.19724078523E+03  0.22117994294E+03  0.84737091694E+02 0.  0.
         23    2    1    2    0    0  0.33402100570E+02  0.18547129118E+02 -0.63873373134E+02  0.11827286826E+03  0.91918263961E+02 0.  0.
         11    1    3    3    0    0  0.18363350712E+01  0.31026953529E+02 -0.17593478037E+02  0.35715185023E+02  0.00000000000E+00 0. -1.
        -12    1    3    3    0    0  0.45584488091E+02 -0.67879225608E+01 -0.17964730720E+03  0.18546475792E+03  0.00000000000E+00 0.  1.
        -11    1    4    4    0    0  0.51782951223E+02  0.66497219233E+01 -0.76786023525E+02  0.92853574233E+02  0.00000000000E+00 0.  1.
         11    1    4    4    0    0 -0.18380850652E+02  0.11897407195E+02  0.12912650391E+02  0.25419294026E+02  0.00000000000E+00 0. -1.
          2    1    1    2  501    0 -0.80822923732E+02 -0.42786160086E+02  0.41802977987E+02  0.10055092970E+03  0.00000000000E+00 0. -1.
<scales pt_clust_5="13000.00000" pt_clust_6="13000.00000" pt_clust_7="13000.00000" pt_clust_8="13000.00000" pt_clust_9="91.44944"></scales>
<clustering>
<clus scale="   84.737">  5  6 -1 -1</clus>
<clus scale="   91.449">  1  9  2 -1</clus>
<clus scale="   88.438">  2  5  1 -1</clus>
<clus scale="   91.918">  7  8 -1 -1</clus>
<clus scale="   91.449">  1  5  2 -1</clus>
</clustering>
</event>
<event>
 9    1  0.8429841E-005  0.1496645E+03  0.7546771E-02  0.1202949E+00
          1   -1    0    0  502    0 -0.00000000000E+00  0.00000000000E+00  0.96423968463E+02  0.96423968463E+02  0.00000000000E+00 0. -1.
         21   -1    0    0  501  502  0.00000000000E+00 -0.00000000000E+00 -0.30120263129E+03  0.30120263129E+03  0.00000000000E+00 0. -1.
         23    2    1    2    0    0 -0.82452312025E+02  0.95742272724E+02 -0.66512855683E+02  0.16879865555E+03  0.90022550504E+02 0.  0.
        -24    2    1    2    0    0  0.10025565874E+03 -0.56864907325E+02 -0.10720213901E+03  0.17597569570E+03  0.78678663389E+02 0.  0.
         11    1    4    4    0    0  0.56841550769E+02  0.95979293162E+01 -0.61849113918E+02  0.84548181728E+02  0.00000000000E+00 0. -1.
        -12    1    4    4    0    0  0.43414107971E+02 -0.66462836641E+02 -0.45353025092E+02  0.91427513968E+02  0.00000000000E+00 0.  1.
        -13    1    3    3    0    0 -0.28538082193E+02 -0.88934597436E+01  0.60818076338E+01  0.30504166036E+02  0.00000000000E+00 0.  1.
         13    1    3    3    0    0 -0.53914229833E+02  0.10463573247E+03 -0.72594663317E+02  0.13829448951E+03  0.00000000000E+00 0. -1.
          2    1    1    2  501    0 -0.17803346715E+02 -0.38877365399E+02 -0.31063668136E+02  0.52852248511E+02  0.00000000000E+00 0. -1.
<scales pt_clust_5="13000.00000" pt_clust_6="13000.00000" pt_clust_7="13000.00000" pt_clust_8="13000.00000" pt_clust_9="42.75990"></scales>
<clustering>
<clus scale="   42.760">  2  9  1 -1</clus>
<clus scale="   78.679">  5  6 -1 -1</clus>
<clus scale="   90.023">  7  8 -1 -1</clus>
<clus scale="  143.128">  2  5  1 -1</clus>
<clus scale="   42.760">  2  5  1 -1</clus>
</clustering>
</event>
<event>
 9    1  0.8429841E-005  0.1284333E+03  0.7546771E-02  0.1233443E+00
         21   -1    0    0  501  502  0.00000000000E+00  0.00000000000E+00  0.22261004904E+03  0.22261004904E+03  0.00000000000E+00 0.  1.
          1   -1    0    0  502    0 -0.00000000000E+00 -0.00000000000E+00 -0.13021895576E+03  0.13021895576E+03  0.00000000000E+00 0. -1.
         23    2    1    2    0    0  0.84206041521E+02 -0.52796414294E+02 -0.40054087787E+02  0.14326639060E+03  0.95093690314E+02 0.  0.
        -24    2    1    2    0    0 -0.52493937056E+02  0.11522188175E+02  0.12182473553E+03  0.15643999025E+03  0.82120826311E+02 0.  0.
         11    1    4    4    0    0 -0.24717535464E+02 -0.15095719822E+02  0.29266567529E+00  0.28964166992E+02  0.00000000000E+00 0. -1.
        -12    1    4    4    0    0 -0.27776401592E+02  0.26617907997E+02  0.12153206986E+03  0.12747582326E+03  0.00000000000E+00 0.  1.
        -13    1    3    3    0    0  0.59558150627E+02 -0.61474787207E+02  0.10621242856E+02  0.86250411987E+02  0.00000000000E+00 0.  1.
         13    1    3    3    0    0  0.24647890894E+02  0.86783729123E+01 -0.50675330643E+02  0.57015978617E+02  0.00000000000E+00 0. -1.
          2    1    1    2  501    0 -0.31712104465E+02  0.41274226119E+02  0.10620445539E+02  0.53122623945E+02  0.00000000000E+00 0. -1.
<scales pt_clust_5="13000.00000" pt_clust_6="13000.00000" pt_clust_7="13000.00000" pt_clust_8="13000.00000" pt_clust_9="52.05019"></scales>
<clustering>
<clus scale="   52.050">  1  9  2 -1</clus>
<clus scale="   82.121">  5  6 -1 -1</clus>
<clus scale="   95.094">  7  8 -1 -1</clus>
<clus scale="  119.147">  1  5  2 -1</clus>
<clus scale="   52.050">  1  5  2 -1</clus>
</clustering>
</event>
<event>
 9    1  0.8429841E-005  0.1234083E+03  0.7546771E-02  0.1242689E+00
         21   -1    0    0  501  502  0.00000000000E+00  0.00000000000E+00  0.88963820126E+02  0.88963820126E+02  0.00000000000E+00 0. -1.
          1   -1    0    0  502    0 -0.00000000000E+00 -0.00000000000E+00 -0.32693286194E+03  0.32693286194E+03  0.00000000000E+00 0. -1.
         23    2    1    2    0    0  0.82259817539E+02 -0.23253132808E+02 -0.15966275420E+03  0.20342864705E+03  0.92647901193E+02 0.  0.
        -24    2    1    2    0    0 -0.79963455126E+02 -0.51601175285E+02 -0.58865828101E+02  0.13509638526E+03  0.75690238110E+02 0.  0.
         11    1    4    4    0    0 -0.88347732851E+02 -0.60758471876E+02 -0.44452961607E+02  0.11607316486E+03  0.00000000000E+00 0. -1.
        -12    1    4    4    0    0  0.83842777244E+01  0.91572965905E+01 -0.14412866493E+02  0.19023220399E+02  0.00000000000E+00 0.  1.
        -11    1    3    3    0    0 -0.88344768799E+01  0.19651876633E+02 -0.11885347823E+02  0.24607026026E+02  0.00000000000E+00 0.  1.
         11    1    3    3    0    0  0.91094294418E+02 -0.42905009442E+02 -0.14777740637E+03  0.17882162102E+03  0.00000000000E+00 0. -1.
          2    1    1    2  501    0 -0.22963624123E+01  0.74854308094E+02 -0.19440459517E+02  0.77371649761E+02  0.00000000000E+00 0. -1.
<scales pt_clust_5="13000.00000" pt_clust_6="13000.00000" pt_clust_7="13000.00000" pt_clust_8="13000.00000" pt_clust_9="74.88952"></scales>
<clustering>
<clus scale="   74.890">  1  9  2 -1</clus>
<clus scale="   75.690">  5  6 -1 -1</clus>
<clus scale="   92.648">  7  8 -1 -1</clus>
<clus scale="  111.243">  1  5  2 -1</clus>
<clus scale="   74.890">  1  5  2 -1</clus>
</clustering>
</event>
<event>
 9    1  0.8429842E-005  0.9894488E+02  0.7546771E-02  0.1287350E+00
         21   -1    0    0  501  502  0.00000000000E+00  0.00000000000E+00  0.21139860853E+03  0.21139860853E+03  0.00000000000E+00 0.  1.
         -4   -1    0    0    0  501 -0.00000000000E+00 -0.00000000000E+00 -0.23079954455E+03  0.23079954455E+03  0.00000000000E+00 0.  1.
        -24    2    1    2    0    0  0.18801491525E+02  0.33617578457E+02 -0.13498181071E+03  0.16260516124E+03  0.82077472999E+02 0.  0.
         23    2    1    2    0    0 -0.32343878750E+02 -0.12045501543E+02  0.18302620164E+03  0.20749845056E+03  0.91464724903E+02 0.  0.
         13    1    3    3    0    0 -0.22947731370E+02  0.13672851483E+02 -0.86672593245E+01  0.28083208985E+02  0.00000000000E+00 0. -1.
        -14    1    3    3    0    0  0.41749222895E+02  0.19944726974E+02 -0.12631455138E+03  0.13452195225E+03  0.00000000000E+00 0.  1.
        -11    1    4    4    0    0 -0.33127529951E+02 -0.48326192607E+02  0.13611370071E+03  0.14818837219E+03  0.00000000000E+00 0.  1.
         11    1    4    4    0    0  0.78365120104E+00  0.36280691064E+02  0.46912500927E+02  0.59310078372E+02  0.00000000000E+00 0. -1.
         -3    1    1    2    0  502  0.13542387226E+02 -0.21572076914E+02 -0.67445326950E+02  0.72094541275E+02  0.00000000000E+00 0.  1.
<scales pt_clust_5="13000.00000" pt_clust_6="13000.00000" pt_clust_7="13000.00000" pt_clust_8="13000.00000" pt_clust_9="25.47060"></scales>
<clustering>
<clus scale="   25.471">  1  9  2 -1</clus>
<clus scale="   82.077">  5  6 -1 -1</clus>
<clus scale="   90.338">  2  5  1 -1</clus>
<clus scale="   91.465">  7  8 -1 -1</clus>
<clus scale="   25.471">  1  5  2 -1</clus>
</clustering>
</event>
<event>
 9    1  0.8429841E-005  0.2214550E+03  0.7546771E-02  0.1148119E+00
          1   -1    0    0  502    0 -0.00000000000E+00  0.00000000000E+00  0.28055257511E+03  0.28055257511E+03  0.00000000000E+00 0. -1.
         21   -1    0    0  501  502  0.00000000000E+00 -0.00000000000E+00 -0.54560366785E+03  0.54560366785E+03  0.00000000000E+00 0. -1.
        -24    2    1    2    0    0  0.10963170782E+03 -0.69180086876E+02 -0.22724888580E+03  0.27400755102E+03  0.81443760589E+02 0.  0.
         23    2    1    2    0    0 -0.21221593661E+03 -0.54873795376E+02 -0.20954259766E+03  0.31676039253E+03  0.91554950009E+02 0.  0.
         13    1    3    3    0    0  0.10013339683E+03 -0.44529859059E+02 -0.11565224927E+03  0.15932685985E+03  0.00000000000E+00 0. -1.
        -14    1    3    3    0    0  0.94983109972E+01 -0.24650227817E+02 -0.11159663653E+03  0.11468069117E+03  0.00000000000E+00 0.  1.
        -13    1    4    4    0    0 -0.13496062021E+03 -0.71065461660E+02 -0.17026831186E+03  0.22859564054E+03  0.00000000000E+00 0.  1.
         13    1    4    4    0    0 -0.77255316396E+02  0.16191666284E+02 -0.39274285800E+02  0.88164751990E+02  0.00000000000E+00 0. -1.
          2    1    1    2  501    0  0.10258422878E+03  0.12405388225E+03  0.17174039071E+03  0.23538829941E+03  0.00000000000E+00 0. -1.
<scales pt_clust_5="13000.00000" pt_clust_6="13000.00000" pt_clust_7="13000.00000" pt_clust_8="13000.00000" pt_clust_9="201.64334"></scales>
<clustering>
<clus scale="   81.444">  5  6 -1 -1</clus>
<clus scale="   91.555">  7  8 -1 -1</clus>
<clus scale="  153.095">  1  5  2 -1</clus>
<clus scale="  201.643">  2  9  1 -1</clus>
<clus scale="  201.643">  2  5  1 -1</clus>
</clustering>
</event>
<event>
 9    1  0.8429841E-005  0.9793500E+02  0.7546771E-02  0.1291919E+00
         21   -1    0    0  501  502  0.00000000000E+00  0.00000000000E+00  0.60478108167E+02  0.60478108167E+02  0.00000000000E+00 0. -1.
          1   -1    0    0  502    0 -0.00000000000E+00 -0.00000000000E+00 -0.45672292115E+03  0.45672292115E+03  0.00000000000E+00 0. -1.
         23    2    1    2    0    0  0.51479578909E+02  0.33643228759E+02 -0.12792041053E+03  0.16795676664E+03  0.89798831534E+02 0.  0.
        -24    2    1    2    0    0 -0.12286986474E+01  0.57518482953E+01 -0.30057880686E+01  0.76350345187E+02  0.76064097898E+02 0.  0.
         11    1    4    4    0    0 -0.25538642789E+02  0.19207058071E+02  0.22140313624E+02  0.38875787357E+02  0.00000000000E+00 0. -1.
        -12    1    4    4    0    0  0.24309944141E+02 -0.13455209776E+02 -0.25146101692E+02  0.37474557830E+02  0.00000000000E+00 0.  1.
        -11    1    3    3    0    0  0.76979346019E+02  0.31232879920E+02 -0.10143690274E+03  0.13111352996E+03  0.00000000000E+00 0. -1.
         11    1    3    3    0    0 -0.25499767110E+02  0.24103488389E+01 -0.26483507794E+02  0.36843236683E+02  0.00000000000E+00 0.  1.
          2    1    1    2  501    0 -0.50250880262E+02 -0.39395077055E+02 -0.26531861438E+03  0.27289391748E+03  0.00000000000E+00 0. -1.
<scales pt_clust_5="13000.00000" pt_clust_6="13000.00000" pt_clust_7="13000.00000" pt_clust_8="13000.00000" pt_clust_9="63.85239"></scales>
<clustering>
<clus scale="   63.852">  1  9  2 -1</clus>
<clus scale="   76.064">  5  6 -1 -1</clus>
<clus scale="   85.517">  1  5  2 -1</clus>
<clus scale="   89.799">  7  8 -1 -1</clus>
<clus scale="   63.852">  1  5  2 -1</clus>
</clustering>
</event>
<event>
 9    1  0.8429841E-005  0.2175765E+03  0.7546771E-02  0.1162859E+00
          1   -1    0    0  502    0 -0.00000000000E+00  0.00000000000E+00  0.33153390091E+03  0.33153390091E+03  0.00000000000E+00 0. -1.
         21   -1    0    0  501  502  0.00000000000E+00 -0.00000000000E+00 -0.48630419046E+03  0.48630419046E+03  0.00000000000E+00 0.  1.
         23    2    1    2    0    0 -0.51871336824E+02  0.44764957749E+02 -0.19340424557E+03  0.22461743139E+03  0.91396122752E+02 0.  0.
        -24    2    1    2    0    0  0.20681743129E+03 -0.48191303044E+02 -0.20429187783E+03  0.30506620003E+03  0.78957985534E+02 0.  0.
         11    1    4    4    0    0  0.78123994381E+02 -0.58270948616E+02 -0.86330361894E+02  0.13019905274E+03  0.00000000000E+00 0. -1.
        -12    1    4    4    0    0  0.12869343691E+03  0.10079645573E+02 -0.11796151594E+03  0.17486714729E+03  0.00000000000E+00 0.  1.
        -13    1    3    3    0    0 -0.54312230469E+01 -0.25825074806E+02 -0.25736122832E+02  0.36861642543E+02  0.00000000000E+00 0. -1.
         13    1    3    3    0    0 -0.46440113777E+02  0.70590032555E+02 -0.16766812274E+03  0.18775578885E+03  0.00000000000E+00 0.  1.
          2    1    1    2  501    0 -0.15494609447E+03  0.34263452946E+01  0.24292583385E+03  0.28815445994E+03  0.00000000000E+00 0. -1.
<scales pt_clust_5="13000.00000" pt_clust_6="13000.00000" pt_clust_7="13000.00000" pt_clust_8="13000.00000" pt_clust_9="202.74417"></scales>
<clustering>
<clus scale="   78.958">  5  6 -1 -1</clus>
<clus scale="   91.396">  7  8 -1 -1</clus>
<clus scale="  114.227">  1  7  2 -1</clus>
<clus scale="  202.744">  2  9  1 -1</clus>
<clus scale="  202.744">  2  5  1 -1</clus>
</clustering>
</event>
<event>
 9    1  0.8429841E-005  0.1088030E+03  0.7546771E-02  0.1266353E+00
         21   -1    0    0  501  502  0.00000000000E+00  0.00000000000E+00  0.31250717567E+03  0.31250717567E+03  0.00000000000E+00 0.  1.
          1   -1    0    0  502    0 -0.00000000000E+00 -0.00000000000E+00 -0.10901107759E+03  0.10901107759E+03  0.00000000000E+00 0. -1.
        -24    2    1    2    0    0  0.59185734029E+02  0.35083455107E+02 -0.42852739881E+02  0.11489111469E+03  0.81423651262E+02 0.  0.
         23    2    1    2    0    0 -0.37398648050E+02  0.35503479125E+02  0.17700150572E+03  0.20530465889E+03  0.90339991304E+02 0.  0.
         13    1    3    3    0    0  0.41431318297E+02 -0.86489240447E+01 -0.51757478902E+02  0.66859514246E+02  0.00000000000E+00 0. -1.
        -14    1    3    3    0    0  0.17754415732E+02  0.43732379152E+02  0.89047390209E+01  0.48031600445E+02  0.00000000000E+00 0.  1.
        -11    1    4    4    0    0 -0.20761472524E+02 -0.24599579701E+02  0.24215200752E+02  0.40280938548E+02  0.00000000000E+00 0. -1.
         11    1    4    4    0    0 -0.16637175526E+02  0.60103058826E+02  0.15278630497E+03  0.16502372034E+03  0.00000000000E+00 0.  1.
          2    1    1    2  501    0 -0.21787085980E+02 -0.70586934231E+02  0.69347332238E+02  0.10132247968E+03  0.00000000000E+00 0. -1.
<scales pt_clust_5="13000.00000" pt_clust_6="13000.00000" pt_clust_7="13000.00000" pt_clust_8="13000.00000" pt_clust_9="73.87281"></scales>
<clustering>
<clus scale="   73.873">  1  9  2 -1</clus>
<clus scale="   81.424">  5  6 -1 -1</clus>
<clus scale="   90.340">  7  8 -1 -1</clus>
<clus scale="  101.521">  2  5  1 -1</clus>
<clus scale="   73.873">  1  5  2 -1</clus>
</clustering>
</event>
<event>
 9    1  0.8429841E-005  0.1398533E+03  0.7546771E-02  0.1215715E+00
          1   -1    0    0  502    0 -0.00000000000E+00  0.00000000000E+00  0.78169096203E+03  0.78169096203E+03  0.00000000000E+00 0. -1.
         21   -1    0    0  501  502  0.00000000000E+00 -0.00000000000E+00 -0.97018541313E+02  0.97018541313E+02  0.00000000000E+00 0.  1.
        -24    2    1    2    0    0  0.58203908458E+02  0.81089778308E+02  0.28652309614E+03  0.31392187571E+03  0.80549440233E+02 0.  0.
         23    2    1    2    0    0 -0.15949994072E+02 -0.16059992590E+03  0.32163223527E+02  0.18788832674E+03  0.90668692885E+02 0.  0.
         13    1    3    3    0    0  0.18357247904E+02  0.40302847466E+02  0.22781899446E+03  0.23208361059E+03  0.00000000000E+00 0. -1.
        -14    1    3    3    0    0  0.39846660553E+02  0.40786930842E+02  0.58704101676E+02  0.81838265123E+02  0.00000000000E+00 0.  1.
        -11    1    4    4    0    0  0.22286083761E+02 -0.93820075969E+02  0.50397058342E+02  0.10880597260E+03  0.00000000000E+00 0.  1.
         11    1    4    4    0    0 -0.38236077834E+02 -0.66779849927E+02 -0.18233834815E+02  0.79082354140E+02  0.00000000000E+00 0. -1.
          2    1    1    2  501    0 -0.42253914385E+02  0.79510147588E+02  0.36598610105E+03  0.37689930089E+03  0.00000000000E+00 0. -1.
<scales pt_clust_5="13000.00000" pt_clust_6="13000.00000" pt_clust_7="13000.00000" pt_clust_8="13000.00000" pt_clust_9="90.04035"></scales>
<clustering>
<clus scale="   80.549">  5  6 -1 -1</clus>
<clus scale="   90.040">  2  9  1 -1</clus>
<clus scale="   90.669">  7  8 -1 -1</clus>
<clus scale="  133.515">  1  5  2 -1</clus>
<clus scale="   90.040">  2  5  1 -1</clus>
</clustering>
</event>
<event>
 9    1  0.8429841E-005  0.1612990E+03  0.7546771E-02  0.1189424E+00
         21   -1    0    0  501  502  0.00000000000E+00  0.00000000000E+00  0.25257233568E+03  0.25257233568E+03  0.00000000000E+00 0. -1.
          1   -1    0    0  502    0 -0.00000000000E+00 -0.00000000000E+00 -0.26043605240E+03  0.26043605240E+03  0.00000000000E+00 0. -1.
         23    2    1    2    0    0  0.88118995407E+02  0.99827396794E+02  0.55723035876E+01  0.16218979419E+03  0.92433826440E+02 0.  0.
        -24    2    1    2    0    0 -0.29933929614E+02 -0.13897158572E+03  0.11878621667E+03  0.20115066359E+03  0.78372714732E+02 0.  0.
         13    1    4    4    0    0  0.21533035735E+02 -0.82771426845E+02  0.54172599646E+02  0.10123957370E+03  0.00000000000E+00 0. -1.
        -14    1    4    4    0    0 -0.51466965349E+02 -0.56200158874E+02  0.64613617022E+02  0.99911089896E+02  0.00000000000E+00 0.  1.
        -11    1    3    3    0    0  0.10248021986E+03  0.62248534557E+02 -0.68103173365E+01  0.12009769332E+03  0.00000000000E+00 0. -1.
         11    1    3    3    0    0 -0.14361224458E+02  0.37578862238E+02  0.12382620924E+02  0.42092100874E+02  0.00000000000E+00 0.  1.
          2    1    1    2  501    0 -0.58185065793E+02  0.39144188925E+02 -0.13222223698E+03  0.14966793030E+03  0.00000000000E+00 0. -1.
<scales pt_clust_5="13000.00000" pt_clust_6="13000.00000" pt_clust_7="13000.00000" pt_clust_8="13000.00000" pt_clust_9="70.12684"></scales>
<clustering>
<clus scale="   70.127">  1  9  2 -1</clus>
<clus scale="   78.373">  5  6 -1 -1</clus>
<clus scale="   92.434">  7  8 -1 -1</clus>
<clus scale="  153.674">  1  5  2 -1</clus>
<clus scale="   70.127">  1  5  2 -1</clus>
</clustering>
</event>
<event>
 9    1  0.8429841E-005  0.1381439E+03  0.7546771E-02  0.1218034E+00
          1   -1    0    0  502    0 -0.00000000000E+00  0.00000000000E+00  0.11437988488E+04  0.11437988488E+04  0.00000000000E+00 0. -1.
         21   -1    0    0  501  502  0.00000000000E+00 -0.00000000000E+00 -0.56278338922E+02  0.56278338922E+02  0.00000000000E+00 0.  1.
        -24    2    1    2    0    0 -0.38961108648E+02  0.94548416248E+02  0.95364072111E+03  0.96245234142E+03  0.80165538361E+02 0.  0.
         23    2    1    2    0    0  0.48725944070E+02 -0.11305711120E+03  0.14788127887E+03  0.21244617420E+03  0.90046522833E+02 0.  0.
         13    1    3    3    0    0 -0.11247934613E+02  0.75871671300E+02  0.37056386813E+03  0.37841856046E+03  0.00000000000E+00 0. -1.
        -14    1    3    3    0    0 -0.27713174035E+02  0.18676744948E+02  0.58307685298E+03  0.58403378096E+03  0.00000000000E+00 0.  1.
        -11    1    4    4    0    0 -0.21577306531E+02 -0.21498573325E+02  0.60264912771E+02  0.67525021462E+02  0.00000000000E+00 0. -1.
         11    1    4    4    0    0  0.70303250601E+02 -0.91558537879E+02  0.87616366096E+02  0.14492115274E+03  0.00000000000E+00 0.  1.
          2    1    1    2  501    0 -0.97648354221E+01  0.18508694956E+02 -0.14001490150E+02  0.25178672051E+02  0.00000000000E+00 0. -1.
<scales pt_clust_5="13000.00000" pt_clust_6="13000.00000" pt_clust_7="13000.00000" pt_clust_8="13000.00000" pt_clust_9="20.92663"></scales>
<clustering>
<clus scale="   20.927">  2  9  1 -1</clus>
<clus scale="   80.166">  5  6 -1 -1</clus>
<clus scale="   90.047">  7  8 -1 -1</clus>
<clus scale="  131.916">  1  5  2 -1</clus>
<clus scale="   20.927">  2  5  1 -1</clus>
</clustering>
</event>
<event>
 9    1  0.8429841E-005  0.1097310E+03  0.7546771E-02  0.1264021E+00
         -2   -1    0    0    0  501 -0.00000000000E+00  0.00000000000E+00  0.27625127689E+03  0.27625127689E+03  0.00000000000E+00 0.  1.
         21   -1    0    0  501  502  0.00000000000E+00 -0.00000000000E+00 -0.68344199844E+02  0.68344199844E+02  0.00000000000E+00 0. -1.
        -24    2    1    2    0    0 -0.51464598412E+02  0.48752798233E+02  0.13742395837E+03  0.17445145100E+03  0.80762145800E+02 0.  0.
         23    2    1    2    0    0  0.53318316614E+02 -0.24581848892E+02  0.89840252213E+02  0.13912194196E+03  0.88524198018E+02 0.  0.
         11    1    3    3    0    0 -0.23908343111E+02  0.89564545961E+00 -0.24698009432E+01  0.24052254942E+02  0.00000000000E+00 0. -1.
        -12    1    3    3    0    0 -0.27556255301E+02  0.47857152773E+02  0.13989375932E+03  0.15039919605E+03  0.00000000000E+00 0.  1.
        -11    1    4    4    0    0  0.38020558849E+02  0.19355615715E+02  0.81308109849E+02  0.91821628618E+02  0.00000000000E+00 0.  1.
         11    1    4    4    0    0  0.15297757764E+02 -0.43937464606E+02  0.85321423645E+01  0.47300313339E+02  0.00000000000E+00 0. -1.
         -1    1    1    2    0  502 -0.18537182015E+01 -0.24170949341E+02 -0.19357133541E+02  0.31022083781E+02  0.00000000000E+00 0.  1.
<scales pt_clust_5="13000.00000" pt_clust_6="13000.00000" pt_clust_7="13000.00000" pt_clust_8="13000.00000" pt_clust_9="24.24193"></scales>
<clustering>
<clus scale="   24.242">  2  9  1 -1</clus>
<clus scale="   80.762">  5  6 -1 -1</clus>
<clus scale="   88.524">  7  8 -1 -1</clus>
<clus scale="  103.571">  1  5  2 -1</clus>
<clus scale="   24.242">  2  5  1 -1</clus>
</clustering>
</event>
<event>
 9    1  0.8429841E-005  0.1008650E+03  0.7546771E-02  0.1284628E+00
          1   -1    0    0  502    0 -0.00000000000E+00  0.00000000000E+00  0.54077237117E+02  0.54077237117E+02  0.00000000000E+00 0. -1.
         21   -1    0    0  501  502  0.00000000000E+00 -0.00000000000E+00 -0.41846875341E+03  0.41846875341E+03  0.00000000000E+00 0. -1.
        -24    2    1    2    0    0 -0.37019132006E+02  0.74455087068E+01 -0.11162043323E+02  0.88066784420E+02  0.78773825427E+02 0.  0.
         23    2    1    2    0    0  0.65183675917E+02 -0.20071437797E+02 -0.22016584046E+03  0.24788277161E+03  0.91220046794E+02 0.  0.
         13    1    3    3    0    0 -0.51046859415E+02  0.25838618441E+02  0.83305526002E+01  0.57817075036E+02  0.00000000000E+00 0. -1.
        -14    1    3    3    0    0  0.14027727409E+02 -0.18393109734E+02 -0.19492595923E+02  0.30249709384E+02  0.00000000000E+00 0.  1.
        -11    1    4    4    0    0 -0.22353911282E+02 -0.11937495314E+02 -0.38965547438E+02  0.46481340677E+02  0.00000000000E+00 0. -1.
         11    1    4    4    0    0  0.87537587199E+02 -0.81339424830E+01 -0.18120029302E+03  0.20140143094E+03  0.00000000000E+00 0.  1.
          2    1    1    2  501    0 -0.28164543910E+02  0.12625929090E+02 -0.13306363251E+03  0.13659643449E+03  0.00000000000E+00 0. -1.
<scales pt_clust_5="13000.00000" pt_clust_6="13000.00000" pt_clust_7="13000.00000" pt_clust_8="13000.00000" pt_clust_9="30.86512"></scales>
<clustering>
<clus scale="   30.865">  2  9  1 -1</clus>
<clus scale="   78.774">  5  6 -1 -1</clus>
<clus scale="   89.766">  1  5  2 -1</clus>
<clus scale="   91.220">  7  8 -1 -1</clus>
<clus scale="   30.865">  2  5  1 -1</clus>
</clustering>
</event>
<event>
 9    1  0.8429841E-005  0.4341148E+03  0.7546771E-02  0.1032568E+00
          1   -1    0    0  502    0 -0.00000000000E+00  0.00000000000E+00  0.12737526383E+04  0.12737526383E+04  0.00000000000E+00 0. -1.
         21   -1    0    0  501  502  0.00000000000E+00 -0.00000000000E+00 -0.12250983724E+03  0.12250983724E+03  0.00000000000E+00 0. -1.
        -24    2    1    2    0    0 -0.29781269905E+03  0.11746722280E+03  0.41239868476E+03  0.52825267092E+03  0.80543509965E+02 0.  0.
         23    2    1    2    0    0 -0.36512740641E+02  0.41422996517E+01  0.20525245486E+03  0.22669674788E+03  0.88952270345E+02 0.  0.
         11    1    3    3    0    0 -0.25531041765E+03  0.74080989267E+02  0.36317398418E+03  0.45007415513E+03  0.00000000000E+00 0. -1.
        -12    1    3    3    0    0 -0.42502281397E+02  0.43386233531E+02  0.49224700580E+02  0.78178515790E+02  0.00000000000E+00 0.  1.
        -11    1    4    4    0    0 -0.24011614753E+02 -0.41963183772E+02  0.97440365240E+02  0.10877541640E+03  0.00000000000E+00 0.  1.
         11    1    4    4    0    0 -0.12501125889E+02  0.46105483424E+02  0.10781208962E+03  0.11792133148E+03  0.00000000000E+00 0. -1.
          2    1    1    2  501    0  0.33432543969E+03 -0.12160952245E+03  0.53359166141E+03  0.64131305671E+03  0.00000000000E+00 0. -1.
<scales pt_clust_5="13000.00000" pt_clust_6="13000.00000" pt_clust_7="13000.00000" pt_clust_8="13000.00000" pt_clust_9="355.75624"></scales>
<clustering>
<clus scale="   80.544">  5  6 -1 -1</clus>
<clus scale="   88.952">  7  8 -1 -1</clus>
<clus scale="   96.120">  5  7 -1 -1</clus>
<clus scale="  355.756">  2  9  1 -1</clus>
<clus scale="  355.756">  2  5  1 -1</clus>
</clustering>
</event>
<event>
 9    1  0.8429841E-005  0.1001616E+03  0.7546771E-02  0.1289435E+00
          1   -1    0    0  502    0 -0.00000000000E+00  0.00000000000E+00  0.16941279036E+03  0.16941279036E+03  0.00000000000E+00 0. -1.
         21   -1    0    0  501  502  0.00000000000E+00 -0.00000000000E+00 -0.10446272125E+03  0.10446272125E+03  0.00000000000E+00 0.  1.
         23    2    1    2    0    0 -0.20837160261E+02  0.47487801145E+02  0.61777725591E+02  0.11934291947E+03  0.87960028096E+02 0.  0.
        -24    2    1    2    0    0  0.62817731688E+02 -0.34078232119E+01 -0.40844450724E+01  0.93229461619E+02  0.68683106720E+02 0.  0.
         13    1    4    4    0    0  0.50118455990E+02  0.19378981213E+02  0.20376665519E+02  0.57468365571E+02  0.00000000000E+00 0. -1.
        -14    1    4    4    0    0  0.12699275698E+02 -0.22786804425E+02 -0.24461110591E+02  0.35761096048E+02  0.00000000000E+00 0.  1.
        -11    1    3    3    0    0  0.54965732805E+01 -0.24680363905E+02  0.15565581732E+02  0.29692086739E+02  0.00000000000E+00 0.  1.
         11    1    3    3    0    0 -0.26333733542E+02  0.72168165050E+02  0.46212143859E+02  0.89650832729E+02  0.00000000000E+00 0. -1.
          2    1    1    2  501    0 -0.41980571427E+02 -0.44079977934E+02  0.72567885865E+01  0.61303130528E+02  0.00000000000E+00 0. -1.
<scales pt_clust_5="13000.00000" pt_clust_6="13000.00000" pt_clust_7="13000.00000" pt_clust_8="13000.00000" pt_clust_9="60.87210"></scales>
<clustering>
<clus scale="   60.872">  2  9  1 -1</clus>
<clus scale="   68.683">  5  6 -1 -1</clus>
<clus scale="   83.742">  2  5  1 -1</clus>
<clus scale="   87.960">  7  8 -1 -1</clus>
<clus scale="   60.872">  2  5  1 -1</clus>
</clustering>
</event>
<event>
 9    1  0.8429841E-005  0.1492623E+03  0.7546771E-02  0.1223309E+00
          1   -1    0    0  502    0 -0.00000000000E+00  0.00000000000E+00  0.16923781856E+03  0.16923781856E+03  0.00000000000E+00 0. -1.
         21   -1    0    0  501  502  0.00000000000E+00 -0.00000000000E+00 -0.64069392979E+03  0.64069392979E+03  0.00000000000E+00 0. -1.
         23    2    1    2    0    0 -0.57504549535E+00  0.73173342328E+01  0.11776872818E+03  0.15044994276E+03  0.93337226678E+02 0.  0.
        -24    2    1    2    0    0  0.82431654107E+02  0.92105836075E+02 -0.43009272688E+03  0.45476614814E+03  0.80956983241E+02 0.  0.
         11    1    4    4    0    0  0.94874044882E+02  0.75719777072E+02 -0.30990000444E+03  0.33282515197E+03  0.00000000000E+00 0. -1.
        -12    1    4    4    0    0 -0.12442390775E+02  0.16386059003E+02 -0.12019272244E+03  0.12194099616E+03  0.00000000000E+00 0.  1.
        -11    1    3    3    0    0  0.19626120951E+02  0.13658577864E+02  0.12561446557E+03  0.12786999388E+03  0.00000000000E+00 0. -1.
         11    1    3    3    0    0 -0.20201166446E+02 -0.63412436310E+01 -0.78457373951E+01  0.22579948889E+02  0.00000000000E+00 0.  1.
          2    1    1    2  501    0 -0.81856608612E+02 -0.99423170308E+02 -0.15913211253E+03  0.20471565745E+03  0.00000000000E+00 0. -1.
<scales pt_clust_5="13000.00000" pt_clust_6="13000.00000" pt_clust_7="13000.00000" pt_clust_8="13000.00000" pt_clust_9="125.40020"></scales>
<clustering>
<clus scale="   80.957">  5  6 -1 -1</clus>
<clus scale="   93.337">  7  8 -1 -1</clus>
<clus scale="   93.625">  1  7  2 -1</clus>
<clus scale="  125.400">  2  9  1 -1</clus>
<clus scale="  125.400">  2  5  1 -1</clus>
</clustering>
</event>
<event>
 9    1  0.8429841E-005  0.9788749E+02  0.7546771E-02  0.1290391E+00
         21   -1    0    0  501  502  0.00000000000E+00  0.00000000000E+00  0.70310828092E+02  0.70310828092E+02  0.00000000000E+00 0.  1.
         -2   -1    0    0    0  501 -0.00000000000E+00 -0.00000000000E+00 -0.28503732929E+03  0.28503732929E+03  0.00000000000E+00 0.  1.
        -24    2    1    2    0    0 -0.95939701336E+01  0.15546309092E+02 -0.44643918845E+02  0.94540917606E+02  0.81309123859E+02 0.  0.
         23    2    1    2    0    0 -0.50594408437E+02 -0.50993410960E+02 -0.61758696608E+02  0.13191502834E+03  0.91800413774E+02 0.  0.
         13    1    3    3    0    0 -0.24357950746E+02  0.44538436219E+02 -0.25823846318E+02  0.56954833895E+02  0.00000000000E+00 0. -1.
        -14    1    3    3    0    0  0.14763980613E+02 -0.28992127126E+02 -0.18820072527E+02  0.37586083711E+02  0.00000000000E+00 0.  1.
        -11    1    4    4    0    0 -0.48066981084E+02 -0.23184200101E+02  0.10552614766E+02  0.54399443777E+02  0.00000000000E+00 0.  1.
         11    1    4    4    0    0 -0.25274273524E+01 -0.27809210859E+02 -0.72311311374E+02  0.77515584564E+02  0.00000000000E+00 0. -1.
         -1    1    1    2    0  502  0.60188378570E+02  0.35447101868E+02 -0.10832388574E+03  0.12889221143E+03  0.00000000000E+00 0.  1.
<scales pt_clust_5="13000.00000" pt_clust_6="13000.00000" pt_clust_7="13000.00000" pt_clust_8="13000.00000" pt_clust_9="69.85086"></scales>
<clustering>
<clus scale="   69.851">  1  9  2 -1</clus>
<clus scale="   81.309">  5  6 -1 -1</clus>
<clus scale="   88.124">  2  5  1 -1</clus>
<clus scale="   91.800">  7  8 -1 -1</clus>
<clus scale="   69.851">  1  5  2 -1</clus>
</clustering>
</event>
<event>
 9    1  0.8429841E-005  0.1698342E+03  0.7546771E-02  0.1182615E+00
          1   -1    0    0  502    0 -0.00000000000E+00  0.00000000000E+00  0.93852109840E+03  0.93852109840E+03  0.00000000000E+00 0. -1.
         21   -1    0    0  501  502  0.00000000000E+00 -0.00000000000E+00 -0.39539353407E+02  0.39539353407E+02  0.00000000000E+00 0.  1.
         23    2    1    2    0    0 -0.11597231861E+03 -0.50961425663E+02  0.57442098207E+03  0.59873327002E+03  0.11169341251E+03 0.  0.
        -24    2    1    2    0    0  0.10686632883E+03  0.78727601137E+02  0.21760182410E+03  0.26844844557E+03  0.84235186599E+02 0.  0.
         11    1    4    4    0    0  0.41263500129E+02  0.37722150104E+02  0.16673897947E+03  0.17586223110E+03  0.00000000000E+00 0. -1.
        -12    1    4    4    0    0  0.65602828697E+02  0.41005451033E+02  0.50862844633E+02  0.92586214479E+02  0.00000000000E+00 0.  1.
        -11    1    3    3    0    0 -0.89057048469E+02  0.18802362263E+02  0.37105936898E+03  0.38205986706E+03  0.00000000000E+00 0.  1.
         11    1    3    3    0    0 -0.26915270144E+02 -0.69763787926E+02  0.20336161309E+03  0.21667340296E+03  0.00000000000E+00 0. -1.
          2    1    1    2  501    0  0.91059897874E+01 -0.27766175474E+02  0.10695893881E+03  0.11087873620E+03  0.00000000000E+00 0. -1.
<scales pt_clust_5="13000.00000" pt_clust_6="13000.00000" pt_clust_7="13000.00000" pt_clust_8="13000.00000" pt_clust_9="29.22123"></scales>
<clustering>
<clus scale="   29.221">  2  9  1 -1</clus>
<clus scale="   84.235">  5  6 -1 -1</clus>
<clus scale="  111.693">  7  8 -1 -1</clus>
<clus scale="  153.179">  2  5  1 -1</clus>
<clus scale="   29.221">  2  5  1 -1</clus>
</clustering>
</event>
<event>
 9    1  0.8429841E-005  0.1229046E+03  0.7546771E-02  0.1241600E+00
         -4   -1    0    0    0  501 -0.00000000000E+00  0.00000000000E+00  0.66086263868E+03  0.66086263868E+03  0.00000000000E+00 0.  1.
         21   -1    0    0  501  502  0.00000000000E+00 -0.00000000000E+00 -0.45145592926E+02  0.45145592926E+02  0.00000000000E+00 0. -1.
        -24    2    1    2    0    0 -0.42970766454E+02 -0.80096387546E+02  0.38381175101E+03  0.40281460399E+03  0.81769351866E+02 0.  0.
         23    2    1    2    0    0  0.17060012620E+02  0.66851384535E+02  0.24537995557E+03  0.27112551646E+03  0.92398979635E+02 0.  0.
         11    1    3    3    0    0 -0.50953230109E+02 -0.15487976592E+02  0.22418507436E+03  0.23042364602E+03  0.00000000000E+00 0. -1.
        -12    1    3    3    0    0  0.79824636549E+01 -0.64608410954E+02  0.15962667665E+03  0.17239095797E+03  0.00000000000E+00 0.  1.
        -11    1    4    4    0    0  0.48684594675E+02  0.67304546238E+02  0.16454764105E+03  0.18432584701E+03  0.00000000000E+00 0.  1.
         11    1    4    4    0    0 -0.31624582055E+02 -0.45316170350E+00  0.80832314522E+02  0.86799669450E+02  0.00000000000E+00 0. -1.
         -3    1    1    2    0  502  0.25910753835E+02  0.13245003011E+02 -0.13474660822E+02  0.32068111159E+02  0.00000000000E+00 0.  1.
<scales pt_clust_5="13000.00000" pt_clust_6="13000.00000" pt_clust_7="13000.00000" pt_clust_8="13000.00000" pt_clust_9="29.09978"></scales>
<clustering>
<clus scale="   29.100">  2  9  1 -1</clus>
<clus scale="   81.769">  5  6 -1 -1</clus>
<clus scale="   92.399">  7  8 -1 -1</clus>
<clus scale="  115.127">  1  5  2 -1</clus>
<clus scale="   29.100">  2  5  1 -1</clus>
</clustering>
</event>
<event>
 9    1  0.8429841E-005  0.1416499E+03  0.7546771E-02  0.1232887E+00
         21   -1    0    0  501  502  0.00000000000E+00  0.00000000000E+00  0.22117992313E+03  0.22117992313E+03  0.00000000000E+00 0.  1.
         -2   -1    0    0    0  501 -0.00000000000E+00 -0.00000000000E+00 -0.14521599653E+03  0.14521599653E+03  0.00000000000E+00 0.  1.
        -24    2    1    2    0    0 -0.22751121892E+02  0.32395326456E+02 -0.10946520788E+02  0.90497230207E+02  0.80640260629E+02 0.  0.
         23    2    1    2    0    0 -0.62783024043E+02 -0.93571204990E+02  0.89374568739E+02  0.17071004876E+03  0.91961017282E+02 0.  0.
         11    1    3    3    0    0 -0.41753215272E+02 -0.10381200077E+02 -0.50124965244E+01  0.43315417832E+02  0.00000000000E+00 0. -1.
        -12    1    3    3    0    0  0.19002093380E+02  0.42776526533E+02 -0.59340242636E+01  0.47181812375E+02  0.00000000000E+00 0.  1.
        -11    1    4    4    0    0 -0.85261518484E+02 -0.86119875431E+02  0.80161103279E+02  0.14529955938E+03  0.00000000000E+00 0.  1.
         11    1    4    4    0    0  0.22478494442E+02 -0.74513295596E+01  0.92134654598E+01  0.25410489376E+02  0.00000000000E+00 0. -1.
         -1    1    1    2    0  502  0.85534145935E+02  0.61175878535E+02 -0.24641213537E+01  0.10518864069E+03  0.00000000000E+00 0.  1.
<scales pt_clust_5="13000.00000" pt_clust_6="13000.00000" pt_clust_7="13000.00000" pt_clust_8="13000.00000" pt_clust_9="107.73981"></scales>
<clustering>
<clus scale="   80.640">  5  6 -1 -1</clus>
<clus scale="   89.833">  2  5  1 -1</clus>
<clus scale="   91.961">  7  8 -1 -1</clus>
<clus scale="  107.740">  1  9  2 -1</clus>
<clus scale="  107.740">  1  5  2 -1</clus>
</clustering>
</event>
<event>
 9    1  0.8429841E-005  0.9150106E+02  0.7546771E-02  0.1303895E+00
          3   -1    0    0  502    0 -0.00000000000E+00  0.00000000000E+00  0.92334106510E+02  0.92334106510E+02  0.00000000000E+00 0. -1.
         21   -1    0    0  501  502  0.00000000000E+00 -0.00000000000E+00 -0.16919248778E+03  0.16919248778E+03  0.00000000000E+00 0.  1.
        -24    2    1    2    0    0  0.40508050683E+01 -0.61753218556E+01  0.31794290891E+02  0.89808024356E+02  0.83666365307E+02 0.  0.
         23    2    1    2    0    0  0.31406298947E+02  0.72958590275E+01 -0.70909154990E+02  0.11992054954E+03  0.91176996918E+02 0.  0.
         11    1    3    3    0    0  0.39322597715E+02 -0.10780005480E+02  0.35476566129E+02  0.54046849617E+02  0.00000000000E+00 0. -1.
        -12    1    3    3    0    0 -0.35271792647E+02  0.46046836242E+01 -0.36822752379E+01  0.35761174739E+02  0.00000000000E+00 0.  1.
        -11    1    4    4    0    0 -0.29371225554E+02 -0.25159333728E+01 -0.43459004758E+02  0.52513654470E+02  0.00000000000E+00 0.  1.
         11    1    4    4    0    0  0.60777524501E+02  0.98117924003E+01 -0.27450150232E+02  0.67406895065E+02  0.00000000000E+00 0. -1.
          4    1    1    2  501    0 -0.35457104016E+02 -0.11205371719E+01 -0.37743517173E+02  0.51798020400E+02  0.00000000000E+00 0. -1.
<scales pt_clust_5="13000.00000" pt_clust_6="13000.00000" pt_clust_7="13000.00000" pt_clust_8="13000.00000" pt_clust_9="35.47481"></scales>
<clustering>
<clus scale="   35.475">  2  9  1 -1</clus>
<clus scale="   83.666">  5  6 -1 -1</clus>
<clus scale="   84.019">  1  5  2 -1</clus>
<clus scale="   91.177">  7  8 -1 -1</clus>
<clus scale="   35.475">  2  5  1 -1</clus>
</clustering>
</event>
<event>
 9    1  0.8429841E-005  0.1172326E+03  0.7546771E-02  0.1252862E+00
         21   -1    0    0  501  502  0.00000000000E+00  0.00000000000E+00  0.24281653229E+03  0.24281653229E+03  0.00000000000E+00 0.  1.
          1   -1    0    0  502    0 -0.00000000000E+00 -0.00000000000E+00 -0.11238230765E+03  0.11238230765E+03  0.00000000000E+00 0. -1.
         23    2    1    2    0    0 -0.49461117903E+02 -0.39249281431E+02  0.32576382044E+02  0.11906196988E+03  0.95538598105E+02 0.  0.
        -24    2    1    2    0    0  0.92726707657E+02 -0.13520082486E+02  0.11129990952E+03  0.16658684355E+03  0.81132432723E+02 0.  0.
         13    1    4    4    0    0 -0.55338645854E+00  0.20925905539E+02  0.60431411247E+01  0.21788054384E+02  0.00000000000E+00 0. -1.
        -14    1    4    4    0    0  0.93280094116E+02 -0.34445988025E+02  0.10525676840E+03  0.14479878916E+03  0.00000000000E+00 0.  1.
        -11    1    3    3    0    0  0.99176755445E+01 -0.47776698053E+02 -0.37386373785E+01  0.48938232237E+02  0.00000000000E+00 0.  1.
         11    1    3    3    0    0 -0.59378793448E+02  0.85274166217E+01  0.36315019423E+02  0.70123737644E+02  0.00000000000E+00 0. -1.
          2    1    1    2  501    0 -0.43265589754E+02  0.52769363917E+02 -0.13442066926E+02  0.69550026515E+02  0.00000000000E+00 0. -1.
<scales pt_clust_5="13000.00000" pt_clust_6="13000.00000" pt_clust_7="13000.00000" pt_clust_8="13000.00000" pt_clust_9="68.23871"></scales>
<clustering>
<clus scale="   68.239">  1  9  2 -1</clus>
<clus scale="   81.132">  5  6 -1 -1</clus>
<clus scale="   95.539">  7  8 -1 -1</clus>
<clus scale="  105.822">  1  5  2 -1</clus>
<clus scale="   68.239">  1  5  2 -1</clus>
</clustering>
</event>
<event>
 9    1  0.8429841E-005  0.1397680E+03  0.7546771E-02  0.1213790E+00
         -2   -1    0    0    0  501 -0.00000000000E+00  0.00000000000E+00  0.34543587866E+03  0.34543587866E+03  0.00000000000E+00 0.  1.
         21   -1    0    0  501  502  0.00000000000E+00 -0.00000000000E+00 -0.92357871986E+02  0.92357871986E+02  0.00000000000E+00 0. -1.
         23    2    1    2    0    0 -0.93971618638E+02 -0.16558670452E+02  0.12614080941E+03  0.17813337738E+03  0.81945967932E+02 0.  0.
        -24    2    1    2    0    0  0.13767634658E+03  0.54083200585E+02  0.99065438911E+02  0.19566796341E+03  0.81192497962E+02 0.  0.
         11    1    4    4    0    0  0.13957517667E+03  0.52251509810E+02  0.10947951585E+03  0.18492488911E+03  0.00000000000E+00 0. -1.
        -12    1    4    4    0    0 -0.18988300961E+01  0.18316907743E+01 -0.10414076942E+02  0.10743074298E+02  0.00000000000E+00 0.  1.
        -11    1    3    3    0    0 -0.59553152423E+02  0.26787059919E+02  0.92952228800E+02  0.11359683702E+03  0.00000000000E+00 0.  1.
         11    1    3    3    0    0 -0.34418466215E+02 -0.43345730371E+02  0.33188580614E+02  0.64536540356E+02  0.00000000000E+00 0. -1.
         -1    1    1    2    0  502 -0.43704727939E+02 -0.37524530133E+02  0.27871758347E+02  0.63992409857E+02  0.00000000000E+00 0.  1.
<scales pt_clust_5="13000.00000" pt_clust_6="13000.00000" pt_clust_7="13000.00000" pt_clust_8="13000.00000" pt_clust_9="57.60376"></scales>
<clustering>
<clus scale="   57.604">  2  9  1 -1</clus>
<clus scale="   81.192">  5  6 -1 -1</clus>
<clus scale="   81.946">  7  8 -1 -1</clus>
<clus scale="  139.328">  2  5  1 -1</clus>
<clus scale="   57.604">  2  5  1 -1</clus>
</clustering>
</event>
<event>
 9    1  0.8429841E-005  0.9164634E+02  0.7546771E-02  0.1305062E+00
         21   -1    0    0  501  502  0.00000000000E+00  0.00000000000E+00  0.15080721766E+03  0.15080721766E+03  0.00000000000E+00 0.  1.
         -2   -1    0    0    0  501 -0.00000000000E+00 -0.00000000000E+00 -0.22322489176E+03  0.22322489176E+03  0.00000000000E+00 0.  1.
        -24    2    1    2    0    0  0.23128425602E+02  0.20794824826E+02 -0.99272933100E+02  0.13008035793E+03  0.78092480188E+02 0.  0.
         23    2    1    2    0    0  0.50234181991E+02 -0.31459901719E+02 -0.65974234356E+02  0.12515305244E+03  0.88303388833E+02 0.  0.
         11    1    3    3    0    0  0.18067401270E+02  0.21940605590E+02  0.21698880948E+01  0.28504904432E+02  0.00000000000E+00 0. -1.
        -12    1    3    3    0    0  0.50610243324E+01 -0.11457807647E+01 -0.10144282119E+03  0.10157545350E+03  0.00000000000E+00 0.  1.
        -11    1    4    4    0    0 -0.80571713999E+01 -0.30772145962E+02 -0.58221408192E+02  0.66344369392E+02  0.00000000000E+00 0. -1.
         11    1    4    4    0    0  0.58291353391E+02 -0.68775575717E+00 -0.77528261636E+01  0.58808683047E+02  0.00000000000E+00 0.  1.
         -1    1    1    2    0  502 -0.73362607594E+02  0.10665076894E+02  0.92829493359E+02  0.11879869905E+03  0.00000000000E+00 0.  1.
<scales pt_clust_5="13000.00000" pt_clust_6="13000.00000" pt_clust_7="13000.00000" pt_clust_8="13000.00000" pt_clust_9="74.13377"></scales>
<clustering>
<clus scale="   74.134">  1  9  2 -1</clus>
<clus scale="   78.092">  5  6 -1 -1</clus>
<clus scale="   81.854">  2  5  1 -1</clus>
<clus scale="   88.303">  7  8 -1 -1</clus>
<clus scale="   74.134">  1  5  2 -1</clus>
</clustering>
</event>
<event>
 9    1  0.8429841E-005  0.9921803E+02  0.7546771E-02  0.1285252E+00
          1   -1    0    0  502    0 -0.00000000000E+00  0.00000000000E+00  0.41802298926E+03  0.41802298926E+03  0.00000000000E+00 0. -1.
         21   -1    0    0  501  502  0.00000000000E+00 -0.00000000000E+00 -0.52141886195E+02  0.52141886195E+02  0.00000000000E+00 0. -1.
         23    2    1    2    0    0 -0.75389766231E+02  0.35115451749E+02  0.21780305337E+03  0.24951931535E+03  0.88910105575E+02 0.  0.
        -24    2    1    2    0    0  0.71458846264E+01  0.54498198051E+01  0.90638181012E+02  0.12265521799E+03  0.82147784148E+02 0.  0.
         13    1    4    4    0    0  0.34270839097E+01 -0.29352435417E+02  0.47784787420E+01  0.29935668159E+02  0.00000000000E+00 0. -1.
        -14    1    4    4    0    0  0.37188007168E+01  0.34802255222E+02  0.85859702270E+02  0.92719549833E+02  0.00000000000E+00 0.  1.
        -13    1    3    3    0    0  0.12655061011E+02  0.24807091986E+02  0.88260847539E+02  0.92550092330E+02  0.00000000000E+00 0.  1.
         13    1    3    3    0    0 -0.88044827242E+02  0.10308359763E+02  0.12954220583E+03  0.15696922302E+03  0.00000000000E+00 0. -1.
          2    1    1    2  501    0  0.68243881605E+02 -0.40565271555E+02  0.57439868690E+02  0.97990342115E+02  0.00000000000E+00 0. -1.
<scales pt_clust_5="13000.00000" pt_clust_6="13000.00000" pt_clust_7="13000.00000" pt_clust_8="13000.00000" pt_clust_9="79.38998"></scales>
<clustering>
<clus scale="   79.390">  2  9  1 -1</clus>
<clus scale="   82.148">  5  6 -1 -1</clus>
<clus scale="   88.910">  7  8 -1 -1</clus>
<clus scale="   93.207">  2  5  1 -1</clus>
<clus scale="   79.390">  2  5  1 -1</clus>
</clustering>
</event>
<event>
 9    1  0.8429841E-005  0.1142750E+03  0.7546771E-02  0.1260050E+00
         21   -1    0    0  501  502  0.00000000000E+00  0.00000000000E+00  0.21271469809E+03  0.21271469809E+03  0.00000000000E+00 0. -1.
          1   -1    0    0  502    0 -0.00000000000E+00 -0.00000000000E+00 -0.53619663677E+03  0.53619663677E+03  0.00000000000E+00 0. -1.
        -24    2    1    2    0    0 -0.65782336363E+01 -0.66480013752E+02 -0.48162601262E+03  0.49162456411E+03  0.72582577926E+02 0.  0.
         23    2    1    2    0    0 -0.27819651353E+02  0.82007924404E+02  0.39100726122E+02  0.13240422930E+03  0.92210522648E+02 0.  0.
         13    1    3    3    0    0  0.37184672026E+01 -0.80675720530E+02 -0.37877253880E+03  0.38728676072E+03  0.00000000000E+00 0. -1.
        -14    1    3    3    0    0 -0.10296700839E+02  0.14195706779E+02 -0.10285347382E+03  0.10433780339E+03  0.00000000000E+00 0.  1.
        -13    1    4    4    0    0 -0.23782754579E+02  0.30903256581E+02 -0.27967642974E+02  0.47987704011E+02  0.00000000000E+00 0. -1.
         13    1    4    4    0    0 -0.40368967742E+01  0.51104667823E+02  0.67068369096E+02  0.84416525290E+02  0.00000000000E+00 0.  1.
          2    1    1    2  501    0  0.34397884990E+02 -0.15527910652E+02  0.11904334781E+03  0.12488254145E+03  0.00000000000E+00 0. -1.
<scales pt_clust_5="13000.00000" pt_clust_6="13000.00000" pt_clust_7="13000.00000" pt_clust_8="13000.00000" pt_clust_9="37.74030"></scales>
<clustering>
<clus scale="   37.740">  1  9  2 -1</clus>
<clus scale="   72.583">  5  6 -1 -1</clus>
<clus scale="   92.211">  7  8 -1 -1</clus>
<clus scale="   99.117">  2  5  1 -1</clus>
<clus scale="   37.740">  1  5  2 -1</clus>
</clustering>
</event>
<event>
 9    1  0.8429841E-005  0.1552532E+03  0.7546771E-02  0.1214964E+00
         -2   -1    0    0    0  501 -0.00000000000E+00  0.00000000000E+00  0.18173859639E+03  0.18173859639E+03  0.00000000000E+00 0.  1.
         21   -1    0    0  501  502  0.00000000000E+00 -0.00000000000E+00 -0.23206487804E+03  0.23206487804E+03  0.00000000000E+00 0.  1.
        -24    2    1    2    0    0 -0.25280790395E+02  0.48738400074E+02 -0.62176803449E+02  0.11704089386E+03  0.82571580727E+02 0.  0.
         23    2    1    2    0    0 -0.80425803735E+00 -0.15773595028E+03  0.25770533992E+02  0.18382603890E+03  0.90810876635E+02 0.  0.
         11    1    3    3    0    0  0.50461230358E+01  0.51245241679E+02 -0.68762690353E+02  0.85906028526E+02  0.00000000000E+00 0. -1.
        -12    1    3    3    0    0 -0.30326913431E+02 -0.25068416058E+01  0.65858869045E+01  0.31134865334E+02  0.00000000000E+00 0.  1.
        -11    1    4    4    0    0 -0.85182136499E+00 -0.22509748418E+02 -0.30029766266E+02  0.37539329182E+02  0.00000000000E+00 0.  1.
         11    1    4    4    0    0  0.47563327638E-01 -0.13522620186E+03  0.55800300258E+02  0.14628670972E+03  0.00000000000E+00 0. -1.
         -1    1    1    2    0  502  0.26085048432E+02  0.10899755021E+03 -0.13920012197E+02  0.11293654166E+03  0.00000000000E+00 0.  1.
<scales pt_clust_5="13000.00000" pt_clust_6="13000.00000" pt_clust_7="13000.00000" pt_clust_8="13000.00000" pt_clust_9="125.92431"></scales>
<clustering>
<clus scale="   82.572">  5  6 -1 -1</clus>
<clus scale="   90.811">  7  8 -1 -1</clus>
<clus scale="   99.160">  1  5  2 -1</clus>
<clus scale="  125.924">  2  9  1 -1</clus>
<clus scale="  125.924">  2  5  1 -1</clus>
</clustering>
</event>
<event>
 9    1  0.8429841E-005  0.1154052E+03  0.7546771E-02  0.1254313E+00
         21   -1    0    0  501  502  0.00000000000E+00  0.00000000000E+00  0.26174224478E+03  0.26174224478E+03  0.00000000000E+00 0.  1.
         -2   -1    0    0    0  501 -0.00000000000E+00 -0.00000000000E+00 -0.32393295448E+03  0.32393295448E+03  0.00000000000E+00 0.  1.
         23    2    1    2    0    0  0.37182590594E+02 -0.69424210465E+02 -0.27591054342E+03  0.30088051563E+03  0.90554904218E+02 0.  0.
        -24    2    1    2    0    0 -0.51927388419E+02 -0.12790375301E+02  0.73141894337E+02  0.12127464139E+03  0.80608650707E+02 0.  0.
         13    1    4    4    0    0  0.20021644477E+02  0.36424087964E+01  0.28505998115E+02  0.35024638727E+02  0.00000000000E+00 0. -1.
        -14    1    4    4    0    0 -0.71949032896E+02 -0.16432784097E+02  0.44635896222E+02  0.86250002663E+02  0.00000000000E+00 0.  1.
        -13    1    3    3    0    0 -0.97782440182E+01 -0.67184161020E+02 -0.20367908745E+03  0.21469628831E+03  0.00000000000E+00 0.  1.
         13    1    3    3    0    0  0.46960834613E+02 -0.22400494452E+01 -0.72231455962E+02  0.86184227324E+02  0.00000000000E+00 0. -1.
         -1    1    1    2    0  502  0.14744797824E+02  0.82214585766E+02  0.14057793938E+03  0.16352004224E+03  0.00000000000E+00 0.  1.
<scales pt_clust_5="13000.00000" pt_clust_6="13000.00000" pt_clust_7="13000.00000" pt_clust_8="13000.00000" pt_clust_9="83.52633"></scales>
<clustering>
<clus scale="   80.609">  5  6 -1 -1</clus>
<clus scale="   83.526">  1  9  2 -1</clus>
<clus scale="   90.555">  7  8 -1 -1</clus>
<clus scale="  107.777">  1  5  2 -1</clus>
<clus scale="   83.526">  1  5  2 -1</clus>
</clustering>
</event>
<event>
 9    1  0.8429841E-005  0.9893145E+02  0.7546771E-02  0.1287945E+00
          1   -1    0    0  502    0 -0.00000000000E+00  0.00000000000E+00  0.41809559237E+03  0.41809559237E+03  0.00000000000E+00 0. -1.
         21   -1    0    0  501  502  0.00000000000E+00 -0.00000000000E+00 -0.10244409751E+03  0.10244409751E+03  0.00000000000E+00 0. -1.
        -24    2    1    2    0    0 -0.30409709392E+02 -0.17535361954E+02  0.31434281141E+03  0.32658745908E+03  0.81337113304E+02 0.  0.
         23    2    1    2    0    0  0.77656626890E+01  0.80393798894E+02  0.21610300031E+02  0.12412321403E+03  0.91739297880E+02 0.  0.
         11    1    3    3    0    0  0.74974804841E+01  0.25937475955E+02  0.60131606630E+02  0.65914907179E+02  0.00000000000E+00 0. -1.
        -12    1    3    3    0    0 -0.37907189876E+02 -0.43472837909E+02  0.25421120478E+03  0.26067255191E+03  0.00000000000E+00 0.  1.
        -13    1    4    4    0    0 -0.15780114901E+02  0.58044818341E+02  0.52106649489E+02  0.79582132942E+02  0.00000000000E+00 0.  1.
         13    1    4    4    0    0  0.23545777590E+02  0.22348980553E+02 -0.30496349458E+02  0.44541081086E+02  0.00000000000E+00 0. -1.
          2    1    1    2  501    0  0.22644046703E+02 -0.62858436941E+02 -0.20301616586E+02  0.69829016760E+02  0.00000000000E+00 0. -1.
<scales pt_clust_5="13000.00000" pt_clust_6="13000.00000" pt_clust_7="13000.00000" pt_clust_8="13000.00000" pt_clust_9="66.81269"></scales>
<clustering>
<clus scale="   66.813">  2  9  1 -1</clus>
<clus scale="   81.337">  5  6 -1 -1</clus>
<clus scale="   89.370">  1  5  2 -1</clus>
<clus scale="   91.739">  7  8 -1 -1</clus>
<clus scale="   66.813">  2  5  1 -1</clus>
</clustering>
</event>
<event>
 9    1  0.8429841E-005  0.3707576E+03  0.7546771E-02  0.1054690E+00
          1   -1    0    0  502    0 -0.00000000000E+00  0.00000000000E+00  0.46134224100E+03  0.46134224100E+03  0.00000000000E+00 0. -1.
         21   -1    0    0  501  502  0.00000000000E+00 -0.00000000000E+00 -0.80537339618E+03  0.80537339618E+03  0.00000000000E+00 0. -1.
         23    2    1    2    0    0  0.20723311028E+03  0.31972145587E+03  0.28017887043E+03  0.48185948190E+03  0.92309206031E+02 0.  0.
        -24    2    1    2    0    0 -0.24780428940E+03 -0.14814026956E+03 -0.38959612553E+03  0.49137735504E+03  0.79461051520E+02 0.  0.
         13    1    4    4    0    0 -0.13782899264E+03 -0.52709082623E+02 -0.24606445768E+03  0.28691949382E+03  0.00000000000E+00 0. -1.
        -14    1    4    4    0    0 -0.10997529676E+03 -0.95431186935E+02 -0.14353166785E+03  0.20445786122E+03  0.00000000000E+00 0.  1.
        -13    1    3    3    0    0  0.38202992936E+02  0.13914767164E+03  0.11370109667E+03  0.18371032245E+03  0.00000000000E+00 0.  1.
         13    1    3    3    0    0  0.16903011735E+03  0.18057378424E+03  0.16647777376E+03  0.29814915945E+03  0.00000000000E+00 0. -1.
          2    1    1    2  501    0  0.40571179118E+02 -0.17158118632E+03 -0.23461390008E+03  0.29347880023E+03  0.00000000000E+00 0. -1.
<scales pt_clust_5="13000.00000" pt_clust_6="13000.00000" pt_clust_7="13000.00000" pt_clust_8="13000.00000" pt_clust_9="176.31257"></scales>
<clustering>
<clus scale="   79.461">  5  6 -1 -1</clus>
<clus scale="   92.309">  7  8 -1 -1</clus>
<clus scale="  176.313">  2  9  1 -1</clus>
<clus scale="  367.769">  2  5  1 -1</clus>
<clus scale="  176.313">  2  5  1 -1</clus>
</clustering>
</event>
<event>
 9    1  0.8429841E-005  0.9839856E+02  0.7546771E-02  0.1287835E+00
         21   -1    0    0  501  502  0.00000000000E+00  0.00000000000E+00  0.66055798070E+02  0.66055798070E+02  0.00000000000E+00 0. -1.
          1   -1    0    0  502    0 -0.00000000000E+00 -0.00000000000E+00 -0.82369246899E+03  0.82369246899E+03  0.00000000000E+00 0. -1.
        -24    2    1    2    0    0 -0.24492405697E+02  0.13405917701E+02 -0.55672072458E+03  0.56364416011E+03  0.83529500718E+02 0.  0.
         23    2    1    2    0    0  0.89250224074E+02  0.16051517228E+02 -0.21773847877E+03  0.25299929786E+03  0.91516915806E+02 0.  0.
         13    1    3    3    0    0  0.30213076041E+02  0.13475553391E+02 -0.18827844578E+03  0.19116274127E+03  0.00000000000E+00 0. -1.
        -14    1    3    3    0    0 -0.54705481738E+02 -0.69635689673E-01 -0.36844227880E+03  0.37248141885E+03  0.00000000000E+00 0.  1.
        -13    1    4    4    0    0  0.29004562120E+02 -0.28418117262E+02 -0.13696042075E+03  0.14285310939E+03  0.00000000000E+00 0.  1.
         13    1    4    4    0    0  0.60245661953E+02  0.44469634489E+02 -0.80778058026E+02  0.11014618847E+03  0.00000000000E+00 0. -1.
          2    1    1    2  501    0 -0.64757818377E+02 -0.29457434929E+02  0.16822532431E+02  0.73104809082E+02  0.00000000000E+00 0. -1.
<scales pt_clust_5="13000.00000" pt_clust_6="13000.00000" pt_clust_7="13000.00000" pt_clust_8="13000.00000" pt_clust_9="71.14292"></scales>
<clustering>
<clus scale="   71.143">  1  9  2 -1</clus>
<clus scale="   83.530">  5  6 -1 -1</clus>
<clus scale="   91.017">  2  5  1 -1</clus>
<clus scale="   91.517">  7  8 -1 -1</clus>
<clus scale="   71.143">  1  5  2 -1</clus>
</clustering>
</event>
<event>
 9    1  0.8429841E-005  0.9637697E+02  0.7546771E-02  0.1294661E+00
         21   -1    0    0  501  502  0.00000000000E+00  0.00000000000E+00  0.31478639050E+03  0.31478639050E+03  0.00000000000E+00 0.  1.
          1   -1    0    0  502    0 -0.00000000000E+00 -0.00000000000E+00 -0.94520319315E+02  0.94520319315E+02  0.00000000000E+00 0. -1.
         23    2    1    2    0    0  0.19931643967E+02  0.17931225859E+02 -0.51308538974E+02  0.10889687052E+03  0.92234282916E+02 0.  0.
        -24    2    1    2    0    0 -0.45290995182E+02  0.17891009875E+01  0.16529668928E+03  0.18938288558E+03  0.80550647030E+02 0.  0.
         11    1    4    4    0    0 -0.43859800815E+02  0.14533102629E+02  0.33764579044E+02  0.57227091465E+02  0.00000000000E+00 0. -1.
        -12    1    4    4    0    0 -0.14311943672E+01 -0.12744001642E+02  0.13153211023E+03  0.13215579411E+03  0.00000000000E+00 0.  1.
        -11    1    3    3    0    0  0.26840190089E+02 -0.25465398250E+02  0.51474425668E+01  0.37354765118E+02  0.00000000000E+00 0.  1.
         11    1    3    3    0    0 -0.69085461215E+01  0.43396624108E+02 -0.56455981541E+02  0.71542105401E+02  0.00000000000E+00 0. -1.
          2    1    1    2  501    0  0.25359351214E+02 -0.19720326846E+02  0.10627792088E+03  0.11102695372E+03  0.00000000000E+00 0. -1.
<scales pt_clust_5="13000.00000" pt_clust_6="13000.00000" pt_clust_7="13000.00000" pt_clust_8="13000.00000" pt_clust_9="32.12457"></scales>
<clustering>
<clus scale="   32.125">  1  9  2 -1</clus>
<clus scale="   80.551">  5  6 -1 -1</clus>
<clus scale="   85.263">  1  5  2 -1</clus>
<clus scale="   92.234">  7  8 -1 -1</clus>
<clus scale="   32.125">  1  5  2 -1</clus>
</clustering>
</event>
<event>
 9    1  0.8429841E-005  0.9351757E+02  0.7546771E-02  0.1301454E+00
         21   -1    0    0  501  502  0.00000000000E+00  0.00000000000E+00  0.54612492539E+02  0.54612492539E+02  0.00000000000E+00 0. -1.
          1   -1    0    0  502    0 -0.00000000000E+00 -0.00000000000E+00 -0.31581038390E+03  0.31581038390E+03  0.00000000000E+00 0. -1.
         23    2    1    2    0    0  0.12847925636E+02 -0.22464899460E+01 -0.21343073615E+03  0.23249511082E+03  0.91275306148E+02 0.  0.
        -24    2    1    2    0    0 -0.33662637009E+02  0.30861009671E+02 -0.45295542196E+02  0.10245732977E+03  0.79751133114E+02 0.  0.
         11    1    4    4    0    0 -0.24312988695E+02  0.57384355816E+02 -0.39371853177E+02  0.73717220066E+02  0.00000000000E+00 0. -1.
        -12    1    4    4    0    0 -0.93496483134E+01 -0.26523346145E+02 -0.59236890194E+01  0.28740109706E+02  0.00000000000E+00 0.  1.
        -11    1    3    3    0    0  0.48621883287E+02 -0.14109029730E+02 -0.87998819327E+02  0.10152312277E+03  0.00000000000E+00 0.  1.
         11    1    3    3    0    0 -0.35773957651E+02  0.11862539784E+02 -0.12543191682E+03  0.13097198805E+03  0.00000000000E+00 0. -1.
          2    1    1    2  501    0  0.20814711373E+02 -0.28614519725E+02 -0.24716130214E+01  0.35470435852E+02  0.00000000000E+00 0. -1.
<scales pt_clust_5="13000.00000" pt_clust_6="13000.00000" pt_clust_7="13000.00000" pt_clust_8="13000.00000" pt_clust_9="35.38422"></scales>
<clustering>
<clus scale="   35.384">  1  9  2 -1</clus>
<clus scale="   79.751">  5  6 -1 -1</clus>
<clus scale="   82.308">  1  5  2 -1</clus>
<clus scale="   91.275">  7  8 -1 -1</clus>
<clus scale="   35.384">  1  5  2 -1</clus>
</clustering>
</event>
<event>
 9    1  0.8429841E-005  0.1103095E+03  0.7546771E-02  0.1287470E+00
         21   -1    0    0  501  502  0.00000000000E+00  0.00000000000E+00  0.11621680172E+03  0.11621680172E+03  0.00000000000E+00 0. -1.
          1   -1    0    0  502    0 -0.00000000000E+00 -0.00000000000E+00 -0.45265127213E+03  0.45265127213E+03  0.00000000000E+00 0. -1.
         23    2    1    2    0    0 -0.24971781824E+02 -0.65811625819E+01 -0.40928142111E+03  0.42371816396E+03  0.10657813667E+03 0.  0.
        -24    2    1    2    0    0  0.36146584347E+02  0.39203950315E+02  0.19322402688E+02  0.81478882493E+02  0.58497245801E+02 0.  0.
         13    1    4    4    0    0  0.36398285139E+02 -0.33867434325E+01  0.94899943365E+01  0.37767250160E+02  0.00000000000E+00 0. -1.
        -14    1    4    4    0    0 -0.25170079186E+00  0.42590693748E+02  0.98324083517E+01  0.43711632333E+02  0.00000000000E+00 0.  1.
        -13    1    3    3    0    0 -0.59063374807E+02  0.16946045208E+02 -0.16751583670E+03  0.17842983561E+03  0.00000000000E+00 0. -1.
         13    1    3    3    0    0  0.34091592984E+02 -0.23527207790E+02 -0.24176558441E+03  0.24528832834E+03  0.00000000000E+00 0.  1.
          2    1    1    2  501    0 -0.11174802523E+02 -0.32622787733E+02  0.53524548004E+02  0.63671027398E+02  0.00000000000E+00 0. -1.
<scales pt_clust_5="13000.00000" pt_clust_6="13000.00000" pt_clust_7="13000.00000" pt_clust_8="13000.00000" pt_clust_9="34.48366"></scales>
<clustering>
<clus scale="   34.484">  1  9  2 -1</clus>
<clus scale="   58.497">  5  6 -1 -1</clus>
<clus scale="   65.048">  1  5  2 -1</clus>
<clus scale="  106.578">  7  8 -1 -1</clus>
<clus scale="   34.484">  1  5  2 -1</clus>
</clustering>
</event>
<event>
 9    1  0.8429841E-005  0.4154683E+03  0.7546771E-02  0.1038551E+00
          1   -1    0    0  502    0 -0.00000000000E+00  0.00000000000E+00  0.66864550216E+03  0.66864550216E+03  0.00000000000E+00 0. -1.
         21   -1    0    0  501  502  0.00000000000E+00 -0.00000000000E+00 -0.22763337586E+03  0.22763337586E+03  0.00000000000E+00 0. -1.
        -24    2    1    2    0    0 -0.18979126310E+03 -0.72609746727E+02  0.11898159304E+03  0.24875501862E+03  0.80184418311E+02 0.  0.
         23    2    1    2    0    0 -0.15905132815E+03  0.41004160780E+02  0.20539198100E+03  0.27834284905E+03  0.91160350862E+02 0.  0.
         13    1    3    3    0    0 -0.48138150577E+02 -0.49023222245E+02  0.12150798525E+02  0.69772485731E+02  0.00000000000E+00 0. -1.
        -14    1    3    3    0    0 -0.14165311252E+03 -0.23586524482E+02  0.10683079451E+03  0.17898253289E+03  0.00000000000E+00 0.  1.
        -13    1    4    4    0    0 -0.48411536595E+02  0.38443606003E+01  0.82748500908E+01  0.49263872441E+02  0.00000000000E+00 0.  1.
         13    1    4    4    0    0 -0.11063979155E+03  0.37159800180E+02  0.19711713091E+03  0.22907897661E+03  0.00000000000E+00 0. -1.
          2    1    1    2  501    0  0.34884259124E+03  0.31605585947E+02  0.11663855226E+03  0.36918101035E+03  0.00000000000E+00 0. -1.
<scales pt_clust_5="13000.00000" pt_clust_6="13000.00000" pt_clust_7="13000.00000" pt_clust_8="13000.00000" pt_clust_9="350.27142"></scales>
<clustering>
<clus scale="   80.184">  5  6 -1 -1</clus>
<clus scale="   91.160">  7  8 -1 -1</clus>
<clus scale="  157.010">  5  7 -1 -1</clus>
<clus scale="  350.271">  2  9  1 -1</clus>
<clus scale="  350.271">  2  5  1 -1</clus>
</clustering>
</event>
<event>
 9    1  0.8429841E-005  0.9958986E+02  0.7546771E-02  0.1287198E+00
         21   -1    0    0  501  502  0.00000000000E+00  0.00000000000E+00  0.38719304467E+03  0.38719304467E+03  0.00000000000E+00 0.  1.
         -4   -1    0    0    0  501 -0.00000000000E+00 -0.00000000000E+00 -0.40345126534E+03  0.40345126534E+03  0.00000000000E+00 0.  1.
        -24    2    1    2    0    0  0.25818511336E+01 -0.48488616434E+02 -0.32738363448E+03  0.34021782796E+03  0.78805548393E+02 0.  0.
         23    2    1    2    0    0 -0.95187841690E+01  0.44951554459E+01 -0.37658658047E+02  0.98810392503E+02  0.90744175935E+02 0.  0.
         11    1    3    3    0    0  0.27316484272E+02  0.55113902426E+01 -0.57778196921E+02  0.64147375432E+02  0.00000000000E+00 0. -1.
        -12    1    3    3    0    0 -0.24734633138E+02 -0.54000006677E+02 -0.26960543756E+03  0.27607045253E+03  0.00000000000E+00 0.  1.
        -11    1    4    4    0    0 -0.41097463355E+02  0.77989964726E+01 -0.49603283365E+02  0.64886913633E+02  0.00000000000E+00 0.  1.
         11    1    4    4    0    0  0.31578679186E+02 -0.33038410267E+01  0.11944625318E+02  0.33923478870E+02  0.00000000000E+00 0. -1.
         -3    1    1    2    0  502  0.69369330354E+01  0.43993460988E+02  0.34878407186E+03  0.35161608955E+03  0.00000000000E+00 0.  1.
<scales pt_clust_5="13000.00000" pt_clust_6="13000.00000" pt_clust_7="13000.00000" pt_clust_8="13000.00000" pt_clust_9="44.53701"></scales>
<clustering>
<clus scale="   44.537">  1  9  2 -1</clus>
<clus scale="   78.806">  5  6 -1 -1</clus>
<clus scale="   88.848">  2  5  1 -1</clus>
<clus scale="   90.744">  7  8 -1 -1</clus>
<clus scale="   44.537">  1  5  2 -1</clus>
</clustering>
</event>
<event>
 9    1  0.8429841E-005  0.1774369E+03  0.7546771E-02  0.1172185E+00
         21   -1    0    0  501  502  0.00000000000E+00  0.00000000000E+00  0.15770134518E+04  0.15770134518E+04  0.00000000000E+00 0.  1.
         -4   -1    0    0    0  501 -0.00000000000E+00 -0.00000000000E+00 -0.28296538793E+02  0.28296538793E+02  0.00000000000E+00 0.  1.
         23    2    1    2    0    0  0.29767106422E+02  0.15222522277E+03  0.63593426392E+03  0.66080123560E+03  0.90483622068E+02 0.  0.
        -24    2    1    2    0    0  0.12887641091E+02 -0.15215636253E+03  0.85996731348E+03  0.87661993484E+03  0.74840363164E+02 0.  0.
         13    1    4    4    0    0 -0.10165927665E+02 -0.12761497420E+03  0.76976973841E+03  0.78034247475E+03  0.00000000000E+00 0. -1.
        -14    1    4    4    0    0  0.23053568756E+02 -0.24541388337E+02  0.90197575072E+02  0.96277460097E+02  0.00000000000E+00 0.  1.
        -11    1    3    3    0    0 -0.23625195238E+01  0.12023987608E+03  0.55643910495E+03  0.56928699864E+03  0.00000000000E+00 0.  1.
         11    1    3    3    0    0  0.32129625945E+02  0.31985346690E+02  0.79495158969E+02  0.91514236957E+02  0.00000000000E+00 0. -1.
         -3    1    1    2    0  502 -0.42654747512E+02 -0.68860234031E-01  0.52815335608E+02  0.67888820158E+02  0.00000000000E+00 0.  1.
<scales pt_clust_5="13000.00000" pt_clust_6="13000.00000" pt_clust_7="13000.00000" pt_clust_8="13000.00000" pt_clust_9="42.65482"></scales>
<clustering>
<clus scale="   42.655">  1  9  2 -1</clus>
<clus scale="   74.840">  5  6 -1 -1</clus>
<clus scale="   90.484">  7  8 -1 -1</clus>
<clus scale="  169.993">  1  5  2 -1</clus>
<clus scale="   42.655">  1  5  2 -1</clus>
</clustering>
</event>
<event>
 9    1  0.8429841E-005  0.1490043E+03  0.7546771E-02  0.1204048E+00
         21   -1    0    0  501  502  0.00000000000E+00  0.00000000000E+00  0.63232049700E+02  0.63232049700E+02  0.00000000000E+00 0.  1.
          1   -1    0    0  502    0 -0.00000000000E+00 -0.00000000000E+00 -0.56368961250E+03  0.56368961250E+03  0.00000000000E+00 0. -1.
        -24    2    1    2    0    0  0.10828407883E+03 -0.75395340295E+02 -0.30176134226E+03  0.33874149861E+03  0.79221184842E+02 0.  0.
         23    2    1    2    0    0 -0.54165527984E+02  0.89494137098E+02 -0.18338523794E+03  0.23019723675E+03  0.91747028925E+02 0.  0.
         13    1    3    3    0    0  0.63734164843E+02 -0.36950460802E+02 -0.24912741023E+03  0.25979192991E+03  0.00000000000E+00 0. -1.
        -14    1    3    3    0    0  0.44549913987E+02 -0.38444879493E+02 -0.52633932040E+02  0.78949568697E+02  0.00000000000E+00 0.  1.
        -13    1    4    4    0    0 -0.23304348733E+02  0.99258137783E+02 -0.10996621075E+03  0.14995945483E+03  0.00000000000E+00 0.  1.
         13    1    4    4    0    0 -0.30861179250E+02 -0.97640006848E+01 -0.73419027191E+02  0.80237781922E+02  0.00000000000E+00 0. -1.
          2    1    1    2  501    0 -0.54118550846E+02 -0.14098796803E+02 -0.15310982594E+02  0.57982926840E+02  0.00000000000E+00 0. -1.
<scales pt_clust_5="13000.00000" pt_clust_6="13000.00000" pt_clust_7="13000.00000" pt_clust_8="13000.00000" pt_clust_9="55.92489"></scales>
<clustering>
<clus scale="   55.925">  1  9  2 -1</clus>
<clus scale="   79.221">  5  6 -1 -1</clus>
<clus scale="   91.747">  7  8 -1 -1</clus>
<clus scale="  141.636">  2  5  1 -1</clus>
<clus scale="   55.925">  1  5  2 -1</clus>
</clustering>
</event>
<event>
 9    1  0.8429841E-005  0.9517582E+02  0.7546771E-02  0.1296543E+00
         21   -1    0    0  501  502  0.00000000000E+00  0.00000000000E+00  0.12551443909E+03  0.12551443909E+03  0.00000000000E+00 0. -1.
          1   -1    0    0  502    0 -0.00000000000E+00 -0.00000000000E+00 -0.37281404898E+03  0.37281404898E+03  0.00000000000E+00 0. -1.
         23    2    1    2    0    0  0.24638168703E+02 -0.14220941524E+02 -0.26538108635E+03  0.28185677071E+03  0.90591631330E+02 0.  0.
        -24    2    1    2    0    0 -0.36350339804E+02 -0.69723247465E+01 -0.77656532469E+02  0.11771901695E+03  0.80357136585E+02 0.  0.
         11    1    4    4    0    0 -0.32841289127E+02 -0.31387218701E+02 -0.80958596854E+02  0.92833195430E+02  0.00000000000E+00 0. -1.
        -12    1    4    4    0    0 -0.35090506765E+01  0.24414893954E+02  0.33020643850E+01  0.24885821518E+02  0.00000000000E+00 0.  1.
        -13    1    3    3    0    0 -0.97866068423E+01 -0.32038145605E+02 -0.35810963037E+02  0.49037185084E+02  0.00000000000E+00 0. -1.
         13    1    3    3    0    0  0.34424775545E+02  0.17817204081E+02 -0.22957012331E+03  0.23281958562E+03  0.00000000000E+00 0.  1.
          2    1    1    2  501    0  0.11712171101E+02  0.21193266270E+02  0.95738008926E+02  0.98752700419E+02  0.00000000000E+00 0. -1.
<scales pt_clust_5="13000.00000" pt_clust_6="13000.00000" pt_clust_7="13000.00000" pt_clust_8="13000.00000" pt_clust_9="24.21424"></scales>
<clustering>
<clus scale="   24.214">  1  9  2 -1</clus>
<clus scale="   80.357">  5  6 -1 -1</clus>
<clus scale="   85.492">  1  5  2 -1</clus>
<clus scale="   90.592">  7  8 -1 -1</clus>
<clus scale="   24.214">  1  5  2 -1</clus>
</clustering>
</event>
<event>
 9    1  0.8429841E-005  0.1095327E+03  0.7546771E-02  0.1269203E+00
         21   -1    0    0  501  502  0.00000000000E+00  0.00000000000E+00  0.29123289592E+03  0.29123289592E+03  0.00000000000E+00 0.  1.
         -2   -1    0    0    0  501 -0.00000000000E+00 -0.00000000000E+00 -0.35940031701E+03  0.35940031701E+03  0.00000000000E+00 0.  1.
         23    2    1    2    0    0  0.45542686748E+02  0.24764172659E+02 -0.26620150204E+03  0.28614621944E+03  0.91263457349E+02 0.  0.
        -24    2    1    2    0    0 -0.12251432190E+03 -0.22509731255E+02 -0.83951644043E+01  0.14416280403E+03  0.72083203370E+02 0.  0.
         11    1    4    4    0    0 -0.69984365462E+01 -0.24170580678E+02  0.10192426379E+02  0.27149229085E+02  0.00000000000E+00 0. -1.
        -12    1    4    4    0    0 -0.11551588535E+03  0.16608494230E+01 -0.18587590783E+02  0.11701357494E+03  0.00000000000E+00 0.  1.
        -13    1    3    3    0    0 -0.15025934782E+02  0.37195337257E+02 -0.13964758861E+03  0.14529528841E+03  0.00000000000E+00 0.  1.
         13    1    3    3    0    0  0.60568621530E+02 -0.12431164597E+02 -0.12655391343E+03  0.14085093103E+03  0.00000000000E+00 0. -1.
         -1    1    1    2    0  502  0.76971635152E+02 -0.22544414043E+01  0.20642924536E+03  0.22032418947E+03  0.00000000000E+00 0.  1.
<scales pt_clust_5="13000.00000" pt_clust_6="13000.00000" pt_clust_7="13000.00000" pt_clust_8="13000.00000" pt_clust_9="77.00464"></scales>
<clustering>
<clus scale="   72.083">  5  6 -1 -1</clus>
<clus scale="   77.005">  1  9  2 -1</clus>
<clus scale="   91.263">  7  8 -1 -1</clus>
<clus scale="   94.151">  1  5  2 -1</clus>
<clus scale="   77.005">  1  5  2 -1</clus>
</clustering>
</event>
<event>
 9    1  0.8429841E-005  0.3343436E+03  0.7546771E-02  0.1119218E+00
          3   -1    0    0  502    0 -0.00000000000E+00  0.00000000000E+00  0.18370815997E+03  0.18370815997E+03  0.00000000000E+00 0. -1.
         21   -1    0    0  501  502  0.00000000000E+00 -0.00000000000E+00 -0.78503056117E+03  0.78503056117E+03  0.00000000000E+00 0.  1.
        -24    2    1    2    0    0 -0.84946803167E+01  0.38315568349E+02 -0.11557466393E+03  0.14651810599E+03  0.81054364899E+02 0.  0.
         23    2    1    2    0    0 -0.31512760429E+03 -0.66070916583E+02 -0.19441868859E+03  0.38590151512E+03  0.86316741652E+02 0.  0.
         11    1    3    3    0    0  0.17689903075E+02  0.17704600468E+02  0.12251416618E+01  0.25057663910E+02  0.00000000000E+00 0. -1.
        -12    1    3    3    0    0 -0.26184583392E+02  0.20610967881E+02 -0.11679980559E+03  0.12146044208E+03  0.00000000000E+00 0.  1.
        -11    1    4    4    0    0 -0.21800442089E+03 -0.36919148690E+02 -0.17652475115E+03  0.28293097893E+03  0.00000000000E+00 0.  1.
         11    1    4    4    0    0 -0.97123183402E+02 -0.29151767892E+02 -0.17893937437E+02  0.10297053619E+03  0.00000000000E+00 0. -1.
          4    1    1    2  501    0  0.32362228461E+03  0.27755348234E+02 -0.29132904868E+03  0.43631910004E+03  0.00000000000E+00 0. -1.
<scales pt_clust_5="13000.00000" pt_clust_6="13000.00000" pt_clust_7="13000.00000" pt_clust_8="13000.00000" pt_clust_9="323.00936"></scales>
<clustering>
<clus scale="   81.054">  5  6 -1 -1</clus>
<clus scale="   86.317">  7  8 -1 -1</clus>
<clus scale="   90.056">  1  5  2 -1</clus>
<clus scale="  323.009">  2  9  1 -1</clus>
<clus scale="  323.009">  2  5  1 -1</clus>
</clustering>
</event>
<event>
 9    1  0.8429841E-005  0.1930866E+03  0.7546771E-02  0.1156740E+00
          1   -1    0    0  502    0 -0.00000000000E+00  0.00000000000E+00  0.11662338917E+04  0.11662338917E+04  0.00000000000E+00 0. -1.
         21   -1    0    0  501  502  0.00000000000E+00 -0.00000000000E+00 -0.79227824098E+02  0.79227824098E+02  0.00000000000E+00 0. -1.
         23    2    1    2    0    0 -0.68167129224E+02 -0.10604459210E+03  0.27802895128E+03  0.31802114833E+03  0.89135514904E+02 0.  0.
        -24    2    1    2    0    0 -0.11006386858E+02  0.23774663423E+03  0.68683696075E+03  0.73114463997E+03  0.78631235932E+02 0.  0.
         13    1    4    4    0    0  0.73198888830E+01  0.54464488085E+02  0.26827600298E+03  0.27384662680E+03  0.00000000000E+00 0. -1.
        -14    1    4    4    0    0 -0.18326275741E+02  0.18328214614E+03  0.41856095777E+03  0.45729801316E+03  0.00000000000E+00 0.  1.
        -11    1    3    3    0    0  0.99087594146E+00 -0.25457545360E+02  0.14781765611E+03  0.14999709300E+03  0.00000000000E+00 0.  1.
         11    1    3    3    0    0 -0.69158005166E+02 -0.80587046737E+02  0.13021129517E+03  0.16802405533E+03  0.00000000000E+00 0. -1.
          2    1    1    2  501    0  0.79173516082E+02 -0.13170204213E+03  0.12214015558E+03  0.19629592751E+03  0.00000000000E+00 0. -1.
<scales pt_clust_5="13000.00000" pt_clust_6="13000.00000" pt_clust_7="13000.00000" pt_clust_8="13000.00000" pt_clust_9="153.66806"></scales>
<clustering>
<clus scale="   78.631">  5  6 -1 -1</clus>
<clus scale="   89.136">  7  8 -1 -1</clus>
<clus scale="  153.668">  2  9  1 -1</clus>
<clus scale="  188.468">  2  5  1 -1</clus>
<clus scale="  153.668">  2  5  1 -1</clus>
</clustering>
</event>
<event>
 9    1  0.8429841E-005  0.4093360E+03  0.7546771E-02  0.1083167E+00
         21   -1    0    0  501  502  0.00000000000E+00  0.00000000000E+00  0.79896890464E+03  0.79896890464E+03  0.00000000000E+00 0.  1.
         -2   -1    0    0    0  501 -0.00000000000E+00 -0.00000000000E+00 -0.50005633694E+03  0.50005633694E+03  0.00000000000E+00 0.  1.
         23    2    1    2    0    0 -0.63950186333E+02 -0.55504121861E+02 -0.23254163148E+03  0.26392780376E+03  0.91716636155E+02 0.  0.
        -24    2    1    2    0    0 -0.35048894021E+03 -0.29259651160E+02  0.64171394580E+01  0.36085074638E+03  0.80457796921E+02 0.  0.
         13    1    4    4    0    0 -0.46556516025E+02  0.85659036770E+01  0.25889767841E+02  0.53955203355E+02  0.00000000000E+00 0. -1.
        -14    1    4    4    0    0 -0.30393242419E+03 -0.37825554837E+02 -0.19472628383E+02  0.30689554302E+03  0.00000000000E+00 0.  1.
        -11    1    3    3    0    0  0.20106198264E+02 -0.15728160669E+02 -0.21754574107E+02  0.33539465429E+02  0.00000000000E+00 0. -1.
         11    1    3    3    0    0 -0.84056384597E+02 -0.39775961192E+02 -0.21078705738E+03  0.23038833833E+03  0.00000000000E+00 0.  1.
         -1    1    1    2    0  502  0.41443912654E+03  0.84763773021E+02  0.52503705973E+03  0.67424669144E+03  0.00000000000E+00 0.  1.
<scales pt_clust_5="13000.00000" pt_clust_6="13000.00000" pt_clust_7="13000.00000" pt_clust_8="13000.00000" pt_clust_9="401.35086"></scales>
<clustering>
<clus scale="   80.458">  5  6 -1 -1</clus>
<clus scale="   91.717">  7  8 -1 -1</clus>
<clus scale="  124.829">  2  7  1 -1</clus>
<clus scale="  401.351">  1  9  2 -1</clus>
<clus scale="  401.351">  1  5  2 -1</clus>
</clustering>
</event>
<event>
 9    1  0.8429841E-005  0.1367541E+03  0.7546771E-02  0.1220171E+00
         21   -1    0    0  501  502  0.00000000000E+00  0.00000000000E+00  0.10279016319E+03  0.10279016319E+03  0.00000000000E+00 0.  1.
          1   -1    0    0  502    0 -0.00000000000E+00 -0.00000000000E+00 -0.35472109595E+03  0.35472109595E+03  0.00000000000E+00 0. -1.
         23    2    1    2    0    0  0.10991589640E+03 -0.18258767510E+02 -0.21674384281E+03  0.25993107009E+03  0.90395690884E+02 0.  0.
        -24    2    1    2    0    0 -0.89767117403E+02  0.55527263495E+01 -0.81662074312E+02  0.14535623910E+03  0.79817126779E+02 0.  0.
         13    1    4    4    0    0 -0.75732249575E+02  0.24076477362E+02 -0.23727288391E+02  0.82933917081E+02  0.00000000000E+00 0. -1.
        -14    1    4    4    0    0 -0.14034867828E+02 -0.18523751013E+02 -0.57934785920E+02  0.62422322018E+02  0.00000000000E+00 0.  1.
        -11    1    3    3    0    0  0.67083145126E+02 -0.50720058471E+02 -0.95146296546E+02  0.12698618207E+03  0.00000000000E+00 0.  1.
         11    1    3    3    0    0  0.42832751275E+02  0.32461290962E+02 -0.12159754626E+03  0.13294488802E+03  0.00000000000E+00 0. -1.
          2    1    1    2  501    0 -0.20148778998E+02  0.12706041160E+02  0.46474984360E+02  0.52223949950E+02  0.00000000000E+00 0. -1.
<scales pt_clust_5="13000.00000" pt_clust_6="13000.00000" pt_clust_7="13000.00000" pt_clust_8="13000.00000" pt_clust_9="23.82051"></scales>
<clustering>
<clus scale="   23.821">  1  9  2 -1</clus>
<clus scale="   79.817">  5  6 -1 -1</clus>
<clus scale="   90.396">  7  8 -1 -1</clus>
<clus scale="  130.004">  1  5  2 -1</clus>
<clus scale="   23.821">  1  5  2 -1</clus>
</clustering>
</event>
<event>
 9    1  0.8429841E-005  0.1255423E+03  0.7546771E-02  0.1238431E+00
          1   -1    0    0  502    0 -0.00000000000E+00  0.00000000000E+00  0.10420414130E+04  0.10420414130E+04  0.00000000000E+00 0. -1.
         21   -1    0    0  501  502  0.00000000000E+00 -0.00000000000E+00 -0.31895250078E+02  0.31895250078E+02  0.00000000000E+00 0. -1.
        -24    2    1    2    0    0  0.11288227927E+03 -0.25925053484E+02  0.66468868378E+03  0.67944941863E+03  0.80162015662E+02 0.  0.
         23    2    1    2    0    0 -0.21212818881E+02  0.18008274295E+02  0.17543664320E+03  0.20116613848E+03  0.94422020022E+02 0.  0.
         11    1    3    3    0    0  0.10048693307E+03 -0.43261718552E+02  0.62399025222E+03  0.63350851208E+03  0.00000000000E+00 0. -1.
        -12    1    3    3    0    0  0.12395346197E+02  0.17336665068E+02  0.40698431564E+02  0.45940906552E+02  0.00000000000E+00 0.  1.
        -13    1    4    4    0    0 -0.45103982781E+02 -0.88820643477E+01  0.15058521487E+03  0.15744575977E+03  0.00000000000E+00 0.  1.
         13    1    4    4    0    0  0.23891163901E+02  0.26890338643E+02  0.24851428325E+02  0.43720378711E+02  0.00000000000E+00 0. -1.
          2    1    1    2  501    0 -0.91669460385E+02  0.79167791893E+01  0.17002083593E+03  0.19332110596E+03  0.00000000000E+00 0. -1.
<scales pt_clust_5="13000.00000" pt_clust_6="13000.00000" pt_clust_7="13000.00000" pt_clust_8="13000.00000" pt_clust_9="92.01068"></scales>
<clustering>
<clus scale="   80.162">  5  6 -1 -1</clus>
<clus scale="   92.011">  2  9  1 -1</clus>
<clus scale="   94.422">  7  8 -1 -1</clus>
<clus scale="  115.201">  1  5  2 -1</clus>
<clus scale="   92.011">  2  5  1 -1</clus>
</clustering>
</event>
<event>
 9    1  0.8429841E-005  0.1074776E+03  0.7546771E-02  0.1270593E+00
          1   -1    0    0  502    0 -0.00000000000E+00  0.00000000000E+00  0.22581542498E+03  0.22581542498E+03  0.00000000000E+00 0. -1.
         21   -1    0    0  501  502  0.00000000000E+00 -0.00000000000E+00 -0.25982285440E+03  0.25982285440E+03  0.00000000000E+00 0. -1.
        -24    2    1    2    0    0  0.15183470457E+02  0.62961998043E+02  0.17886645372E+03  0.20632207627E+03  0.79880159730E+02 0.  0.
         23    2    1    2    0    0 -0.76379094125E+01  0.15183571478E+02 -0.72962814879E+02  0.11888312501E+03  0.92307889990E+02 0.  0.
         11    1    3    3    0    0 -0.24333040284E+01  0.70684880114E+02  0.85342285003E+02  0.11084033045E+03  0.00000000000E+00 0. -1.
        -12    1    3    3    0    0  0.17616774485E+02 -0.77228820711E+01  0.93524168719E+02  0.95481745822E+02  0.00000000000E+00 0.  1.
        -11    1    4    4    0    0  0.22157451720E+02 -0.65671728378E+01 -0.78272729476E+02  0.81613115401E+02  0.00000000000E+00 0. -1.
         11    1    4    4    0    0 -0.29795361133E+02  0.21750744316E+02  0.53099145970E+01  0.37270009610E+02  0.00000000000E+00 0.  1.
          2    1    1    2  501    0 -0.75455610443E+01 -0.78145569521E+02 -0.13991106826E+03  0.16043307810E+03  0.00000000000E+00 0. -1.
<scales pt_clust_5="13000.00000" pt_clust_6="13000.00000" pt_clust_7="13000.00000" pt_clust_8="13000.00000" pt_clust_9="78.50902"></scales>
<clustering>
<clus scale="   78.509">  2  9  1 -1</clus>
<clus scale="   79.880">  5  6 -1 -1</clus>
<clus scale="   92.308">  7  8 -1 -1</clus>
<clus scale="   97.013">  1  5  2 -1</clus>
<clus scale="   78.509">  2  5  1 -1</clus>
</clustering>
</event>
<event>
 9    1  0.9871995E-005  0.1005835E+03  0.7546771E-02  0.1284172E+00
          1   -1    0    0  502    0 -0.00000000000E+00  0.00000000000E+00  0.16507459620E+03  0.16507459620E+03  0.00000000000E+00 0. -1.
         21   -1    0    0  501  502  0.00000000000E+00 -0.00000000000E+00 -0.29231696181E+03  0.29231696181E+03  0.00000000000E+00 0. -1.
         23    2    1    2    0    0 -0.45706823724E+02 -0.19175286328E+02  0.13565258385E+03  0.16972641248E+03  0.89155068545E+02 0.  0.
        -24    2    1    2    0    0  0.11561994130E+02  0.46089015618E+01 -0.18562809491E+03  0.20194341103E+03  0.78539352923E+02 0.  0.
         13    1    4    4    0    0 -0.20746811168E+02 -0.22872597457E+02 -0.11914845750E+03  0.12308509582E+03  0.00000000000E+00 0. -1.
        -14    1    4    4    0    0  0.32308805298E+02  0.27481499019E+02 -0.66479637409E+02  0.78858315212E+02  0.00000000000E+00 0.  1.
        -11    1    3    3    0    0  0.14611201115E+02  0.22914043720E+02  0.49312896297E+02  0.56305437915E+02  0.00000000000E+00 0.  1.
         11    1    3    3    0    0 -0.60318024839E+02 -0.42089330048E+02  0.86339687550E+02  0.11342097456E+03  0.00000000000E+00 0. -1.
          2    1    1    2  501    0  0.34144829594E+02  0.14566384767E+02 -0.77266854550E+02  0.85721734497E+02  0.00000000000E+00 0. -1.
<scales pt_clust_5="13000.00000" pt_clust_6="13000.00000" pt_clust_7="13000.00000" pt_clust_8="13000.00000" pt_clust_9="37.12208"></scales>
<clustering>
<clus scale="   37.122">  2  9  1 -1</clus>
<clus scale="   78.539">  5  6 -1 -1</clus>
<clus scale="   89.155">  7  8 -1 -1</clus>
<clus scale="   91.306">  2  5  1 -1</clus>
<clus scale="   37.122">  2  5  1 -1</clus>
</clustering>
</event>
<event>
 9    1  0.8429841E-005  0.9309620E+02  0.7546771E-02  0.1301540E+00
         21   -1    0    0  501  502  0.00000000000E+00  0.00000000000E+00  0.20078963558E+03  0.20078963558E+03  0.00000000000E+00 0. -1.
          1   -1    0    0  502    0 -0.00000000000E+00 -0.00000000000E+00 -0.14100647187E+03  0.14100647187E+03  0.00000000000E+00 0. -1.
         23    2    1    2    0    0 -0.27543082849E+01  0.46194927584E+02 -0.83766290311E+02  0.13006996385E+03  0.88089991223E+02 0.  0.
        -24    2    1    2    0    0  0.10706597984E+02  0.22487937430E+02  0.50968290788E+02  0.96175952595E+02  0.77664075489E+02 0.  0.
         13    1    4    4    0    0 -0.19192520033E+02  0.33514648787E+02  0.32000401227E+01  0.38753383921E+02  0.00000000000E+00 0. -1.
        -14    1    4    4    0    0  0.29899118017E+02 -0.11026711357E+02  0.47768250665E+02  0.57422568674E+02  0.00000000000E+00 0.  1.
        -11    1    3    3    0    0 -0.34184104248E+02 -0.94906012673E+01 -0.32497290438E+02  0.48111312406E+02  0.00000000000E+00 0.  1.
         11    1    3    3    0    0  0.31429795963E+02  0.55685528852E+02 -0.51268999873E+02  0.81958651439E+02  0.00000000000E+00 0. -1.
          2    1    1    2  501    0 -0.79522896996E+01 -0.68682865014E+02  0.92581163235E+02  0.11555019102E+03  0.00000000000E+00 0. -1.
<scales pt_clust_5="13000.00000" pt_clust_6="13000.00000" pt_clust_7="13000.00000" pt_clust_8="13000.00000" pt_clust_9="69.14170"></scales>
<clustering>
<clus scale="   69.142">  1  9  2 -1</clus>
<clus scale="   77.664">  5  6 -1 -1</clus>
<clus scale="   83.299">  1  5  2 -1</clus>
<clus scale="   88.090">  7  8 -1 -1</clus>
<clus scale="   69.142">  1  5  2 -1</clus>
</clustering>
</event>
<event>
 9    1  0.8429841E-005  0.2535296E+03  0.7546771E-02  0.1149721E+00
         21   -1    0    0  501  502  0.00000000000E+00  0.00000000000E+00  0.50359546021E+02  0.50359546021E+02  0.00000000000E+00 0. -1.
          1   -1    0    0  502    0 -0.00000000000E+00 -0.00000000000E+00 -0.18161324146E+04  0.18161324146E+04  0.00000000000E+00 0. -1.
         23    2    1    2    0    0 -0.15103705843E+02 -0.32940151883E+02 -0.17972942618E+03  0.20481907257E+03  0.91296277665E+02 0.  0.
        -24    2    1    2    0    0  0.14285023009E+03  0.21542490792E+03 -0.79000457315E+03  0.83505463154E+03  0.79968324209E+02 0.  0.
         13    1    4    4    0    0  0.70856776727E+02  0.15213477444E+03 -0.58762904395E+03  0.61112483642E+03  0.00000000000E+00 0. -1.
        -14    1    4    4    0    0  0.71993453365E+02  0.63290133476E+02 -0.20237552920E+03  0.22392979512E+03  0.00000000000E+00 0.  1.
        -11    1    3    3    0    0  0.32439367695E+02 -0.14138549035E+02 -0.29310684354E+02  0.45949182392E+02  0.00000000000E+00 0. -1.
         11    1    3    3    0    0 -0.47543073538E+02 -0.18801602847E+02 -0.15041874183E+03  0.15886989018E+03  0.00000000000E+00 0.  1.
          2    1    1    2  501    0 -0.12774652425E+03 -0.18248475603E+03 -0.79603886922E+03  0.82661825648E+03  0.00000000000E+00 0. -1.
<scales pt_clust_5="13000.00000" pt_clust_6="13000.00000" pt_clust_7="13000.00000" pt_clust_8="13000.00000" pt_clust_9="240.58756"></scales>
<clustering>
<clus scale="   79.968">  5  6 -1 -1</clus>
<clus scale="   91.296">  7  8 -1 -1</clus>
<clus scale="   98.225">  2  7  1 -1</clus>
<clus scale="  240.588">  1  9  2 -1</clus>
<clus scale="  240.588">  1  5  2 -1</clus>
</clustering>
</event>
<event>
 9    1  0.8429841E-005  0.1716473E+03  0.7546771E-02  0.1178254E+00
          1   -1    0    0  502    0 -0.00000000000E+00  0.00000000000E+00  0.40261066611E+03  0.40261066611E+03  0.00000000000E+00 0. -1.
         21   -1    0    0  501  502  0.00000000000E+00 -0.00000000000E+00 -0.37869431840E+03  0.37869431840E+03  0.00000000000E+00 0. -1.
         23    2    1    2    0    0 -0.27403446522E+02  0.14511108676E+03  0.34901714847E+03  0.39090272046E+03  0.95832095649E+02 0.  0.
        -24    2    1    2    0    0 -0.36724366878E+02 -0.87352863970E+02 -0.23329206482E+03  0.26439737229E+03  0.80632381823E+02 0.  0.
         11    1    4    4    0    0 -0.30370292131E+02 -0.46374938534E+02 -0.44446760762E+02  0.71052826196E+02  0.00000000000E+00 0. -1.
        -12    1    4    4    0    0 -0.63540747472E+01 -0.40977925436E+02 -0.18884530406E+03  0.19334454609E+03  0.00000000000E+00 0.  1.
        -11    1    3    3    0    0 -0.36172438449E+01  0.77651277510E+02  0.76163267684E+02  0.10882852887E+03  0.00000000000E+00 0.  1.
         11    1    3    3    0    0 -0.23786202677E+02  0.67459809254E+02  0.27285388079E+03  0.28207419159E+03  0.00000000000E+00 0. -1.
          2    1    1    2  501    0  0.64127813400E+02 -0.57758222794E+02 -0.91808735938E+02  0.12600489176E+03  0.00000000000E+00 0. -1.
<scales pt_clust_5="13000.00000" pt_clust_6="13000.00000" pt_clust_7="13000.00000" pt_clust_8="13000.00000" pt_clust_9="86.30405"></scales>
<clustering>
<clus scale="   80.632">  5  6 -1 -1</clus>
<clus scale="   86.304">  2  9  1 -1</clus>
<clus scale="   95.832">  7  8 -1 -1</clus>
<clus scale="  163.648">  2  5  1 -1</clus>
<clus scale="   86.304">  2  5  1 -1</clus>
</clustering>
</event>
<event>
 9    1  0.8429841E-005  0.9562288E+02  0.7546771E-02  0.1292296E+00
         21   -1    0    0  501  502  0.00000000000E+00  0.00000000000E+00  0.47534204024E+02  0.47534204024E+02  0.00000000000E+00 0.  1.
          1   -1    0    0  502    0 -0.00000000000E+00 -0.00000000000E+00 -0.84180697059E+03  0.84180697059E+03  0.00000000000E+00 0. -1.
         23    2    1    2    0    0 -0.53669928101E+00 -0.14834052673E+02 -0.13988120361E+03  0.16766734014E+03  0.91242800605E+02 0.  0.
        -24    2    1    2    0    0  0.87222114236E+02 -0.13594658519E+02 -0.95469687343E+02  0.15535571201E+03  0.85020139391E+02 0.  0.
         11    1    4    4    0    0  0.30130353131E+02 -0.20402171372E+02 -0.90623019535E+02  0.97655611442E+02  0.00000000000E+00 0. -1.
        -12    1    4    4    0    0  0.57091761104E+02  0.68075128528E+01 -0.48466678088E+01  0.57700100572E+02  0.00000000000E+00 0.  1.
        -13    1    3    3    0    0 -0.32267775677E+02 -0.10527337104E+02 -0.12969722090E+03  0.13406492189E+03  0.00000000000E+00 0.  1.
         13    1    3    3    0    0  0.31731076396E+02 -0.43067155687E+01 -0.10183982711E+02  0.33602418248E+02  0.00000000000E+00 0. -1.
          2    1    1    2  501    0 -0.86685414955E+02  0.28428711192E+02 -0.55892187561E+03  0.56631812245E+03  0.00000000000E+00 0. -1.
<scales pt_clust_5="13000.00000" pt_clust_6="13000.00000" pt_clust_7="13000.00000" pt_clust_8="13000.00000" pt_clust_9="91.22807"></scales>
<clustering>
<clus scale="   85.020">  5  6 -1 -1</clus>
<clus scale="   91.228">  1  9  2 -1</clus>
<clus scale="   91.228">  1  5  2 -1</clus>
<clus scale="   91.243">  7  8 -1 -1</clus>
<clus scale="   91.228">  1  5  2 -1</clus>
</clustering>
</event>
<event>
 9    1  0.8429841E-005  0.1577008E+03  0.7546771E-02  0.1222233E+00
          3   -1    0    0  502    0 -0.00000000000E+00  0.00000000000E+00  0.15152406336E+03  0.15152406336E+03  0.00000000000E+00 0. -1.
         21   -1    0    0  501  502  0.00000000000E+00 -0.00000000000E+00 -0.38263948935E+03  0.38263948935E+03  0.00000000000E+00 0. -1.
        -24    2    1    2    0    0  0.11466292600E+02 -0.11748819121E+02  0.49445574433E+02  0.95062548388E+02  0.79514229282E+02 0.  0.
         23    2    1    2    0    0 -0.79418138696E+02 -0.99374518202E+02 -0.26473928675E+03  0.30789057749E+03  0.92342742745E+02 0.  0.
         11    1    3    3    0    0  0.41155656533E+02  0.12180092578E+02  0.23402393280E+02  0.48885731365E+02  0.00000000000E+00 0. -1.
        -12    1    3    3    0    0 -0.29689363933E+02 -0.23928911698E+02  0.26043181153E+02  0.46176817023E+02  0.00000000000E+00 0.  1.
        -11    1    4    4    0    0 -0.51028425809E+02 -0.11421930486E+03 -0.20737040878E+03  0.24218265066E+03  0.00000000000E+00 0. -1.
         11    1    4    4    0    0 -0.28389712887E+02  0.14844786661E+02 -0.57368877969E+02  0.65707926830E+02  0.00000000000E+00 0.  1.
          4    1    1    2  501    0  0.67951846096E+02  0.11112333732E+03 -0.15821713675E+02  0.13121042683E+03  0.00000000000E+00 0. -1.
<scales pt_clust_5="13000.00000" pt_clust_6="13000.00000" pt_clust_7="13000.00000" pt_clust_8="13000.00000" pt_clust_9="127.83726"></scales>
<clustering>
<clus scale="   79.514">  5  6 -1 -1</clus>
<clus scale="   81.191">  1  5  2 -1</clus>
<clus scale="   92.343">  7  8 -1 -1</clus>
<clus scale="  127.837">  2  9  1 -1</clus>
<clus scale="  127.837">  2  5  1 -1</clus>
</clustering>
</event>
<event>
 9    1  0.8429841E-005  0.1431664E+03  0.7546771E-02  0.1223939E+00
          3   -1    0    0  502    0 -0.00000000000E+00  0.00000000000E+00  0.67667236259E+03  0.67667236259E+03  0.00000000000E+00 0. -1.
         21   -1    0    0  501  502  0.00000000000E+00 -0.00000000000E+00 -0.10927417516E+03  0.10927417516E+03  0.00000000000E+00 0. -1.
        -24    2    1    2    0    0 -0.59468856524E+02 -0.33634127993E+02  0.32789249139E+03  0.34420783328E+03  0.79358346224E+02 0.  0.
         23    2    1    2    0    0 -0.37298193414E+02  0.98267522846E+02 -0.30982828492E+02  0.14728093231E+03  0.98407703373E+02 0.  0.
         13    1    3    3    0    0 -0.39612696570E+02 -0.86003032809E+01  0.49462999706E+02  0.63950913097E+02  0.00000000000E+00 0. -1.
        -14    1    3    3    0    0 -0.19856159954E+02 -0.25033824712E+02  0.27842949168E+03  0.28025692018E+03  0.00000000000E+00 0.  1.
        -13    1    4    4    0    0 -0.29229956988E+02  0.19700042438E+02  0.30954109341E+02  0.46910968255E+02  0.00000000000E+00 0.  1.
         13    1    4    4    0    0 -0.80682364266E+01  0.78567480408E+02 -0.61936937833E+02  0.10036996406E+03  0.00000000000E+00 0. -1.
          4    1    1    2  501    0  0.96767049938E+02 -0.64633394853E+02  0.27048852453E+03  0.29445777216E+03  0.00000000000E+00 0. -1.
<scales pt_clust_5="13000.00000" pt_clust_6="13000.00000" pt_clust_7="13000.00000" pt_clust_8="13000.00000" pt_clust_9="103.98343"></scales>
<clustering>
<clus scale="   79.358">  5  6 -1 -1</clus>
<clus scale="   98.408">  7  8 -1 -1</clus>
<clus scale="  104.717">  1  5  2 -1</clus>
<clus scale="  103.983">  2  9  1 -1</clus>
<clus scale="  103.983">  2  5  1 -1</clus>
</clustering>
</event>
<event>
 9    1  0.8429841E-005  0.1194294E+03  0.7546771E-02  0.1247771E+00
          1   -1    0    0  502    0 -0.00000000000E+00  0.00000000000E+00  0.17010957230E+03  0.17010957230E+03  0.00000000000E+00 0. -1.
         21   -1    0    0  501  502  0.00000000000E+00 -0.00000000000E+00 -0.22316723595E+03  0.22316723595E+03  0.00000000000E+00 0. -1.
         23    2    1    2    0    0 -0.10559220100E+02  0.71653483969E+02  0.10158968662E+03  0.15437631014E+03  0.90916785081E+02 0.  0.
        -24    2    1    2    0    0  0.30904231422E+02 -0.92215825332E+02 -0.58355242139E+02  0.13835747520E+03  0.79237785793E+02 0.  0.
         13    1    4    4    0    0 -0.61202813228E+01 -0.37202235294E+02  0.13994474322E+02  0.40215786277E+02  0.00000000000E+00 0. -1.
        -14    1    4    4    0    0  0.37024512745E+02 -0.55013590039E+02 -0.72349716461E+02  0.98141688924E+02  0.00000000000E+00 0.  1.
        -13    1    3    3    0    0  0.19367588286E+02  0.42106551493E+02  0.10230643878E+03  0.11231505941E+03  0.00000000000E+00 0. -1.
         13    1    3    3    0    0 -0.29926808386E+02  0.29546932476E+02 -0.71675215862E+00  0.42061250725E+02  0.00000000000E+00 0.  1.
          2    1    1    2  501    0 -0.20345011322E+02  0.20562341364E+02 -0.96292108130E+02  0.10054302291E+03  0.00000000000E+00 0. -1.
<scales pt_clust_5="13000.00000" pt_clust_6="13000.00000" pt_clust_7="13000.00000" pt_clust_8="13000.00000" pt_clust_9="28.92627"></scales>
<clustering>
<clus scale="   28.926">  2  9  1 -1</clus>
<clus scale="   79.238">  5  6 -1 -1</clus>
<clus scale="   90.917">  7  8 -1 -1</clus>
<clus scale="  110.798">  2  5  1 -1</clus>
<clus scale="   28.926">  2  5  1 -1</clus>
</clustering>
</event>
<event>
 9    1  0.8429841E-005  0.1553522E+03  0.7546771E-02  0.1207971E+00
         -2   -1    0    0    0  501 -0.00000000000E+00  0.00000000000E+00  0.79268673556E+03  0.79268673556E+03  0.00000000000E+00 0.  1.
         21   -1    0    0  501  502  0.00000000000E+00 -0.00000000000E+00 -0.58242634307E+02  0.58242634307E+02  0.00000000000E+00 0. -1.
        -24    2    1    2    0    0  0.80482255430E+02 -0.22221211375E+02  0.29400897378E+03  0.31565115579E+03  0.78887260142E+02 0.  0.
         23    2    1    2    0    0  0.14476525823E+02  0.12394742726E+03  0.16659578031E+03  0.22810825919E+03  0.93309642407E+02 0.  0.
         11    1    3    3    0    0  0.22222292603E+02  0.29307394485E+02  0.83870964635E+02  0.91581069927E+02  0.00000000000E+00 0. -1.
        -12    1    3    3    0    0  0.58259962827E+02 -0.51528605860E+02  0.21013800915E+03  0.22407008586E+03  0.00000000000E+00 0.  1.
        -11    1    4    4    0    0 -0.23127777091E+02  0.99343099191E+02  0.14737988213E+03  0.17923385586E+03  0.00000000000E+00 0.  1.
         11    1    4    4    0    0  0.37604302914E+02  0.24604328071E+02  0.19215898184E+02  0.48874403326E+02  0.00000000000E+00 0. -1.
         -1    1    1    2    0  502 -0.94958781253E+02 -0.10172621589E+03  0.27383934715E+03  0.30716995489E+03  0.00000000000E+00 0.  1.
<scales pt_clust_5="13000.00000" pt_clust_6="13000.00000" pt_clust_7="13000.00000" pt_clust_8="13000.00000" pt_clust_9="124.20796"></scales>
<clustering>
<clus scale="   78.887">  5  6 -1 -1</clus>
<clus scale="   93.310">  7  8 -1 -1</clus>
<clus scale="  114.867">  1  5  2 -1</clus>
<clus scale="  124.208">  2  9  1 -1</clus>
<clus scale="  124.208">  2  5  1 -1</clus>
</clustering>
</event>
<event>
 9    1  0.8429841E-005  0.1129774E+03  0.7546771E-02  0.1260476E+00
          1   -1    0    0  502    0 -0.00000000000E+00  0.00000000000E+00  0.25743253449E+03  0.25743253449E+03  0.00000000000E+00 0. -1.
         21   -1    0    0  501  502  0.00000000000E+00 -0.00000000000E+00 -0.11118570203E+03  0.11118570203E+03  0.00000000000E+00 0. -1.
        -24    2    1    2    0    0 -0.88686621309E+02  0.15423786233E+02  0.10108112329E+03  0.15732239029E+03  0.80185603580E+02 0.  0.
         23    2    1    2    0    0  0.30876124496E+01  0.60511184623E+01 -0.26113583466E+02  0.97853793145E+02  0.94060067011E+02 0.  0.
         11    1    3    3    0    0 -0.58305830367E+02  0.47021737872E+02  0.50232897496E+02  0.90188456458E+02  0.00000000000E+00 0. -1.
        -12    1    3    3    0    0 -0.30380790941E+02 -0.31597951639E+02  0.50848225793E+02  0.67133933836E+02  0.00000000000E+00 0.  1.
        -11    1    4    4    0    0  0.50241479167E+01 -0.39894212747E+02 -0.32138087776E+02  0.51474721553E+02  0.00000000000E+00 0. -1.
         11    1    4    4    0    0 -0.19365354670E+01  0.45945331210E+02  0.60245043096E+01  0.46379071592E+02  0.00000000000E+00 0.  1.
          2    1    1    2  501    0  0.85599008859E+02 -0.21474904695E+02  0.71279292632E+02  0.11344205308E+03  0.00000000000E+00 0. -1.
<scales pt_clust_5="13000.00000" pt_clust_6="13000.00000" pt_clust_7="13000.00000" pt_clust_8="13000.00000" pt_clust_9="88.25174"></scales>
<clustering>
<clus scale="   80.186">  5  6 -1 -1</clus>
<clus scale="   88.252">  2  9  1 -1</clus>
<clus scale="   94.060">  7  8 -1 -1</clus>
<clus scale="  101.717">  1  5  2 -1</clus>
<clus scale="   88.252">  2  5  1 -1</clus>
</clustering>
</event>
<event>
 9    1  0.8429841E-005  0.1263508E+03  0.7546771E-02  0.1237114E+00
          1   -1    0    0  502    0 -0.00000000000E+00  0.00000000000E+00  0.53088662490E+03  0.53088662490E+03  0.00000000000E+00 0. -1.
         21   -1    0    0  501  502  0.00000000000E+00 -0.00000000000E+00 -0.36082098294E+02  0.36082098294E+02  0.00000000000E+00 0. -1.
        -24    2    1    2    0    0  0.67617803759E+02 -0.44188449956E+02  0.23717780637E+03  0.26204683277E+03  0.76749229547E+02 0.  0.
         23    2    1    2    0    0 -0.93070380528E+02  0.33652270630E+02  0.20213053177E+03  0.24296487570E+03  0.91545660197E+02 0.  0.
         13    1    3    3    0    0  0.52440536286E+02 -0.66028048615E+02  0.16904294127E+03  0.18890534414E+03  0.00000000000E+00 0. -1.
        -14    1    3    3    0    0  0.15177267473E+02  0.21839598659E+02  0.68134865101E+02  0.73141488636E+02  0.00000000000E+00 0.  1.
        -13    1    4    4    0    0 -0.25293532892E+02 -0.31014620821E+02  0.46859058893E+02  0.61623379583E+02  0.00000000000E+00 0.  1.
         13    1    4    4    0    0 -0.67776847636E+02  0.64666891451E+02  0.15527147287E+03  0.18134149612E+03  0.00000000000E+00 0. -1.
          2    1    1    2  501    0  0.25452576769E+02  0.10536179326E+02  0.55496188467E+02  0.61957014722E+02  0.00000000000E+00 0. -1.
<scales pt_clust_5="13000.00000" pt_clust_6="13000.00000" pt_clust_7="13000.00000" pt_clust_8="13000.00000" pt_clust_9="27.54715"></scales>
<clustering>
<clus scale="   27.547">  2  9  1 -1</clus>
<clus scale="   76.749">  5  6 -1 -1</clus>
<clus scale="   91.546">  7  8 -1 -1</clus>
<clus scale="  116.079">  1  5  2 -1</clus>
<clus scale="   27.547">  2  5  1 -1</clus>
</clustering>
</event>
<event>
 9    1  0.8429841E-005  0.1055858E+03  0.7546771E-02  0.1274330E+00
         21   -1    0    0  501  502  0.00000000000E+00  0.00000000000E+00  0.27716215532E+03  0.27716215532E+03  0.00000000000E+00 0.  1.
          3   -1    0    0  502    0 -0.00000000000E+00 -0.00000000000E+00 -0.13115209393E+03  0.13115209393E+03  0.00000000000E+00 0. -1.
         23    2    1    2    0    0 -0.29250531352E+02 -0.46837379674E+02 -0.91462915774E+02  0.14074037129E+03  0.91613609414E+02 0.  0.
        -24    2    1    2    0    0  0.26325617443E+02  0.16709530811E+02  0.21007189354E+03  0.22674421004E+03  0.79438591226E+02 0.  0.
         11    1    4    4    0    0  0.51217344844E+02 -0.46297120831E+01  0.14558920929E+03  0.15440488499E+03  0.00000000000E+00 0. -1.
        -12    1    4    4    0    0 -0.24891727400E+02  0.21339242894E+02  0.64482684257E+02  0.72339325054E+02  0.00000000000E+00 0.  1.
        -11    1    3    3    0    0 -0.91083497365E+01  0.22238241102E+02  0.42288100951E+00  0.24034979313E+02  0.00000000000E+00 0.  1.
         11    1    3    3    0    0 -0.20142181615E+02 -0.69075620776E+02 -0.91885796783E+02  0.11670539198E+03  0.00000000000E+00 0. -1.
          4    1    1    2  501    0  0.29249139085E+01  0.30127848862E+02  0.27401083622E+02  0.40829667915E+02  0.00000000000E+00 0. -1.
<scales pt_clust_5="13000.00000" pt_clust_6="13000.00000" pt_clust_7="13000.00000" pt_clust_8="13000.00000" pt_clust_9="30.26950"></scales>
<clustering>
<clus scale="   30.269">  1  9  2 -1</clus>
<clus scale="   79.439">  5  6 -1 -1</clus>
<clus scale="   91.614">  7  8 -1 -1</clus>
<clus scale="   95.214">  1  5  2 -1</clus>
<clus scale="   30.269">  1  5  2 -1</clus>
</clustering>
</event>
<event>
 9    1  0.8429841E-005  0.1112777E+03  0.7546771E-02  0.1262417E+00
         -4   -1    0    0    0  501 -0.00000000000E+00  0.00000000000E+00  0.31032156735E+03  0.31032156735E+03  0.00000000000E+00 0.  1.
         21   -1    0    0  501  502  0.00000000000E+00 -0.00000000000E+00 -0.92715793471E+02  0.92715793471E+02  0.00000000000E+00 0. -1.
         23    2    1    2    0    0 -0.68956271553E+02  0.99816129000E+01  0.13504741360E+03  0.17658449967E+03  0.89942657398E+02 0.  0.
        -24    2    1    2    0    0  0.54169685387E+02  0.28202681593E+02 -0.32077644962E+02  0.10472325434E+03  0.78792376726E+02 0.  0.
         11    1    4    4    0    0  0.55956352581E+02  0.38527181818E+02 -0.49731367532E+02  0.84194216248E+02  0.00000000000E+00 0. -1.
        -12    1    4    4    0    0 -0.17866671939E+01 -0.10324500225E+02  0.17653722570E+02  0.20529038096E+02  0.00000000000E+00 0.  1.
        -11    1    3    3    0    0 -0.62162239859E+02  0.45559935987E+02  0.84093230461E+02  0.11406806407E+03  0.00000000000E+00 0. -1.
         11    1    3    3    0    0 -0.67940316947E+01 -0.35578323087E+02  0.50954183138E+02  0.62516435596E+02  0.00000000000E+00 0.  1.
         -3    1    1    2    0  502  0.14786586166E+02 -0.38184294493E+02  0.11463600524E+03  0.12172960681E+03  0.00000000000E+00 0.  1.
<scales pt_clust_5="13000.00000" pt_clust_6="13000.00000" pt_clust_7="13000.00000" pt_clust_8="13000.00000" pt_clust_9="40.94735"></scales>
<clustering>
<clus scale="   40.947">  2  9  1 -1</clus>
<clus scale="   78.792">  5  6 -1 -1</clus>
<clus scale="   89.943">  7  8 -1 -1</clus>
<clus scale="  102.476">  2  5  1 -1</clus>
<clus scale="   40.947">  2  5  1 -1</clus>
</clustering>
</event>
<event>
 9    1  0.8429841E-005  0.1224765E+03  0.7546771E-02  0.1242733E+00
         21   -1    0    0  501  502  0.00000000000E+00  0.00000000000E+00  0.39143022331E+02  0.39143022331E+02  0.00000000000E+00 0.  1.
          1   -1    0    0  502    0 -0.00000000000E+00 -0.00000000000E+00 -0.54221888805E+03  0.54221888805E+03  0.00000000000E+00 0. -1.
         23    2    1    2    0    0  0.98013120356E+02 -0.35511240193E+00 -0.32582224768E+03  0.35239921329E+03  0.91751678873E+02 0.  0.
        -24    2    1    2    0    0 -0.56272437250E+02 -0.16666422088E+02 -0.10947081924E+03  0.14755922618E+03  0.79658697883E+02 0.  0.
         11    1    4    4    0    0 -0.19912268496E+02 -0.52695881989E+01 -0.10744438012E+03  0.10940092237E+03  0.00000000000E+00 0. -1.
        -12    1    4    4    0    0 -0.36360168755E+02 -0.11396833889E+02 -0.20264391191E+01  0.38158303815E+02  0.00000000000E+00 0.  1.
        -13    1    3    3    0    0 -0.83204565681E+00  0.30503102127E+02 -0.66489819656E+02  0.73157553658E+02  0.00000000000E+00 0.  1.
         13    1    3    3    0    0  0.98845166013E+02 -0.30858214529E+02 -0.25933242802E+03  0.27924165963E+03  0.00000000000E+00 0. -1.
          2    1    1    2  501    0 -0.41740683106E+02  0.17021534490E+02 -0.67782798803E+02  0.81403470909E+02  0.00000000000E+00 0. -1.
<scales pt_clust_5="13000.00000" pt_clust_6="13000.00000" pt_clust_7="13000.00000" pt_clust_8="13000.00000" pt_clust_9="45.07790"></scales>
<clustering>
<clus scale="   45.078">  1  9  2 -1</clus>
<clus scale="   79.659">  5  6 -1 -1</clus>
<clus scale="   91.752">  7  8 -1 -1</clus>
<clus scale="  113.700">  1  5  2 -1</clus>
<clus scale="   45.078">  1  5  2 -1</clus>
</clustering>
</event>
<event>
 9    1  0.8429841E-005  0.9369042E+02  0.7546771E-02  0.1300288E+00
          1   -1    0    0  502    0 -0.00000000000E+00  0.00000000000E+00  0.56617454444E+03  0.56617454444E+03  0.00000000000E+00 0. -1.
         21   -1    0    0  501  502  0.00000000000E+00 -0.00000000000E+00 -0.26126424654E+02  0.26126424654E+02  0.00000000000E+00 0. -1.
         23    2    1    2    0    0 -0.13519800851E+02 -0.18904574718E+02  0.38916875440E+03  0.40059266907E+03  0.92097769547E+02 0.  0.
        -24    2    1    2    0    0 -0.18239897042E+02  0.97061848573E+01  0.97972880712E+02  0.12931931937E+03  0.81840681435E+02 0.  0.
         13    1    4    4    0    0 -0.36865641120E+02  0.35455412379E+02  0.71765610803E+02  0.88127547657E+02  0.00000000000E+00 0. -1.
        -14    1    4    4    0    0  0.18625744078E+02 -0.25749227522E+02  0.26207269909E+02  0.41191771709E+02  0.00000000000E+00 0.  1.
        -13    1    3    3    0    0  0.26324302406E+02 -0.40656069299E+02  0.23187405765E+03  0.23687858383E+03  0.00000000000E+00 0. -1.
         13    1    3    3    0    0 -0.39844103257E+02  0.21751494581E+02  0.15729469675E+03  0.16371408524E+03  0.00000000000E+00 0.  1.
          2    1    1    2  501    0  0.31759697893E+02  0.91983898607E+01  0.52906484672E+02  0.62388980651E+02  0.00000000000E+00 0. -1.
<scales pt_clust_5="13000.00000" pt_clust_6="13000.00000" pt_clust_7="13000.00000" pt_clust_8="13000.00000" pt_clust_9="33.06492"></scales>
<clustering>
<clus scale="   33.065">  2  9  1 -1</clus>
<clus scale="   81.841">  5  6 -1 -1</clus>
<clus scale="   83.629">  2  5  1 -1</clus>
<clus scale="   92.098">  7  8 -1 -1</clus>
<clus scale="   33.065">  2  5  1 -1</clus>
</clustering>
</event>
<event>
 9    1  0.8429841E-005  0.1322107E+03  0.7546771E-02  0.1246202E+00
         21   -1    0    0  501  502  0.00000000000E+00  0.00000000000E+00  0.42961710753E+02  0.42961710753E+02  0.00000000000E+00 0.  1.
         -2   -1    0    0    0  501 -0.00000000000E+00 -0.00000000000E+00 -0.58475682259E+03  0.58475682259E+03  0.00000000000E+00 0.  1.
        -24    2    1    2    0    0 -0.10894343959E+02 -0.23542834179E+02 -0.13134243191E+03  0.15605961693E+03  0.80192380227E+02 0.  0.
         23    2    1    2    0    0  0.60890317530E+02  0.96082198134E+02 -0.24297542526E+03  0.28242311766E+03  0.88240243327E+02 0.  0.
         11    1    3    3    0    0  0.22298095578E+02 -0.25282799742E+02 -0.18562240709E+02  0.38483526467E+02  0.00000000000E+00 0. -1.
        -12    1    3    3    0    0 -0.33192439537E+02  0.17399655623E+01 -0.11278019120E+03  0.11757609047E+03  0.00000000000E+00 0.  1.
        -11    1    4    4    0    0  0.76565441822E+02  0.47547466471E+02 -0.18068287733E+03  0.20191416644E+03  0.00000000000E+00 0.  1.
         11    1    4    4    0    0 -0.15675124291E+02  0.48534731663E+02 -0.62292547932E+02  0.80508951223E+02  0.00000000000E+00 0. -1.
         -1    1    1    2    0  502 -0.49995973571E+02 -0.72539363954E+02 -0.16747725467E+03  0.18923579875E+03  0.00000000000E+00 0.  1.
<scales pt_clust_5="13000.00000" pt_clust_6="13000.00000" pt_clust_7="13000.00000" pt_clust_8="13000.00000" pt_clust_9="98.45468"></scales>
<clustering>
<clus scale="   80.192">  5  6 -1 -1</clus>
<clus scale="   84.284">  2  5  1 -1</clus>
<clus scale="   88.240">  7  8 -1 -1</clus>
<clus scale="   98.455">  1  9  2 -1</clus>
<clus scale="   98.455">  1  5  2 -1</clus>
</clustering>
</event>
<event>
 9    1  0.9031748E-005  0.9662379E+02  0.7546771E-02  0.1291397E+00
         21   -1    0    0  501  502  0.00000000000E+00  0.00000000000E+00  0.42366516257E+03  0.42366516257E+03  0.00000000000E+00 0. -1.
          1   -1    0    0  502    0 -0.00000000000E+00 -0.00000000000E+00 -0.17047311307E+03  0.17047311307E+03  0.00000000000E+00 0. -1.
        -24    2    1    2    0    0 -0.11947523489E+02 -0.37431438160E+02 -0.14674810468E+03  0.17253576246E+03  0.81790752659E+02 0.  0.
         23    2    1    2    0    0  0.60057008096E+01 -0.60512022944E+01  0.26784838494E+03  0.28241098766E+03  0.89109613080E+02 0.  0.
         13    1    3    3    0    0 -0.97070638299E+00 -0.62160809403E+02 -0.11576637304E+03  0.13140305028E+03  0.00000000000E+00 0. -1.
        -14    1    3    3    0    0 -0.10976817106E+02  0.24729371243E+02 -0.30981731643E+02  0.41132712182E+02  0.00000000000E+00 0.  1.
        -13    1    4    4    0    0  0.39466774659E+02  0.15589223647E+02  0.19306279921E+03  0.19767117805E+03  0.00000000000E+00 0.  1.
         13    1    4    4    0    0 -0.33461073849E+02 -0.21640425941E+02  0.74785585732E+02  0.84739809602E+02  0.00000000000E+00 0. -1.
          2    1    1    2  501    0  0.59418226795E+01  0.43482640454E+02  0.13209176924E+03  0.13919152553E+03  0.00000000000E+00 0. -1.
<scales pt_clust_5="13000.00000" pt_clust_6="13000.00000" pt_clust_7="13000.00000" pt_clust_8="13000.00000" pt_clust_9="43.88673"></scales>
<clustering>
<clus scale="   43.887">  1  9  2 -1</clus>
<clus scale="   81.791">  5  6 -1 -1</clus>
<clus scale="   89.110">  7  8 -1 -1</clus>
<clus scale="   89.919">  2  5  1 -1</clus>
<clus scale="   43.887">  1  5  2 -1</clus>
</clustering>
</event>
<event>
 9    1  0.8429841E-005  0.9537377E+02  0.7546771E-02  0.1296920E+00
         21   -1    0    0  501  502  0.00000000000E+00  0.00000000000E+00  0.50176898672E+02  0.50176898672E+02  0.00000000000E+00 0. -1.
          1   -1    0    0  502    0 -0.00000000000E+00 -0.00000000000E+00 -0.31958012735E+03  0.31958012735E+03  0.00000000000E+00 0. -1.
        -24    2    1    2    0    0  0.47465682713E+02 -0.32614704990E+01 -0.17576231151E+03  0.19786364498E+03  0.77420950875E+02 0.  0.
         23    2    1    2    0    0 -0.16588281642E+01 -0.21752200042E+02 -0.61758593974E+02  0.11073429202E+03  0.89286334800E+02 0.  0.
         11    1    3    3    0    0  0.61506989959E+02  0.69859251464E+01 -0.16758702304E+03  0.17865420022E+03  0.00000000000E+00 0. -1.
        -12    1    3    3    0    0 -0.14041307246E+02 -0.10247395645E+02 -0.81752884685E+01  0.19209444767E+02  0.00000000000E+00 0.  1.
        -13    1    4    4    0    0  0.19138017494E+02  0.25771668715E+02 -0.28290326850E+01  0.32224928982E+02  0.00000000000E+00 0. -1.
         13    1    4    4    0    0 -0.20796845658E+02 -0.47523868757E+02 -0.58929561289E+02  0.78509363038E+02  0.00000000000E+00 0.  1.
          2    1    1    2  501    0 -0.45806854549E+02  0.25013670541E+02 -0.31882323201E+02  0.61159089024E+02  0.00000000000E+00 0. -1.
<scales pt_clust_5="13000.00000" pt_clust_6="13000.00000" pt_clust_7="13000.00000" pt_clust_8="13000.00000" pt_clust_9="52.19149"></scales>
<clustering>
<clus scale="   52.191">  1  9  2 -1</clus>
<clus scale="   77.421">  5  6 -1 -1</clus>
<clus scale="   84.369">  2  5  1 -1</clus>
<clus scale="   89.286">  7  8 -1 -1</clus>
<clus scale="   52.191">  1  5  2 -1</clus>
</clustering>
</event>
<event>
 9    1  0.8429841E-005  0.9494048E+02  0.7546771E-02  0.1298538E+00
         21   -1    0    0  501  502  0.00000000000E+00  0.00000000000E+00  0.84553457392E+02  0.84553457392E+02  0.00000000000E+00 0. -1.
          1   -1    0    0  502    0 -0.00000000000E+00 -0.00000000000E+00 -0.15803203969E+03  0.15803203969E+03  0.00000000000E+00 0. -1.
        -24    2    1    2    0    0  0.42678959415E+02  0.68402962284E+01 -0.34912439310E+02  0.97106100077E+02  0.79639393671E+02 0.  0.
         23    2    1    2    0    0  0.32869038981E+01 -0.60363756025E+01 -0.13900163761E+02  0.93307398675E+02  0.92009861033E+02 0.  0.
         13    1    3    3    0    0  0.46106340682E+02  0.13290232641E+02 -0.56611287111E+02  0.74210934256E+02  0.00000000000E+00 0. -1.
        -14    1    3    3    0    0 -0.34273812675E+01 -0.64499364129E+01  0.21698847801E+02  0.22895165821E+02  0.00000000000E+00 0.  1.
        -11    1    4    4    0    0  0.38803797561E+02  0.16610562510E+02  0.11970808764E+02  0.43874203748E+02  0.00000000000E+00 0. -1.
         11    1    4    4    0    0 -0.35516893663E+02 -0.22646938112E+02 -0.25870972526E+02  0.49433194927E+02  0.00000000000E+00 0.  1.
          2    1    1    2  501    0 -0.45965863313E+02 -0.80392062591E+00 -0.24665979224E+02  0.52171998328E+02  0.00000000000E+00 0. -1.
<scales pt_clust_5="13000.00000" pt_clust_6="13000.00000" pt_clust_7="13000.00000" pt_clust_8="13000.00000" pt_clust_9="45.97292"></scales>
<clustering>
<clus scale="   45.973">  1  9  2 -1</clus>
<clus scale="   79.639">  5  6 -1 -1</clus>
<clus scale="   83.008">  2  5  1 -1</clus>
<clus scale="   92.010">  7  8 -1 -1</clus>
<clus scale="   45.973">  1  5  2 -1</clus>
</clustering>
</event>
<event>
 9    1  0.8429841E-005  0.1297395E+03  0.7546771E-02  0.1230305E+00
         -2   -1    0    0    0  501 -0.00000000000E+00  0.00000000000E+00  0.42997848687E+03  0.42997848687E+03  0.00000000000E+00 0.  1.
         21   -1    0    0  501  502  0.00000000000E+00 -0.00000000000E+00 -0.76806509994E+02  0.76806509994E+02  0.00000000000E+00 0.  1.
        -24    2    1    2    0    0  0.17720340760E+02  0.12394877224E+03  0.22766006060E+03  0.27247097334E+03  0.82061071786E+02 0.  0.
         23    2    1    2    0    0 -0.44838184730E+02 -0.40272882516E+02  0.76759205093E+02  0.13374634069E+03  0.91453486567E+02 0.  0.
         11    1    3    3    0    0 -0.14782296226E+02  0.11438432168E+03  0.16634281980E+03  0.20241596535E+03  0.00000000000E+00 0. -1.
        -12    1    3    3    0    0  0.32502636985E+02  0.95644505632E+01  0.61317240802E+02  0.70055007995E+02  0.00000000000E+00 0.  1.
        -13    1    4    4    0    0 -0.25631913159E+02 -0.14456337863E+01 -0.16775659417E+02  0.30667696003E+02  0.00000000000E+00 0.  1.
         13    1    4    4    0    0 -0.19206271571E+02 -0.38827248730E+02  0.93534864509E+02  0.10307864469E+03  0.00000000000E+00 0. -1.
         -1    1    1    2    0  502  0.27117843970E+02 -0.83675889728E+02  0.48752711184E+02  0.10056768284E+03  0.00000000000E+00 0.  1.
<scales pt_clust_5="13000.00000" pt_clust_6="13000.00000" pt_clust_7="13000.00000" pt_clust_8="13000.00000" pt_clust_9="87.96040"></scales>
<clustering>
<clus scale="   82.061">  5  6 -1 -1</clus>
<clus scale="   87.960">  2  9  1 -1</clus>
<clus scale="   91.453">  7  8 -1 -1</clus>
<clus scale="  123.299">  1  5  2 -1</clus>
<clus scale="   87.960">  2  5  1 -1</clus>
</clustering>
</event>
<event>
 9    1  0.8429841E-005  0.2751969E+03  0.7546771E-02  0.1143599E+00
          1   -1    0    0  502    0 -0.00000000000E+00  0.00000000000E+00  0.24349948111E+04  0.24349948111E+04  0.00000000000E+00 0. -1.
         21   -1    0    0  501  502  0.00000000000E+00 -0.00000000000E+00 -0.74918224388E+02  0.74918224388E+02  0.00000000000E+00 0. -1.
        -24    2    1    2    0    0 -0.11561418827E+01 -0.32259381672E+02  0.11078309815E+03  0.14202352502E+03  0.82799652485E+02 0.  0.
         23    2    1    2    0    0  0.16718596718E+03 -0.19419887846E+03  0.32630295060E+03  0.42450538592E+03  0.89815672843E+02 0.  0.
         11    1    3    3    0    0 -0.23695866799E+02  0.64122114858E+01  0.22840815201E+01  0.24654159647E+02  0.00000000000E+00 0. -1.
        -12    1    3    3    0    0  0.22539724917E+02 -0.38671593158E+02  0.10849901663E+03  0.11736936537E+03  0.00000000000E+00 0.  1.
        -11    1    4    4    0    0  0.75329872550E+02 -0.56264504897E+02  0.62269968422E+02  0.11277337087E+03  0.00000000000E+00 0. -1.
         11    1    4    4    0    0  0.91856094628E+02 -0.13793437357E+03  0.26403298217E+03  0.31173201505E+03  0.00000000000E+00 0.  1.
          2    1    1    2  501    0 -0.16602982530E+03  0.22645826014E+03  0.19229905379E+04  0.19433841245E+04  0.00000000000E+00 0. -1.
<scales pt_clust_5="13000.00000" pt_clust_6="13000.00000" pt_clust_7="13000.00000" pt_clust_8="13000.00000" pt_clust_9="260.12795"></scales>
<clustering>
<clus scale="   82.800">  5  6 -1 -1</clus>
<clus scale="   88.870">  1  5  2 -1</clus>
<clus scale="   89.816">  7  8 -1 -1</clus>
<clus scale="  260.128">  2  9  1 -1</clus>
<clus scale="  260.128">  2  5  1 -1</clus>
</clustering>
</event>
<event>
 9    1  0.8429841E-005  0.2478464E+03  0.7546771E-02  0.1114985E+00
         21   -1    0    0  501  502  0.00000000000E+00  0.00000000000E+00  0.60476521225E+02  0.60476521225E+02  0.00000000000E+00 0. -1.
          1   -1    0    0  502    0 -0.00000000000E+00 -0.00000000000E+00 -0.15919687625E+04  0.15919687625E+04  0.00000000000E+00 0. -1.
         23    2    1    2    0    0  0.53781900189E+02 -0.24020136741E+03 -0.75842730010E+03  0.80229885798E+03  0.88782308399E+02 0.  0.
        -24    2    1    2    0    0 -0.12621928311E+03  0.17995290476E+03 -0.38722780409E+03  0.45297222209E+03  0.83211215369E+02 0.  0.
         11    1    4    4    0    0 -0.92125550247E+02  0.12066822778E+03 -0.18399684327E+03  0.23854302869E+03  0.00000000000E+00 0. -1.
        -12    1    4    4    0    0 -0.34093732862E+02  0.59284676977E+02 -0.20323096082E+03  0.21442919339E+03  0.00000000000E+00 0.  1.
        -13    1    3    3    0    0 -0.23418005862E+02 -0.80078959909E+02 -0.26533524319E+03  0.27814354944E+03  0.00000000000E+00 0.  1.
         13    1    3    3    0    0  0.77199906051E+02 -0.16012240750E+03 -0.49309205691E+03  0.52415530854E+03  0.00000000000E+00 0. -1.
          2    1    1    2  501    0  0.72437382921E+02  0.60248462655E+02 -0.38583713706E+03  0.39717420363E+03  0.00000000000E+00 0. -1.
<scales pt_clust_5="13000.00000" pt_clust_6="13000.00000" pt_clust_7="13000.00000" pt_clust_8="13000.00000" pt_clust_9="94.21815"></scales>
<clustering>
<clus scale="   83.211">  5  6 -1 -1</clus>
<clus scale="   88.782">  7  8 -1 -1</clus>
<clus scale="   94.218">  1  9  2 -1</clus>
<clus scale="  245.906">  1  5  2 -1</clus>
<clus scale="   94.218">  1  5  2 -1</clus>
</clustering>
</event>
<event>
 9    1  0.8429841E-005  0.4517466E+03  0.7546771E-02  0.1027698E+00
         21   -1    0    0  501  502  0.00000000000E+00  0.00000000000E+00  0.45682580045E+03  0.45682580045E+03  0.00000000000E+00 0. -1.
          1   -1    0    0  502    0 -0.00000000000E+00 -0.00000000000E+00 -0.91633038561E+03  0.91633038561E+03  0.00000000000E+00 0. -1.
         23    2    1    2    0    0  0.46949824728E+03  0.81908597086E+02 -0.66828352093E+03  0.82823954356E+03  0.11063568453E+03 0.  0.
        -24    2    1    2    0    0 -0.33166742165E+03 -0.31727487595E+02  0.84766956510E+02  0.35283735875E+03  0.79365312079E+02 0.  0.
         13    1    4    4    0    0 -0.30447545394E+03 -0.44648482802E+02  0.59274387920E+02  0.31338832481E+03  0.00000000000E+00 0. -1.
        -14    1    4    4    0    0 -0.27191967713E+02  0.12920995207E+02  0.25492568590E+02  0.39449033937E+02  0.00000000000E+00 0.  1.
        -11    1    3    3    0    0  0.33052615012E+02  0.36315764636E+02 -0.50216561072E+02  0.70235412194E+02  0.00000000000E+00 0.  1.
         11    1    3    3    0    0  0.43644563227E+03  0.45592832450E+02 -0.61806695986E+03  0.75800413136E+03  0.00000000000E+00 0. -1.
          2    1    1    2  501    0 -0.13783082563E+03 -0.50181109491E+02  0.12401197927E+03  0.19207928375E+03  0.00000000000E+00 0. -1.
<scales pt_clust_5="13000.00000" pt_clust_6="13000.00000" pt_clust_7="13000.00000" pt_clust_8="13000.00000" pt_clust_9="146.68156"></scales>
<clustering>
<clus scale="   79.365">  5  6 -1 -1</clus>
<clus scale="  110.636">  7  8 -1 -1</clus>
<clus scale="  146.682">  1  9  2 -1</clus>
<clus scale="  445.122">  1  5  2 -1</clus>
<clus scale="  146.682">  1  5  2 -1</clus>
</clustering>
</event>
<event>
 9    1  0.8429841E-005  0.1316138E+03  0.7546771E-02  0.1245181E+00
         21   -1    0    0  501  502  0.00000000000E+00  0.00000000000E+00  0.23763460572E+03  0.23763460572E+03  0.00000000000E+00 0. -1.
         -4   -1    0    0    0  501 -0.00000000000E+00 -0.00000000000E+00 -0.12097642680E+03  0.12097642680E+03  0.00000000000E+00 0.  1.
         23    2    1    2    0    0  0.38152986221E+01 -0.50845211442E+01  0.10408659957E+02  0.87828474341E+02  0.86977536434E+02 0.  0.
        -24    2    1    2    0    0 -0.89099661712E+02  0.57301988357E+02  0.10657201450E+03  0.17078160581E+03  0.81157224097E+02 0.  0.
         13    1    4    4    0    0 -0.82476932361E+02  0.43290432255E+02  0.11885485228E+03  0.15100656213E+03  0.00000000000E+00 0. -1.
        -14    1    4    4    0    0 -0.66227293509E+01  0.14011556102E+02 -0.12282837785E+02  0.19775043679E+02  0.00000000000E+00 0.  1.
        -13    1    3    3    0    0  0.37812551623E+01 -0.25596222188E+02  0.42491379772E+02  0.49749189298E+02  0.00000000000E+00 0.  1.
         13    1    3    3    0    0  0.34043459751E-01  0.20511701044E+02 -0.32082719815E+02  0.38079285043E+02  0.00000000000E+00 0. -1.
         -3    1    1    2    0  502  0.85284363090E+02 -0.52217467213E+02 -0.32249553472E+00  0.10000095236E+03  0.00000000000E+00 0.  1.
<scales pt_clust_5="13000.00000" pt_clust_6="13000.00000" pt_clust_7="13000.00000" pt_clust_8="13000.00000" pt_clust_9="103.61323"></scales>
<clustering>
<clus scale="   81.157">  5  6 -1 -1</clus>
<clus scale="   86.978">  7  8 -1 -1</clus>
<clus scale="   87.210">  2  7  1 -1</clus>
<clus scale="  103.613">  1  9  2 -1</clus>
<clus scale="  103.613">  1  5  2 -1</clus>
</clustering>
</event>
<event>
 9    1  0.8429841E-005  0.1096966E+03  0.7546771E-02  0.1265492E+00
         21   -1    0    0  501  502  0.00000000000E+00  0.00000000000E+00  0.17888000648E+03  0.17888000648E+03  0.00000000000E+00 0.  1.
          1   -1    0    0  502    0 -0.00000000000E+00 -0.00000000000E+00 -0.12834025305E+03  0.12834025305E+03  0.00000000000E+00 0. -1.
         23    2    1    2    0    0 -0.58711931823E+02 -0.20346337611E+02 -0.64407138985E+02  0.12804913521E+03  0.91581860015E+02 0.  0.
        -24    2    1    2    0    0  0.57372092626E+02 -0.67304856912E+01  0.11525513040E+03  0.15205941947E+03  0.80631665728E+02 0.  0.
         13    1    4    4    0    0  0.30964532052E+02 -0.43820383511E+02  0.62738426399E+02  0.82553851535E+02  0.00000000000E+00 0. -1.
        -14    1    4    4    0    0  0.26407560574E+02  0.37089897820E+02  0.52516703998E+02  0.69505567939E+02  0.00000000000E+00 0.  1.
        -13    1    3    3    0    0 -0.82851666173E+02 -0.23680556786E+02 -0.47554522387E+02  0.98420526095E+02  0.00000000000E+00 0. -1.
         13    1    3    3    0    0  0.24139734351E+02  0.33342191748E+01 -0.16852616598E+02  0.29628609117E+02  0.00000000000E+00 0.  1.
          2    1    1    2  501    0  0.13398391969E+01  0.27076823303E+02 -0.30823798342E+00  0.27111704850E+02  0.00000000000E+00 0. -1.
<scales pt_clust_5="13000.00000" pt_clust_6="13000.00000" pt_clust_7="13000.00000" pt_clust_8="13000.00000" pt_clust_9="27.10997"></scales>
<clustering>
<clus scale="   27.110">  1  9  2 -1</clus>
<clus scale="   80.632">  5  6 -1 -1</clus>
<clus scale="   91.582">  7  8 -1 -1</clus>
<clus scale="  100.735">  1  5  2 -1</clus>
<clus scale="   27.110">  1  5  2 -1</clus>
</clustering>
</event>
<event>
 9    1  0.8429841E-005  0.1038214E+03  0.7546771E-02  0.1275916E+00
         21   -1    0    0  501  502  0.00000000000E+00  0.00000000000E+00  0.66162533344E+02  0.66162533344E+02  0.00000000000E+00 0.  1.
         -2   -1    0    0    0  501 -0.00000000000E+00 -0.00000000000E+00 -0.44186509443E+03  0.44186509443E+03  0.00000000000E+00 0.  1.
        -24    2    1    2    0    0 -0.49729761727E+02 -0.35686734888E+02 -0.34572257160E+03  0.36034692959E+03  0.81112396729E+02 0.  0.
         23    2    1    2    0    0  0.24555600103E+02  0.67244472680E+01 -0.49131127425E+02  0.10479342032E+03  0.88992120846E+02 0.  0.
         11    1    3    3    0    0 -0.14059386614E+02  0.23798803919E+02 -0.56171492488E+02  0.62604201044E+02  0.00000000000E+00 0. -1.
        -12    1    3    3    0    0 -0.35670375113E+02 -0.59485538807E+02 -0.28955107911E+03  0.29774272855E+03  0.00000000000E+00 0.  1.
        -13    1    4    4    0    0  0.49347721614E+02  0.40072231378E+00  0.56297208372E-01  0.49349380708E+02  0.00000000000E+00 0. -1.
         13    1    4    4    0    0 -0.24792121511E+02  0.63237249542E+01 -0.49187424634E+02  0.55444039611E+02  0.00000000000E+00 0.  1.
         -1    1    1    2    0  502  0.25174161624E+02  0.28962287620E+02  0.19151137943E+02  0.42887277859E+02  0.00000000000E+00 0.  1.
<scales pt_clust_5="13000.00000" pt_clust_6="13000.00000" pt_clust_7="13000.00000" pt_clust_8="13000.00000" pt_clust_9="38.37385"></scales>
<clustering>
<clus scale="   38.374">  1  9  2 -1</clus>
<clus scale="   81.112">  5  6 -1 -1</clus>
<clus scale="   88.992">  7  8 -1 -1</clus>
<clus scale="   97.152">  2  5  1 -1</clus>
<clus scale="   38.374">  1  5  2 -1</clus>
</clustering>
</event>
<event>
 9    1  0.8429841E-005  0.1410587E+03  0.7546771E-02  0.1239382E+00
          1   -1    0    0  502    0 -0.00000000000E+00  0.00000000000E+00  0.13995823370E+03  0.13995823370E+03  0.00000000000E+00 0. -1.
         21   -1    0    0  501  502  0.00000000000E+00 -0.00000000000E+00 -0.32658087107E+03  0.32658087107E+03  0.00000000000E+00 0. -1.
        -24    2    1    2    0    0 -0.37741468762E+01 -0.19586528525E+02 -0.12563232717E+03  0.14875724652E+03  0.77119131716E+02 0.  0.
         23    2    1    2    0    0  0.75201240866E+02  0.96132082291E+02  0.54428072667E+02  0.16195357244E+03  0.91487379777E+02 0.  0.
         13    1    3    3    0    0  0.18975435677E+02  0.21508090543E+02 -0.71779632809E+02  0.77298000001E+02  0.00000000000E+00 0. -1.
        -14    1    3    3    0    0 -0.22749582553E+02 -0.41094619068E+02 -0.53852694364E+02  0.71459246518E+02  0.00000000000E+00 0.  1.
        -13    1    4    4    0    0  0.16279412528E+02 -0.17791600918E+02  0.59510483352E+01  0.24838987736E+02  0.00000000000E+00 0.  1.
         13    1    4    4    0    0  0.58921828338E+02  0.11392368321E+03  0.48477024332E+02  0.13711458470E+03  0.00000000000E+00 0. -1.
          2    1    1    2  501    0 -0.71427093990E+02 -0.76545553766E+02 -0.11541838286E+03  0.15582828581E+03  0.00000000000E+00 0. -1.
<scales pt_clust_5="13000.00000" pt_clust_6="13000.00000" pt_clust_7="13000.00000" pt_clust_8="13000.00000" pt_clust_9="107.36671"></scales>
<clustering>
<clus scale="   77.119">  5  6 -1 -1</clus>
<clus scale="   79.657">  1  5  2 -1</clus>
<clus scale="   91.487">  7  8 -1 -1</clus>
<clus scale="  107.367">  2  9  1 -1</clus>
<clus scale="  107.367">  2  5  1 -1</clus>
</clustering>
</event>
<event>
 9    1  0.8429841E-005  0.9609142E+02  0.7546771E-02  0.1293249E+00
          3   -1    0    0  502    0 -0.00000000000E+00  0.00000000000E+00  0.89109047476E+02  0.89109047476E+02  0.00000000000E+00 0. -1.
         21   -1    0    0  501  502  0.00000000000E+00 -0.00000000000E+00 -0.35254526862E+03  0.35254526862E+03  0.00000000000E+00 0. -1.
         23    2    1    2    0    0  0.21669015601E+02  0.13325229603E+00  0.19354061513E+02  0.96100262123E+02  0.91603038649E+02 0.  0.
        -24    2    1    2    0    0 -0.39183097634E+02 -0.74116255059E+02 -0.13587474543E+03  0.18013216048E+03  0.83409318366E+02 0.  0.
         13    1    4    4    0    0 -0.12250599739E+02 -0.81095660314E+02 -0.12652345783E+03  0.15078053156E+03  0.00000000000E+00 0. -1.
        -14    1    4    4    0    0 -0.26932497894E+02  0.69794052555E+01 -0.93512875948E+01  0.29351628920E+02  0.00000000000E+00 0.  1.
        -11    1    3    3    0    0  0.37457183592E+02 -0.33873057847E+02  0.27828980292E+02  0.57661744638E+02  0.00000000000E+00 0. -1.
         11    1    3    3    0    0 -0.15788167992E+02  0.34006310143E+02 -0.84749187786E+01  0.38438517485E+02  0.00000000000E+00 0.  1.
          4    1    1    2  501    0  0.17514082033E+02  0.73983002763E+02 -0.14691553723E+03  0.16542189349E+03  0.00000000000E+00 0. -1.
<scales pt_clust_5="13000.00000" pt_clust_6="13000.00000" pt_clust_7="13000.00000" pt_clust_8="13000.00000" pt_clust_9="76.02781"></scales>
<clustering>
<clus scale="   76.028">  2  9  1 -1</clus>
<clus scale="   83.409">  5  6 -1 -1</clus>
<clus scale="   88.315">  2  5  1 -1</clus>
<clus scale="   91.603">  7  8 -1 -1</clus>
<clus scale="   76.028">  2  5  1 -1</clus>
</clustering>
</event>
<event>
 9    1  0.8429841E-005  0.1181966E+03  0.7546771E-02  0.1249463E+00
         21   -1    0    0  501  502  0.00000000000E+00  0.00000000000E+00  0.23716884431E+03  0.23716884431E+03  0.00000000000E+00 0.  1.
          1   -1    0    0  502    0 -0.00000000000E+00 -0.00000000000E+00 -0.30202831912E+03  0.30202831912E+03  0.00000000000E+00 0. -1.
        -24    2    1    2    0    0  0.72142801939E+02 -0.16874728967E+02 -0.24719320672E+03  0.27035296056E+03  0.80603359047E+02 0.  0.
         23    2    1    2    0    0 -0.10254680348E+03 -0.29609351601E+02  0.11333323294E+03  0.18026518777E+03  0.90876595602E+02 0.  0.
         11    1    3    3    0    0  0.51364306139E+02 -0.44485821899E+02 -0.20410994022E+03  0.21512356447E+03  0.00000000000E+00 0. -1.
        -12    1    3    3    0    0  0.20778495800E+02  0.27611092932E+02 -0.43083266501E+02  0.55229396095E+02  0.00000000000E+00 0.  1.
        -11    1    4    4    0    0 -0.97351403734E+02  0.51793131940E+01  0.10659192810E+03  0.14445054597E+03  0.00000000000E+00 0.  1.
         11    1    4    4    0    0 -0.51953997471E+01 -0.34788664795E+02  0.67413048367E+01  0.35814641805E+02  0.00000000000E+00 0. -1.
          2    1    1    2  501    0  0.30404001541E+02  0.46484080568E+02  0.69000498979E+02  0.88579015096E+02  0.00000000000E+00 0. -1.
<scales pt_clust_5="13000.00000" pt_clust_6="13000.00000" pt_clust_7="13000.00000" pt_clust_8="13000.00000" pt_clust_9="55.54433"></scales>
<clustering>
<clus scale="   55.544">  1  9  2 -1</clus>
<clus scale="   80.603">  5  6 -1 -1</clus>
<clus scale="   90.877">  7  8 -1 -1</clus>
<clus scale="  110.493">  2  5  1 -1</clus>
<clus scale="   55.544">  1  5  2 -1</clus>
</clustering>
</event>
<event>
 9    1  0.8429841E-005  0.1417814E+03  0.7546771E-02  0.1212171E+00
          1   -1    0    0  502    0 -0.00000000000E+00  0.00000000000E+00  0.18439818738E+03  0.18439818738E+03  0.00000000000E+00 0. -1.
         21   -1    0    0  501  502  0.00000000000E+00 -0.00000000000E+00 -0.17126068784E+03  0.17126068784E+03  0.00000000000E+00 0.  1.
         23    2    1    2    0    0 -0.87261258854E+02  0.88132302726E+02  0.28842804999E+02  0.15393175082E+03  0.86494198823E+02 0.  0.
        -24    2    1    2    0    0  0.90947159434E+02 -0.39183893879E+02 -0.54941434349E+02  0.13888600409E+03  0.80398989893E+02 0.  0.
         13    1    4    4    0    0  0.97161780706E+02 -0.10963800345E+02 -0.49064746858E+02  0.10939819894E+03  0.00000000000E+00 0. -1.
        -14    1    4    4    0    0 -0.62146212717E+01 -0.28220093534E+02 -0.58766874904E+01  0.29487805148E+02  0.00000000000E+00 0.  1.
        -13    1    3    3    0    0 -0.73228269389E+02  0.10478797515E+03  0.32357298686E+02  0.13187074715E+03  0.00000000000E+00 0.  1.
         13    1    3    3    0    0 -0.14032989465E+02 -0.16655672427E+02 -0.35144936863E+01  0.22061003676E+02  0.00000000000E+00 0. -1.
          2    1    1    2  501    0 -0.36859005806E+01 -0.48948408847E+02  0.39236128890E+02  0.62841120312E+02  0.00000000000E+00 0. -1.
<scales pt_clust_5="13000.00000" pt_clust_6="13000.00000" pt_clust_7="13000.00000" pt_clust_8="13000.00000" pt_clust_9="49.08701"></scales>
<clustering>
<clus scale="   49.087">  2  9  1 -1</clus>
<clus scale="   80.399">  5  6 -1 -1</clus>
<clus scale="   86.494">  7  8 -1 -1</clus>
<clus scale="  138.147">  2  5  1 -1</clus>
<clus scale="   49.087">  2  5  1 -1</clus>
</clustering>
</event>
<event>
 9    1  0.8429841E-005  0.1726027E+03  0.7546771E-02  0.1176366E+00
         21   -1    0    0  501  502  0.00000000000E+00  0.00000000000E+00  0.62807552257E+02  0.62807552257E+02  0.00000000000E+00 0.  1.
          1   -1    0    0  502    0 -0.00000000000E+00 -0.00000000000E+00 -0.81855283849E+03  0.81855283849E+03  0.00000000000E+00 0. -1.
        -24    2    1    2    0    0  0.77091762523E+02  0.12052403699E+03 -0.52209944150E+03  0.54732196737E+03  0.80649400529E+02 0.  0.
         23    2    1    2    0    0 -0.47529018315E+02 -0.15922109706E+03 -0.17222024052E+03  0.25565141453E+03  0.89930357362E+02 0.  0.
         11    1    3    3    0    0  0.50252488638E+02  0.24633480740E+02 -0.28010962245E+03  0.28564579741E+03  0.00000000000E+00 0. -1.
        -12    1    3    3    0    0  0.26839273885E+02  0.95890556246E+02 -0.24198981905E+03  0.26167616996E+03  0.00000000000E+00 0.  1.
        -11    1    4    4    0    0 -0.16057088605E+02 -0.26645836010E+02 -0.92934563225E+02  0.98003386232E+02  0.00000000000E+00 0. -1.
         11    1    4    4    0    0 -0.31471929710E+02 -0.13257526105E+03 -0.79285677298E+02  0.15764802830E+03  0.00000000000E+00 0.  1.
          2    1    1    2  501    0 -0.29562744208E+02  0.38697060074E+02 -0.61425604201E+02  0.78387008841E+02  0.00000000000E+00 0. -1.
<scales pt_clust_5="13000.00000" pt_clust_6="13000.00000" pt_clust_7="13000.00000" pt_clust_8="13000.00000" pt_clust_9="48.69721"></scales>
<clustering>
<clus scale="   48.697">  1  9  2 -1</clus>
<clus scale="   80.649">  5  6 -1 -1</clus>
<clus scale="   89.930">  7  8 -1 -1</clus>
<clus scale="  167.954">  2  5  1 -1</clus>
<clus scale="   48.697">  1  5  2 -1</clus>
</clustering>
</event>
<event>
 9    1  0.8429841E-005  0.8616067E+02  0.7546771E-02  0.1315709E+00
         -4   -1    0    0    0  501 -0.00000000000E+00  0.00000000000E+00  0.21265227352E+03  0.21265227352E+03  0.00000000000E+00 0.  1.
         21   -1    0    0  501  502  0.00000000000E+00 -0.00000000000E+00 -0.10282880015E+03  0.10282880015E+03  0.00000000000E+00 0. -1.
        -24    2    1    2    0    0 -0.14736821617E+02  0.86992294101E+01  0.11225892008E+03  0.13866533026E+03  0.79581142079E+02 0.  0.
         23    2    1    2    0    0  0.21683966292E+02  0.26464428309E+02 -0.59832663458E+02  0.10914605940E+03  0.84630693648E+02 0.  0.
         11    1    3    3    0    0 -0.82025925593E+01  0.43205964443E+02  0.78341517577E+02  0.89841144607E+02  0.00000000000E+00 0. -1.
        -12    1    3    3    0    0 -0.65342290573E+01 -0.34506735032E+02  0.33917402500E+02  0.48824185650E+02  0.00000000000E+00 0.  1.
        -11    1    4    4    0    0  0.44313774528E+02  0.24678279157E+02 -0.64413730961E+01  0.51129437337E+02  0.00000000000E+00 0. -1.
         11    1    4    4    0    0 -0.22629808237E+02  0.17861491519E+01 -0.53391290361E+02  0.58016622067E+02  0.00000000000E+00 0.  1.
         -3    1    1    2    0  502 -0.69471446748E+01 -0.35163657719E+02  0.57397216745E+02  0.67669684005E+02  0.00000000000E+00 0.  1.
<scales pt_clust_5="13000.00000" pt_clust_6="13000.00000" pt_clust_7="13000.00000" pt_clust_8="13000.00000" pt_clust_9="35.84337"></scales>
<clustering>
<clus scale="   35.843">  2  9  1 -1</clus>
<clus scale="   79.581">  5  6 -1 -1</clus>
<clus scale="   81.206">  1  5  2 -1</clus>
<clus scale="   84.631">  7  8 -1 -1</clus>
<clus scale="   35.843">  2  5  1 -1</clus>
</clustering>
</event>
<event>
 9    1  0.8429841E-005  0.2225303E+03  0.7546771E-02  0.1132788E+00
         21   -1    0    0  501  502  0.00000000000E+00  0.00000000000E+00  0.39668948461E+03  0.39668948461E+03  0.00000000000E+00 0.  1.
          1   -1    0    0  502    0 -0.00000000000E+00 -0.00000000000E+00 -0.23555996885E+03  0.23555996885E+03  0.00000000000E+00 0. -1.
        -24    2    1    2    0    0 -0.12566155701E+03 -0.15829799867E+03 -0.46309696916E+02  0.22230852677E+03  0.80171127916E+02 0.  0.
         23    2    1    2    0    0  0.95436226664E+02  0.18658316980E+03  0.25798551684E+03  0.34460678276E+03  0.90972277156E+02 0.  0.
         11    1    3    3    0    0 -0.89495369786E+02 -0.15627680471E+03 -0.46846785731E+02  0.18608192345E+03  0.00000000000E+00 0. -1.
        -12    1    3    3    0    0 -0.36166187223E+02 -0.20211939659E+01  0.53708881558E+00  0.36226603314E+02  0.00000000000E+00 0.  1.
        -13    1    4    4    0    0  0.10275614175E+03  0.13688243294E+03  0.23124137250E+03  0.28769462538E+03  0.00000000000E+00 0.  1.
         13    1    4    4    0    0 -0.73199150832E+01  0.49700736862E+02  0.26744144337E+02  0.56912157381E+02  0.00000000000E+00 0. -1.
          2    1    1    2  501    0  0.30225330345E+02 -0.28285171128E+02 -0.50546304159E+02  0.65334143940E+02  0.00000000000E+00 0. -1.
<scales pt_clust_5="13000.00000" pt_clust_6="13000.00000" pt_clust_7="13000.00000" pt_clust_8="13000.00000" pt_clust_9="41.39593"></scales>
<clustering>
<clus scale="   41.396">  1  9  2 -1</clus>
<clus scale="   80.171">  5  6 -1 -1</clus>
<clus scale="   90.972">  7  8 -1 -1</clus>
<clus scale="  218.337">  2  5  1 -1</clus>
<clus scale="   41.396">  1  5  2 -1</clus>
</clustering>
</event>
<event>
 9    1  0.8429841E-005  0.1075662E+03  0.7546771E-02  0.1269221E+00
         21   -1    0    0  501  502  0.00000000000E+00  0.00000000000E+00  0.20270702000E+03  0.20270702000E+03  0.00000000000E+00 0. -1.
          1   -1    0    0  502    0 -0.00000000000E+00 -0.00000000000E+00 -0.13917084419E+03  0.13917084419E+03  0.00000000000E+00 0. -1.
         23    2    1    2    0    0 -0.18807548300E+02  0.32085404945E+02  0.67546178418E+02  0.11900763571E+03  0.90648409004E+02 0.  0.
        -24    2    1    2    0    0  0.71401131161E+02 -0.43290790235E+02  0.66764273804E+02  0.13398466262E+03  0.80760185176E+02 0.  0.
         13    1    4    4    0    0  0.87059543802E+02 -0.32136998668E+02  0.67487440328E+02  0.11474626553E+03  0.00000000000E+00 0. -1.
        -14    1    4    4    0    0 -0.15658412641E+02 -0.11153791567E+02 -0.72316652429E+00  0.19238397089E+02  0.00000000000E+00 0.  1.
        -13    1    3    3    0    0 -0.22107096763E+02  0.98748628968E+01  0.86374581162E+02  0.89703984948E+02  0.00000000000E+00 0. -1.
         13    1    3    3    0    0  0.32995484636E+01  0.22210542048E+02 -0.18828402744E+02  0.29303650763E+02  0.00000000000E+00 0.  1.
          2    1    1    2  501    0 -0.52593582861E+02  0.11205385290E+02 -0.70774276410E+02  0.88885565864E+02  0.00000000000E+00 0. -1.
<scales pt_clust_5="13000.00000" pt_clust_6="13000.00000" pt_clust_7="13000.00000" pt_clust_8="13000.00000" pt_clust_9="53.77405"></scales>
<clustering>
<clus scale="   53.774">  1  9  2 -1</clus>
<clus scale="   80.760">  5  6 -1 -1</clus>
<clus scale="   90.648">  7  8 -1 -1</clus>
<clus scale="   99.376">  1  5  2 -1</clus>
<clus scale="   53.774">  1  5  2 -1</clus>
</clustering>
</event>
<event>
 9    1  0.8429841E-005  0.3000652E+03  0.7546771E-02  0.1134419E+00
         21   -1    0    0  501  502  0.00000000000E+00  0.00000000000E+00  0.31639559173E+03  0.31639559173E+03  0.00000000000E+00 0. -1.
          1   -1    0    0  502    0 -0.00000000000E+00 -0.00000000000E+00 -0.53184471635E+03  0.53184471635E+03  0.00000000000E+00 0. -1.
        -24    2    1    2    0    0  0.28553315880E+02  0.81554986128E+01 -0.17108777073E+03  0.19129836623E+03  0.80263538575E+02 0.  0.
         23    2    1    2    0    0  0.11660222717E+03 -0.25595758090E+03 -0.17215577989E+03  0.34260546770E+03  0.92900653090E+02 0.  0.
         13    1    3    3    0    0 -0.24196334651E+02 -0.14452802565E+02 -0.57419577780E+02  0.63963693022E+02  0.00000000000E+00 0. -1.
        -14    1    3    3    0    0  0.52749650530E+02  0.22608301178E+02 -0.11366819295E+03  0.12733467321E+03  0.00000000000E+00 0.  1.
        -13    1    4    4    0    0  0.41022463449E+02 -0.24044031130E+02 -0.52786147622E+02  0.71044600929E+02  0.00000000000E+00 0.  1.
         13    1    4    4    0    0  0.75579763723E+02 -0.23191354977E+03 -0.11936963227E+03  0.27156086677E+03  0.00000000000E+00 0. -1.
          2    1    1    2  501    0 -0.14515554305E+03  0.24780208229E+03  0.12779442600E+03  0.31433647415E+03  0.00000000000E+00 0. -1.
<scales pt_clust_5="13000.00000" pt_clust_6="13000.00000" pt_clust_7="13000.00000" pt_clust_8="13000.00000" pt_clust_9="285.32193"></scales>
<clustering>
<clus scale="   80.264">  5  6 -1 -1</clus>
<clus scale="   85.581">  2  5  1 -1</clus>
<clus scale="   92.901">  7  8 -1 -1</clus>
<clus scale="  285.322">  1  9  2 -1</clus>
<clus scale="  285.322">  1  5  2 -1</clus>
</clustering>
</event>
<event>
 9    1  0.8429841E-005  0.1769749E+03  0.7546771E-02  0.1171845E+00
         -2   -1    0    0    0  501 -0.00000000000E+00  0.00000000000E+00  0.11618920987E+03  0.11618920987E+03  0.00000000000E+00 0.  1.
         21   -1    0    0  501  502  0.00000000000E+00 -0.00000000000E+00 -0.57180949845E+03  0.57180949845E+03  0.00000000000E+00 0.  1.
         23    2    1    2    0    0  0.34822080268E+02  0.10104480775E+03 -0.12236916295E+03  0.18599349445E+03  0.90535835389E+02 0.  0.
        -24    2    1    2    0    0 -0.92510025097E+02 -0.21485490718E+03 -0.22314606720E+03  0.33347105828E+03  0.81780459249E+02 0.  0.
         11    1    4    4    0    0 -0.67475333455E+02 -0.97185185200E+02 -0.15569936538E+03  0.19555094791E+03  0.00000000000E+00 0. -1.
        -12    1    4    4    0    0 -0.25034691643E+02 -0.11766972198E+03 -0.67446701819E+02  0.13792011037E+03  0.00000000000E+00 0.  1.
        -13    1    3    3    0    0  0.47968397037E+01  0.10854855722E+03 -0.10132090605E+03  0.14856555775E+03  0.00000000000E+00 0.  1.
         13    1    3    3    0    0  0.30025240565E+02 -0.75037494765E+01 -0.21048256905E+02  0.37427936704E+02  0.00000000000E+00 0. -1.
         -1    1    1    2    0  502  0.57687944829E+02  0.11381009944E+03 -0.11010505842E+03  0.16853415560E+03  0.00000000000E+00 0.  1.
<scales pt_clust_5="13000.00000" pt_clust_6="13000.00000" pt_clust_7="13000.00000" pt_clust_8="13000.00000" pt_clust_9="127.59567"></scales>
<clustering>
<clus scale="   81.780">  5  6 -1 -1</clus>
<clus scale="   90.536">  7  8 -1 -1</clus>
<clus scale="  127.596">  2  9  1 -1</clus>
<clus scale="  172.660">  2  5  1 -1</clus>
<clus scale="  127.596">  2  5  1 -1</clus>
</clustering>
</event>
<event>
 9    1  0.8429841E-005  0.1416777E+03  0.7546771E-02  0.1230648E+00
         21   -1    0    0  501  502  0.00000000000E+00  0.00000000000E+00  0.99503437751E+02  0.99503437751E+02  0.00000000000E+00 0. -1.
          1   -1    0    0  502    0 -0.00000000000E+00 -0.00000000000E+00 -0.32859483371E+03  0.32859483371E+03  0.00000000000E+00 0. -1.
         23    2    1    2    0    0 -0.35480038479E+02  0.69861195191E+01 -0.89202144453E+02  0.12959863790E+03  0.86782171977E+02 0.  0.
        -24    2    1    2    0    0  0.12529471671E+03  0.49565605295E+02 -0.91911887626E+02  0.18202387880E+03  0.80804592091E+02 0.  0.
         13    1    4    4    0    0  0.12022746697E+03  0.14371023675E+02 -0.64974311536E+02  0.13741481469E+03  0.00000000000E+00 0. -1.
        -14    1    4    4    0    0  0.50672497343E+01  0.35194581619E+02 -0.26937576090E+02  0.44609064111E+02  0.00000000000E+00 0.  1.
        -11    1    3    3    0    0 -0.17403278068E+02 -0.31027502373E+02 -0.56207321392E+01  0.36016282717E+02  0.00000000000E+00 0.  1.
         11    1    3    3    0    0 -0.18076760411E+02  0.38013621892E+02 -0.83581412314E+02  0.93582355178E+02  0.00000000000E+00 0. -1.
          2    1    1    2  501    0 -0.89814678226E+02 -0.56551724814E+02 -0.47977363881E+02  0.11647575477E+03  0.00000000000E+00 0. -1.
<scales pt_clust_5="13000.00000" pt_clust_6="13000.00000" pt_clust_7="13000.00000" pt_clust_8="13000.00000" pt_clust_9="116.37518"></scales>
<clustering>
<clus scale="   80.805">  5  6 -1 -1</clus>
<clus scale="   86.782">  7  8 -1 -1</clus>
<clus scale="   94.015">  2  7  1 -1</clus>
<clus scale="  116.375">  1  9  2 -1</clus>
<clus scale="  116.375">  1  5  2 -1</clus>
</clustering>
</event>
<event>
 9    1  0.8429841E-005  0.1075815E+03  0.7546771E-02  0.1271413E+00
          1   -1    0    0  502    0 -0.00000000000E+00  0.00000000000E+00  0.10613879210E+03  0.10613879210E+03  0.00000000000E+00 0. -1.
         21   -1    0    0  501  502  0.00000000000E+00 -0.00000000000E+00 -0.28930934733E+03  0.28930934733E+03  0.00000000000E+00 0. -1.
        -24    2    1    2    0    0 -0.73063858055E+02  0.68908866220E+01  0.38418614287E+02  0.11376510385E+03  0.77978825697E+02 0.  0.
         23    2    1    2    0    0 -0.42948916684E+01 -0.12574572919E+02 -0.96181331875E+02  0.13422522403E+03  0.92676837373E+02 0.  0.
         11    1    3    3    0    0 -0.82511296152E+02 -0.14395319354E+02  0.31263820894E+02  0.89402269037E+02  0.00000000000E+00 0. -1.
        -12    1    3    3    0    0  0.94474380971E+01  0.21286205976E+02  0.71547933924E+01  0.24362834809E+02  0.00000000000E+00 0.  1.
        -13    1    4    4    0    0  0.25987890138E+02  0.96440107462E+01  0.32756197211E+01  0.27912489349E+02  0.00000000000E+00 0.  1.
         13    1    4    4    0    0 -0.30282781806E+02 -0.22218583665E+02 -0.99456951596E+02  0.10631273468E+03  0.00000000000E+00 0. -1.
          2    1    1    2  501    0  0.77358749723E+02  0.56836862969E+01 -0.12540783764E+03  0.14745781156E+03  0.00000000000E+00 0. -1.
<scales pt_clust_5="13000.00000" pt_clust_6="13000.00000" pt_clust_7="13000.00000" pt_clust_8="13000.00000" pt_clust_9="77.56726"></scales>
<clustering>
<clus scale="   77.567">  2  9  1 -1</clus>
<clus scale="   77.979">  5  6 -1 -1</clus>
<clus scale="   92.677">  7  8 -1 -1</clus>
<clus scale="   95.213">  1  5  2 -1</clus>
<clus scale="   77.567">  2  5  1 -1</clus>
</clustering>
</event>
<event>
 9    1  0.8429841E-005  0.1949746E+03  0.7546771E-02  0.1169856E+00
         21   -1    0    0  501  502  0.00000000000E+00  0.00000000000E+00  0.27091059202E+03  0.27091059202E+03  0.00000000000E+00 0.  1.
         -2   -1    0    0    0  501 -0.00000000000E+00 -0.00000000000E+00 -0.39383553404E+03  0.39383553404E+03  0.00000000000E+00 0.  1.
         23    2    1    2    0    0  0.14036656490E+02 -0.99324401701E+02 -0.34483512694E+02  0.13945235849E+03  0.90528907769E+02 0.  0.
        -24    2    1    2    0    0  0.90275957753E+02 -0.13350264209E+03  0.10136701912E+03  0.20730508709E+03  0.82020866708E+02 0.  0.
         13    1    4    4    0    0  0.73296747175E+02 -0.41690791818E+02  0.28987080764E+02  0.89167180734E+02  0.00000000000E+00 0. -1.
        -14    1    4    4    0    0  0.16979210578E+02 -0.91811850269E+02  0.72379938356E+02  0.11813790636E+03  0.00000000000E+00 0.  1.
        -11    1    3    3    0    0 -0.67063732169E+01 -0.10959391803E+03 -0.18556384708E+02  0.11135592361E+03  0.00000000000E+00 0.  1.
         11    1    3    3    0    0  0.20743029706E+02  0.10269516325E+02 -0.15927127986E+02  0.28096434877E+02  0.00000000000E+00 0. -1.
         -1    1    1    2    0  502 -0.10431261424E+03  0.23282704379E+03 -0.18980844845E+03  0.31798868048E+03  0.00000000000E+00 0.  1.
<scales pt_clust_5="13000.00000" pt_clust_6="13000.00000" pt_clust_7="13000.00000" pt_clust_8="13000.00000" pt_clust_9="176.88328"></scales>
<clustering>
<clus scale="   82.021">  5  6 -1 -1</clus>
<clus scale="   90.529">  7  8 -1 -1</clus>
<clus scale="  135.122">  2  7  1 -1</clus>
<clus scale="  176.883">  1  9  2 -1</clus>
<clus scale="  176.883">  1  5  2 -1</clus>
</clustering>
</event>
<event>
 9    1  0.8429841E-005  0.1048416E+03  0.7546771E-02  0.1274964E+00
          3   -1    0    0  502    0 -0.00000000000E+00  0.00000000000E+00  0.68488298196E+02  0.68488298196E+02  0.00000000000E+00 0. -1.
         21   -1    0    0  501  502  0.00000000000E+00 -0.00000000000E+00 -0.33854481746E+03  0.33854481746E+03  0.00000000000E+00 0. -1.
        -24    2    1    2    0    0  0.21760899012E+02 -0.44086460631E+02 -0.16187593320E+02  0.96004455546E+02  0.80855825829E+02 0.  0.
         23    2    1    2    0    0 -0.36165411515E+01  0.69269347829E+02 -0.25546491144E+03  0.27994904140E+03  0.91092386517E+02 0.  0.
         13    1    3    3    0    0 -0.27464655688E+02 -0.30558460368E+01 -0.15977926857E+02  0.31920834164E+02  0.00000000000E+00 0. -1.
        -14    1    3    3    0    0  0.49225554700E+02 -0.41030614594E+02 -0.20966646323E+00  0.64083621383E+02  0.00000000000E+00 0.  1.
        -13    1    4    4    0    0  0.11312487317E+02  0.23432520557E+02 -0.71314310141E+01  0.26979857250E+02  0.00000000000E+00 0.  1.
         13    1    4    4    0    0 -0.14929028468E+02  0.45836827272E+02 -0.24833348043E+03  0.25296918415E+03  0.00000000000E+00 0. -1.
          4    1    1    2  501    0 -0.18144357860E+02 -0.25182887198E+02  0.15959854978E+01  0.31079618715E+02  0.00000000000E+00 0. -1.
<scales pt_clust_5="13000.00000" pt_clust_6="13000.00000" pt_clust_7="13000.00000" pt_clust_8="13000.00000" pt_clust_9="31.03863"></scales>
<clustering>
<clus scale="   31.039">  2  9  1 -1</clus>
<clus scale="   80.856">  5  6 -1 -1</clus>
<clus scale="   91.092">  7  8 -1 -1</clus>
<clus scale="   96.081">  1  5  2 -1</clus>
<clus scale="   31.039">  2  5  1 -1</clus>
</clustering>
</event>
<event>
 9    1  0.8429841E-005  0.1204172E+03  0.7546771E-02  0.1245783E+00
         21   -1    0    0  501  502  0.00000000000E+00  0.00000000000E+00  0.42683830465E+02  0.42683830465E+02  0.00000000000E+00 0. -1.
          1   -1    0    0  502    0 -0.00000000000E+00 -0.00000000000E+00 -0.91419549083E+03  0.91419549083E+03  0.00000000000E+00 0. -1.
        -24    2    1    2    0    0 -0.61027871900E+02 -0.17135082055E+02 -0.44708038769E+03  0.45864105199E+03  0.80328882266E+02 0.  0.
         23    2    1    2    0    0  0.14549651203E+03 -0.93438091436E+01 -0.29484234188E+03  0.34130078548E+03  0.91091590301E+02 0.  0.
         13    1    3    3    0    0 -0.51240337915E+02 -0.45442309973E+02 -0.24652952516E+03  0.25586594642E+03  0.00000000000E+00 0. -1.
        -14    1    3    3    0    0 -0.97875339858E+01  0.28307227917E+02 -0.20055086253E+03  0.20277510557E+03  0.00000000000E+00 0.  1.
        -13    1    4    4    0    0  0.10689419736E+03  0.14997460880E+02 -0.12367759185E+03  0.16415675432E+03  0.00000000000E+00 0. -1.
         13    1    4    4    0    0  0.38602314667E+02 -0.24341270024E+02 -0.17116475003E+03  0.17714403117E+03  0.00000000000E+00 0.  1.
          2    1    1    2  501    0 -0.84468640129E+02  0.26478891199E+02 -0.12958893079E+03  0.15693748382E+03  0.00000000000E+00 0. -1.
<scales pt_clust_5="13000.00000" pt_clust_6="13000.00000" pt_clust_7="13000.00000" pt_clust_8="13000.00000" pt_clust_9="88.52165"></scales>
<clustering>
<clus scale="   80.329">  5  6 -1 -1</clus>
<clus scale="   88.522">  1  9  2 -1</clus>
<clus scale="   91.092">  7  8 -1 -1</clus>
<clus scale="  112.496">  2  5  1 -1</clus>
<clus scale="   88.522">  1  5  2 -1</clus>
</clustering>
</event>
<event>
 9    1  0.8429841E-005  0.9161197E+02  0.7546771E-02  0.1303221E+00
         21   -1    0    0  501  502  0.00000000000E+00  0.00000000000E+00  0.70304406059E+03  0.70304406059E+03  0.00000000000E+00 0. -1.
          1   -1    0    0  502    0 -0.00000000000E+00 -0.00000000000E+00 -0.21798674169E+02  0.21798674169E+02  0.00000000000E+00 0. -1.
         23    2    1    2    0    0  0.41488921281E+01  0.19517908115E+02  0.13944777110E+03  0.16599031290E+03  0.87800575566E+02 0.  0.
        -24    2    1    2    0    0 -0.36122418787E+02 -0.34495784215E+02  0.46135537418E+03  0.47100256506E+03  0.80621627000E+02 0.  0.
         11    1    4    4    0    0 -0.48295951848E+02  0.89162446068E+01  0.26772021821E+03  0.27218764414E+03  0.00000000000E+00 0. -1.
        -12    1    4    4    0    0  0.12173533060E+02 -0.43412028822E+02  0.19363515596E+03  0.19881492092E+03  0.00000000000E+00 0.  1.
        -13    1    3    3    0    0 -0.31084345733E+02 -0.15107164568E+02  0.29440107830E+02  0.45400252422E+02  0.00000000000E+00 0.  1.
         13    1    3    3    0    0  0.35233237861E+02  0.34625072683E+02  0.11000766327E+03  0.12059006048E+03  0.00000000000E+00 0. -1.
          2    1    1    2  501    0  0.31973526659E+02  0.14977876100E+02  0.80442241141E+02  0.87849856798E+02  0.00000000000E+00 0. -1.
<scales pt_clust_5="13000.00000" pt_clust_6="13000.00000" pt_clust_7="13000.00000" pt_clust_8="13000.00000" pt_clust_9="35.30785"></scales>
<clustering>
<clus scale="   35.308">  1  9  2 -1</clus>
<clus scale="   80.622">  5  6 -1 -1</clus>
<clus scale="   84.756">  1  5  2 -1</clus>
<clus scale="   87.801">  7  8 -1 -1</clus>
<clus scale="   35.308">  1  5  2 -1</clus>
</clustering>
</event>
<event>
 9    1  0.8429841E-005  0.1349511E+03  0.7546771E-02  0.1222367E+00
         21   -1    0    0  501  502  0.00000000000E+00  0.00000000000E+00  0.39473609049E+03  0.39473609049E+03  0.00000000000E+00 0. -1.
          1   -1    0    0  502    0 -0.00000000000E+00 -0.00000000000E+00 -0.19498253073E+03  0.19498253073E+03  0.00000000000E+00 0. -1.
         23    2    1    2    0    0 -0.87328650915E+02  0.59451437903E+02 -0.14562203610E+03  0.20153493541E+03  0.90828332876E+02 0.  0.
        -24    2    1    2    0    0  0.16809557857E+02 -0.54706243119E+02  0.25160174230E+03  0.27075713441E+03  0.82040568215E+02 0.  0.
         13    1    4    4    0    0 -0.14743889944E+02 -0.60042553617E+02  0.11619026640E+03  0.13161560904E+03  0.00000000000E+00 0. -1.
        -14    1    4    4    0    0  0.31553447801E+02  0.53363104981E+01  0.13541147589E+03  0.13914152537E+03  0.00000000000E+00 0.  1.
        -13    1    3    3    0    0 -0.34775219402E+02 -0.14122061474E+02 -0.10538020318E+02  0.38984591532E+02  0.00000000000E+00 0.  1.
         13    1    3    3    0    0 -0.52553431514E+02  0.73573499377E+02 -0.13508401579E+03  0.16255034388E+03  0.00000000000E+00 0. -1.
          2    1    1    2  501    0  0.70519093058E+02 -0.47451947837E+01  0.93773853577E+02  0.11742655140E+03  0.00000000000E+00 0. -1.
<scales pt_clust_5="13000.00000" pt_clust_6="13000.00000" pt_clust_7="13000.00000" pt_clust_8="13000.00000" pt_clust_9="70.67856"></scales>
<clustering>
<clus scale="   70.679">  1  9  2 -1</clus>
<clus scale="   82.041">  5  6 -1 -1</clus>
<clus scale="   90.828">  7  8 -1 -1</clus>
<clus scale="  129.200">  1  5  2 -1</clus>
<clus scale="   70.679">  1  5  2 -1</clus>
</clustering>
</event>
<event>
 9    1  0.8429841E-005  0.1299396E+03  0.7546771E-02  0.1231944E+00
         21   -1    0    0  501  502  0.00000000000E+00  0.00000000000E+00  0.86735228372E+03  0.86735228372E+03  0.00000000000E+00 0. -1.
         -4   -1    0    0    0  501 -0.00000000000E+00 -0.00000000000E+00 -0.60206790612E+02  0.60206790612E+02  0.00000000000E+00 0.  1.
        -24    2    1    2    0    0 -0.88955380741E+02  0.10552923021E+02  0.29383955813E+02  0.12242005124E+03  0.78094994329E+02 0.  0.
         23    2    1    2    0    0  0.91632863566E+02  0.54122894031E+02  0.49261961177E+03  0.51274195074E+03  0.94362899539E+02 0.  0.
         13    1    3    3    0    0 -0.45262735446E+02 -0.64484570501E+01  0.52941349029E+02  0.69950584382E+02  0.00000000000E+00 0. -1.
        -14    1    3    3    0    0 -0.43692645295E+02  0.17001380071E+02 -0.23557393216E+02  0.52469466857E+02  0.00000000000E+00 0.  1.
        -13    1    4    4    0    0  0.52165173107E+02 -0.12822853002E+02  0.11131883427E+03  0.12360223989E+03  0.00000000000E+00 0.  1.
         13    1    4    4    0    0  0.39467690459E+02  0.66945747033E+02  0.38130077750E+03  0.38913971085E+03  0.00000000000E+00 0. -1.
         -3    1    1    2    0  502 -0.26774828248E+01 -0.64675817052E+02  0.28514192552E+03  0.29239707235E+03  0.00000000000E+00 0.  1.
<scales pt_clust_5="13000.00000" pt_clust_6="13000.00000" pt_clust_7="13000.00000" pt_clust_8="13000.00000" pt_clust_9="64.73122"></scales>
<clustering>
<clus scale="   64.731">  1  9  2 -1</clus>
<clus scale="   78.095">  5  6 -1 -1</clus>
<clus scale="   94.363">  7  8 -1 -1</clus>
<clus scale="  118.654">  2  5  1 -1</clus>
<clus scale="   64.731">  1  5  2 -1</clus>
</clustering>
</event>
<event>
 9    1  0.8429841E-005  0.1126495E+03  0.7546771E-02  0.1259147E+00
         21   -1    0    0  501  502  0.00000000000E+00  0.00000000000E+00  0.11039786181E+03  0.11039786181E+03  0.00000000000E+00 0. -1.
          1   -1    0    0  502    0 -0.00000000000E+00 -0.00000000000E+00 -0.26025729222E+03  0.26025729222E+03  0.00000000000E+00 0. -1.
        -24    2    1    2    0    0 -0.54175136657E+02  0.40013558243E+02 -0.12742388956E+03  0.16604257948E+03  0.82445498942E+02 0.  0.
         23    2    1    2    0    0  0.14053742035E+02 -0.73684785568E+02 -0.66816553549E+02  0.13596017370E+03  0.91617474938E+02 0.  0.
         11    1    3    3    0    0 -0.67349242364E+02  0.18889010505E+02 -0.53568241158E+02  0.88103754889E+02  0.00000000000E+00 0. -1.
        -12    1    3    3    0    0  0.13174105706E+02  0.21124547738E+02 -0.73855648400E+02  0.77938824592E+02  0.00000000000E+00 0.  1.
        -11    1    4    4    0    0 -0.25025264783E+02 -0.15980550191E+02  0.10847131617E+02  0.31611740322E+02  0.00000000000E+00 0.  1.
         11    1    4    4    0    0  0.39079006817E+02 -0.57704235377E+02 -0.77663685166E+02  0.10434843337E+03  0.00000000000E+00 0. -1.
          2    1    1    2  501    0  0.40121394623E+02  0.33671227325E+02  0.44381012697E+02  0.68652400862E+02  0.00000000000E+00 0. -1.
<scales pt_clust_5="13000.00000" pt_clust_6="13000.00000" pt_clust_7="13000.00000" pt_clust_8="13000.00000" pt_clust_9="52.37822"></scales>
<clustering>
<clus scale="   52.378">  1  9  2 -1</clus>
<clus scale="   82.445">  5  6 -1 -1</clus>
<clus scale="   91.617">  7  8 -1 -1</clus>
<clus scale="  105.325">  2  5  1 -1</clus>
<clus scale="   52.378">  1  5  2 -1</clus>
</clustering>
</event>
<event>
 9    1  0.8429841E-005  0.1814104E+03  0.7546771E-02  0.1182642E+00
         21   -1    0    0  501  502  0.00000000000E+00  0.00000000000E+00  0.11244817713E+04  0.11244817713E+04  0.00000000000E+00 0.  1.
          1   -1    0    0  502    0 -0.00000000000E+00 -0.00000000000E+00 -0.59676064361E+02  0.59676064361E+02  0.00000000000E+00 0. -1.
        -24    2    1    2    0    0  0.51572080020E+02  0.81741412058E+02  0.50992505687E+03  0.52516795716E+03  0.80227686766E+02 0.  0.
         23    2    1    2    0    0 -0.17954242684E+03 -0.58005907417E+02  0.43156961765E+03  0.47969851070E+03  0.90874407613E+02 0.  0.
         13    1    3    3    0    0  0.57995977816E+02  0.73217026946E+02  0.28347849812E+03  0.29846997399E+03  0.00000000000E+00 0. -1.
        -14    1    3    3    0    0 -0.64238977960E+01  0.85243851115E+01  0.22644655875E+03  0.22669798317E+03  0.00000000000E+00 0.  1.
        -11    1    4    4    0    0 -0.83723769997E+02 -0.48988198763E+01  0.28261043672E+03  0.29479200641E+03  0.00000000000E+00 0.  1.
         11    1    4    4    0    0 -0.95818656848E+02 -0.53107087541E+02  0.14895918093E+03  0.18490650429E+03  0.00000000000E+00 0. -1.
          2    1    1    2  501    0  0.12797034682E+03 -0.23735504641E+02  0.12331103239E+03  0.17929136777E+03  0.00000000000E+00 0. -1.
<scales pt_clust_5="13000.00000" pt_clust_6="13000.00000" pt_clust_7="13000.00000" pt_clust_8="13000.00000" pt_clust_9="157.00824"></scales>
<clustering>
<clus scale="   80.228">  5  6 -1 -1</clus>
<clus scale="   90.874">  7  8 -1 -1</clus>
<clus scale="  125.610">  2  5  1 -1</clus>
<clus scale="  157.008">  1  9  2 -1</clus>
<clus scale="  157.008">  1  5  2 -1</clus>
</clustering>
</event>
<event>
 9    1  0.8429841E-005  0.1765348E+03  0.7546771E-02  0.1172138E+00
          1   -1    0    0  502    0 -0.00000000000E+00  0.00000000000E+00  0.11673023865E+04  0.11673023865E+04  0.00000000000E+00 0. -1.
         21   -1    0    0  501  502  0.00000000000E+00 -0.00000000000E+00 -0.84461422623E+02  0.84461422623E+02  0.00000000000E+00 0. -1.
         23    2    1    2    0    0  0.42166127592E+02  0.14207031497E+03  0.88270563019E+03  0.89946836489E+03  0.88950284673E+02 0.  0.
        -24    2    1    2    0    0 -0.18505267866E+02 -0.19053646054E+03  0.84091119709E+02  0.22433035858E+03  0.81278568120E+02 0.  0.
         13    1    4    4    0    0 -0.48999718625E+02 -0.12310291589E+03  0.41017529485E+02  0.13870017322E+03  0.00000000000E+00 0. -1.
        -14    1    4    4    0    0  0.30494450759E+02 -0.67433544648E+02  0.43073590225E+02  0.85630185365E+02  0.00000000000E+00 0.  1.
        -13    1    3    3    0    0  0.44766731079E+02  0.18270963688E+02  0.28476662792E+03  0.28884238038E+03  0.00000000000E+00 0.  1.
         13    1    3    3    0    0 -0.26006034867E+01  0.12379935128E+03  0.59793900227E+03  0.61062598451E+03  0.00000000000E+00 0. -1.
          2    1    1    2  501    0 -0.23660859726E+02  0.48466145569E+02  0.11604421399E+03  0.12796508567E+03  0.00000000000E+00 0. -1.
<scales pt_clust_5="13000.00000" pt_clust_6="13000.00000" pt_clust_7="13000.00000" pt_clust_8="13000.00000" pt_clust_9="53.93335"></scales>
<clustering>
<clus scale="   53.933">  2  9  1 -1</clus>
<clus scale="   81.279">  5  6 -1 -1</clus>
<clus scale="   88.950">  7  8 -1 -1</clus>
<clus scale="  172.796">  2  5  1 -1</clus>
<clus scale="   53.933">  2  5  1 -1</clus>
</clustering>
</event>
<event>
 9    1  0.8429841E-005  0.1441085E+03  0.7546771E-02  0.1210511E+00
         21   -1    0    0  501  502  0.00000000000E+00  0.00000000000E+00  0.43103473960E+02  0.43103473960E+02  0.00000000000E+00 0.  1.
          1   -1    0    0  502    0 -0.00000000000E+00 -0.00000000000E+00 -0.53551787708E+03  0.53551787708E+03  0.00000000000E+00 0. -1.
         23    2    1    2    0    0  0.10298386594E+03 -0.43510410493E+02 -0.22015077639E+03  0.26088343636E+03  0.84231648186E+02 0.  0.
        -24    2    1    2    0    0 -0.11928173458E+03  0.29211584403E+02 -0.22483889752E+03  0.26559213930E+03  0.70037174056E+02 0.  0.
         11    1    4    4    0    0 -0.29770657856E+02  0.14839179386E+02 -0.13082673198E+03  0.13498935926E+03  0.00000000000E+00 0. -1.
        -12    1    4    4    0    0 -0.89511076727E+02  0.14372405017E+02 -0.94012165542E+02  0.13060278003E+03  0.00000000000E+00 0.  1.
        -11    1    3    3    0    0  0.37232370844E+02 -0.60650571663E+02 -0.98140092764E+02  0.12122796331E+03  0.00000000000E+00 0. -1.
         11    1    3    3    0    0  0.65751495098E+02  0.17140161170E+02 -0.12201068362E+03  0.13965547304E+03  0.00000000000E+00 0.  1.
          2    1    1    2  501    0  0.16297868641E+02  0.14298826090E+02 -0.47424729215E+02  0.52145775388E+02  0.00000000000E+00 0. -1.
<scales pt_clust_5="13000.00000" pt_clust_6="13000.00000" pt_clust_7="13000.00000" pt_clust_8="13000.00000" pt_clust_9="21.68127"></scales>
<clustering>
<clus scale="   21.681">  1  9  2 -1</clus>
<clus scale="   70.037">  5  6 -1 -1</clus>
<clus scale="   84.232">  7  8 -1 -1</clus>
<clus scale="  136.299">  1  5  2 -1</clus>
<clus scale="   21.681">  1  5  2 -1</clus>
</clustering>
</event>
<event>
 9    1  0.8429841E-005  0.1031457E+03  0.7546771E-02  0.1278640E+00
         21   -1    0    0  501  502  0.00000000000E+00  0.00000000000E+00  0.93115631773E+02  0.93115631773E+02  0.00000000000E+00 0.  1.
         -2   -1    0    0    0  501 -0.00000000000E+00 -0.00000000000E+00 -0.32391024352E+03  0.32391024352E+03  0.00000000000E+00 0.  1.
         23    2    1    2    0    0  0.42892004459E+02 -0.93924094642E+01 -0.18207114077E+03  0.20856561746E+03  0.91770229834E+02 0.  0.
        -24    2    1    2    0    0 -0.62253197773E+02  0.23142556872E+02  0.43140121113E+02  0.11357695102E+03  0.81410166325E+02 0.  0.
         11    1    4    4    0    0 -0.78226106334E+02  0.10847947201E+02  0.17373863946E+02  0.80863173442E+02  0.00000000000E+00 0. -1.
        -12    1    4    4    0    0  0.15972908561E+02  0.12294609671E+02  0.25766257167E+02  0.32713777575E+02  0.00000000000E+00 0.  1.
        -13    1    3    3    0    0  0.48111182679E+02  0.23515400429E+02 -0.15968408143E+03  0.16842406543E+03  0.00000000000E+00 0.  1.
         13    1    3    3    0    0 -0.52191782199E+01 -0.32907809893E+02 -0.22387059346E+02  0.40141552031E+02  0.00000000000E+00 0. -1.
         -1    1    1    2    0  502  0.19361193314E+02 -0.13750147407E+02 -0.91863592088E+02  0.94883306812E+02  0.00000000000E+00 0.  1.
<scales pt_clust_5="13000.00000" pt_clust_6="13000.00000" pt_clust_7="13000.00000" pt_clust_8="13000.00000" pt_clust_9="23.74706"></scales>
<clustering>
<clus scale="   23.747">  1  9  2 -1</clus>
<clus scale="   81.410">  5  6 -1 -1</clus>
<clus scale="   91.770">  7  8 -1 -1</clus>
<clus scale="   94.047">  1  5  2 -1</clus>
<clus scale="   23.747">  1  5  2 -1</clus>
</clustering>
</event>
<event>
 9    1  0.8429841E-005  0.9564750E+02  0.7546771E-02  0.1295113E+00
         -2   -1    0    0    0  501 -0.00000000000E+00  0.00000000000E+00  0.61297749543E+02  0.61297749543E+02  0.00000000000E+00 0.  1.
         21   -1    0    0  501  502  0.00000000000E+00 -0.00000000000E+00 -0.37745979841E+03  0.37745979841E+03  0.00000000000E+00 0.  1.
        -24    2    1    2    0    0 -0.31070258541E+02 -0.68034723958E+01  0.24476372126E+01  0.87984043631E+02  0.81997273145E+02 0.  0.
         23    2    1    2    0    0 -0.61888026195E+01  0.17586247338E+02 -0.28329251162E+03  0.29831581960E+03  0.91597509326E+02 0.  0.
         11    1    3    3    0    0 -0.51720564618E+02  0.18065145750E+02 -0.43332017689E+01  0.54955827106E+02  0.00000000000E+00 0. -1.
        -12    1    3    3    0    0  0.20650306076E+02 -0.24868618146E+02  0.67808389815E+01  0.33028216525E+02  0.00000000000E+00 0.  1.
        -11    1    4    4    0    0 -0.21264715536E+02  0.44580167027E+02 -0.24051661025E+03  0.24553577993E+03  0.00000000000E+00 0.  1.
         11    1    4    4    0    0  0.15075912917E+02 -0.26993919689E+02 -0.42775901367E+02  0.52780039676E+02  0.00000000000E+00 0. -1.
         -1    1    1    2    0  502  0.37259061161E+02 -0.10782774943E+02 -0.35317174466E+02  0.52457684721E+02  0.00000000000E+00 0.  1.
<scales pt_clust_5="13000.00000" pt_clust_6="13000.00000" pt_clust_7="13000.00000" pt_clust_8="13000.00000" pt_clust_9="38.78798"></scales>
<clustering>
<clus scale="   38.788">  2  9  1 -1</clus>
<clus scale="   81.997">  5  6 -1 -1</clus>
<clus scale="   86.498">  1  5  2 -1</clus>
<clus scale="   91.598">  7  8 -1 -1</clus>
<clus scale="   38.788">  2  5  1 -1</clus>
</clustering>
</event>
<event>
 9    1  0.8429841E-005  0.1102229E+03  0.7546771E-02  0.1266758E+00
         21   -1    0    0  501  502  0.00000000000E+00  0.00000000000E+00  0.86129540320E+02  0.86129540320E+02  0.00000000000E+00 0.  1.
          1   -1    0    0  502    0 -0.00000000000E+00 -0.00000000000E+00 -0.27238867501E+03  0.27238867501E+03  0.00000000000E+00 0. -1.
         23    2    1    2    0    0 -0.48984475338E+02 -0.33389139578E+02 -0.20634963599E+03  0.23395333000E+03  0.92949851412E+02 0.  0.
        -24    2    1    2    0    0  0.35225003403E+02  0.51630308054E+02  0.94560512274E+01  0.99362607189E+02  0.76661732488E+02 0.  0.
         11    1    4    4    0    0  0.14969577652E+02  0.58058379958E+02 -0.19854342148E+02  0.63158994931E+02  0.00000000000E+00 0. -1.
        -12    1    4    4    0    0  0.20255425751E+02 -0.64280719043E+01  0.29310393376E+02  0.36203612259E+02  0.00000000000E+00 0.  1.
        -11    1    3    3    0    0 -0.69763143634E+02 -0.35858179189E+02 -0.19491927984E+03  0.21011004469E+03  0.00000000000E+00 0.  1.
         11    1    3    3    0    0  0.20778668296E+02  0.24690396115E+01 -0.11430356152E+02  0.23843285313E+02  0.00000000000E+00 0. -1.
          2    1    1    2  501    0  0.13759471935E+02 -0.18241168477E+02  0.10634450073E+02  0.25202278145E+02  0.00000000000E+00 0. -1.
<scales pt_clust_5="13000.00000" pt_clust_6="13000.00000" pt_clust_7="13000.00000" pt_clust_8="13000.00000" pt_clust_9="22.84870"></scales>
<clustering>
<clus scale="   22.849">  1  9  2 -1</clus>
<clus scale="   76.662">  5  6 -1 -1</clus>
<clus scale="   92.950">  7  8 -1 -1</clus>
<clus scale="   96.884">  1  5  2 -1</clus>
<clus scale="   22.849">  1  5  2 -1</clus>
</clustering>
</event>
<event>
 9    1  0.8429841E-005  0.1514286E+03  0.7546771E-02  0.1200760E+00
         21   -1    0    0  501  502  0.00000000000E+00  0.00000000000E+00  0.10464929543E+04  0.10464929543E+04  0.00000000000E+00 0.  1.
         -2   -1    0    0    0  501 -0.00000000000E+00 -0.00000000000E+00 -0.46020281272E+02  0.46020281272E+02  0.00000000000E+00 0.  1.
        -24    2    1    2    0    0  0.37837237154E+02  0.11640795091E+03  0.12752166636E+03  0.19376859760E+03  0.79385303902E+02 0.  0.
         23    2    1    2    0    0 -0.85310482387E+02 -0.91784840320E+02  0.72751393436E+03  0.74378674502E+03  0.90773685906E+02 0.  0.
         11    1    3    3    0    0 -0.16745489906E+02  0.74261779600E+02  0.56723665062E+02  0.94935754696E+02  0.00000000000E+00 0. -1.
        -12    1    3    3    0    0  0.54582727060E+02  0.42146171306E+02  0.70798001300E+02  0.98832842908E+02  0.00000000000E+00 0.  1.
        -11    1    4    4    0    0 -0.10491189008E+03 -0.77498881418E+02  0.60674026160E+03  0.62060158423E+03  0.00000000000E+00 0.  1.
         11    1    4    4    0    0  0.19601407698E+02 -0.14285958901E+02  0.12077367276E+03  0.12318516079E+03  0.00000000000E+00 0. -1.
         -1    1    1    2    0  502  0.47473245233E+02 -0.24623110587E+02  0.14543707229E+03  0.15495789294E+03  0.00000000000E+00 0.  1.
<scales pt_clust_5="13000.00000" pt_clust_6="13000.00000" pt_clust_7="13000.00000" pt_clust_8="13000.00000" pt_clust_9="53.47903"></scales>
<clustering>
<clus scale="   53.479">  1  9  2 -1</clus>
<clus scale="   79.385">  5  6 -1 -1</clus>
<clus scale="   90.774">  7  8 -1 -1</clus>
<clus scale="  144.889">  2  5  1 -1</clus>
<clus scale="   53.479">  1  5  2 -1</clus>
</clustering>
</event>
<event>
 9    1  0.8429841E-005  0.1033440E+03  0.7546771E-02  0.1278260E+00
          1   -1    0    0  502    0 -0.00000000000E+00  0.00000000000E+00  0.69599787106E+03  0.69599787106E+03  0.00000000000E+00 0. -1.
         21   -1    0    0  501  502  0.00000000000E+00 -0.00000000000E+00 -0.49215188124E+02  0.49215188124E+02  0.00000000000E+00 0. -1.
         23    2    1    2    0    0 -0.21840030986E+02  0.26677762450E+02  0.11246726743E+03  0.14859850669E+03  0.90796145208E+02 0.  0.
        -24    2    1    2    0    0  0.88965651328E+02  0.17520040842E+02  0.10627489303E+03  0.16109419292E+03  0.80219368964E+02 0.  0.
         11    1    4    4    0    0  0.50368261506E+02  0.62347181993E+01  0.10956239601E+03  0.12074664425E+03  0.00000000000E+00 0. -1.
        -12    1    4    4    0    0  0.38597389822E+02  0.11285322643E+02 -0.32875029758E+01  0.40347548674E+02  0.00000000000E+00 0.  1.
        -11    1    3    3    0    0  0.18376905560E+02  0.37181669781E+02  0.17657613897E+02  0.45077472802E+02  0.00000000000E+00 0.  1.
         11    1    3    3    0    0 -0.40216936546E+02 -0.10503907331E+02  0.94809653532E+02  0.10352103389E+03  0.00000000000E+00 0. -1.
          2    1    1    2  501    0 -0.67125620342E+02 -0.44197803292E+02  0.42804052248E+03  0.43552035958E+03  0.00000000000E+00 0. -1.
<scales pt_clust_5="13000.00000" pt_clust_6="13000.00000" pt_clust_7="13000.00000" pt_clust_8="13000.00000" pt_clust_9="80.36978"></scales>
<clustering>
<clus scale="   80.219">  5  6 -1 -1</clus>
<clus scale="   80.370">  2  9  1 -1</clus>
<clus scale="   90.796">  7  8 -1 -1</clus>
<clus scale="   94.187">  2  5  1 -1</clus>
<clus scale="   80.370">  2  5  1 -1</clus>
</clustering>
</event>
<event>
 9    1  0.8429841E-005  0.1217599E+03  0.7546771E-02  0.1244875E+00
         -2   -1    0    0    0  501 -0.00000000000E+00  0.00000000000E+00  0.15746548242E+03  0.15746548242E+03  0.00000000000E+00 0.  1.
         21   -1    0    0  501  502  0.00000000000E+00 -0.00000000000E+00 -0.24752748894E+03  0.24752748894E+03  0.00000000000E+00 0.  1.
        -24    2    1    2    0    0  0.73063917071E+02  0.69827615275E+02 -0.54129857191E+02  0.13814418748E+03  0.77068432325E+02 0.  0.
         23    2    1    2    0    0  0.19545974924E+02 -0.75889710089E+02 -0.97614546044E+02  0.15541243814E+03  0.92103925518E+02 0.  0.
         13    1    3    3    0    0  0.32542535071E+02  0.45075922984E+01  0.13731197578E+02  0.35607313351E+02  0.00000000000E+00 0. -1.
        -14    1    3    3    0    0  0.40521382000E+02  0.65320022977E+02 -0.67861054769E+02  0.10253687412E+03  0.00000000000E+00 0.  1.
        -11    1    4    4    0    0  0.48809122610E+02 -0.24643128638E+02 -0.20694123267E+02  0.58462474946E+02  0.00000000000E+00 0.  1.
         11    1    4    4    0    0 -0.29263147686E+02 -0.51246581451E+02 -0.76920422777E+02  0.96949963193E+02  0.00000000000E+00 0. -1.
         -1    1    1    2    0  502 -0.92609891995E+02  0.60620948140E+01  0.61682396714E+02  0.11143634575E+03  0.00000000000E+00 0.  1.
<scales pt_clust_5="13000.00000" pt_clust_6="13000.00000" pt_clust_7="13000.00000" pt_clust_8="13000.00000" pt_clust_9="92.80813"></scales>
<clustering>
<clus scale="   77.068">  5  6 -1 -1</clus>
<clus scale="   92.104">  7  8 -1 -1</clus>
<clus scale="   92.808">  2  9  1 -1</clus>
<clus scale="  110.824">  1  5  2 -1</clus>
<clus scale="   92.808">  2  5  1 -1</clus>
</clustering>
</event>
<event>
 9    1  0.9068074E-005  0.9356789E+02  0.7546771E-02  0.1296034E+00
          1   -1    0    0  502    0 -0.00000000000E+00  0.00000000000E+00  0.68348524027E+03  0.68348524027E+03  0.00000000000E+00 0. -1.
         21   -1    0    0  501  502  0.00000000000E+00 -0.00000000000E+00 -0.17716970934E+03  0.17716970934E+03  0.00000000000E+00 0. -1.
        -24    2    1    2    0    0  0.38488598539E+02 -0.21092509142E+02  0.17235810960E+03  0.19522781205E+03  0.80500400583E+02 0.  0.
         23    2    1    2    0    0 -0.10495813398E+03  0.19209190081E+02 -0.13683706130E+03  0.18995979809E+03  0.77299034112E+02 0.  0.
         13    1    3    3    0    0  0.47590475397E+02  0.18439789073E+02  0.91891667781E+02  0.10511402274E+03  0.00000000000E+00 0. -1.
        -14    1    3    3    0    0 -0.91018768579E+01 -0.39532298215E+02  0.80466441821E+02  0.90113789310E+02  0.00000000000E+00 0.  1.
        -13    1    4    4    0    0 -0.11259291586E+02 -0.24336289142E+02 -0.17087067011E+02  0.31796139314E+02  0.00000000000E+00 0.  1.
         13    1    4    4    0    0 -0.93698842391E+02  0.43545479223E+02 -0.11974999429E+03  0.15816365878E+03  0.00000000000E+00 0. -1.
          2    1    1    2  501    0  0.66469535438E+02  0.18833190610E+01  0.47079448262E+03  0.47546733947E+03  0.00000000000E+00 0. -1.
<scales pt_clust_5="13000.00000" pt_clust_6="13000.00000" pt_clust_7="13000.00000" pt_clust_8="13000.00000" pt_clust_9="66.49624"></scales>
<clustering>
<clus scale="   66.496">  2  9  1 -1</clus>
<clus scale="   77.299">  7  8 -1 -1</clus>
<clus scale="   80.500">  5  6 -1 -1</clus>
<clus scale="   90.828">  2  7  1 -1</clus>
<clus scale="   66.496">  2  5  1 -1</clus>
</clustering>
</event>
<event>
 9    1  0.8429841E-005  0.1391365E+03  0.7546771E-02  0.1216345E+00
         21   -1    0    0  501  502  0.00000000000E+00  0.00000000000E+00  0.11011939075E+03  0.11011939075E+03  0.00000000000E+00 0.  1.
          1   -1    0    0  502    0 -0.00000000000E+00 -0.00000000000E+00 -0.34079373017E+03  0.34079373017E+03  0.00000000000E+00 0. -1.
        -24    2    1    2    0    0  0.76774992597E+02 -0.36303473957E+02 -0.77459026653E+02  0.14170286065E+03  0.82870128500E+02 0.  0.
         23    2    1    2    0    0 -0.13367984967E+03  0.65078738700E+02 -0.39535412078E+02  0.17886725723E+03  0.91240903439E+02 0.  0.
         13    1    3    3    0    0  0.29765526982E+02 -0.46829079690E+02 -0.75227289757E+02  0.93477775034E+02  0.00000000000E+00 0. -1.
        -14    1    3    3    0    0  0.47009465615E+02  0.10525605733E+02 -0.22317368961E+01  0.48225085619E+02  0.00000000000E+00 0.  1.
        -13    1    4    4    0    0 -0.12115753863E+03  0.20474253105E+02 -0.47728616470E+02  0.13181944105E+03  0.00000000000E+00 0.  1.
         13    1    4    4    0    0 -0.12522311037E+02  0.44604485595E+02  0.81932043914E+01  0.47047816178E+02  0.00000000000E+00 0. -1.
          2    1    1    2  501    0  0.56904857074E+02 -0.28775264743E+02 -0.11367990069E+03  0.13034300303E+03  0.00000000000E+00 0. -1.
<scales pt_clust_5="13000.00000" pt_clust_6="13000.00000" pt_clust_7="13000.00000" pt_clust_8="13000.00000" pt_clust_9="63.76663"></scales>
<clustering>
<clus scale="   63.767">  1  9  2 -1</clus>
<clus scale="   82.870">  5  6 -1 -1</clus>
<clus scale="   91.241">  7  8 -1 -1</clus>
<clus scale="  133.797">  2  5  1 -1</clus>
<clus scale="   63.767">  1  5  2 -1</clus>
</clustering>
</event>
<event>
 9    1  0.8429841E-005  0.1889573E+03  0.7546771E-02  0.1160452E+00
          3   -1    0    0  502    0 -0.00000000000E+00  0.00000000000E+00  0.45863091842E+03  0.45863091842E+03  0.00000000000E+00 0. -1.
         21   -1    0    0  501  502  0.00000000000E+00 -0.00000000000E+00 -0.10208862546E+03  0.10208862546E+03  0.00000000000E+00 0.  1.
         23    2    1    2    0    0  0.85515527255E+02 -0.15042769672E+03  0.28100100525E+03  0.34240610828E+03  0.91318019541E+02 0.  0.
        -24    2    1    2    0    0 -0.80873467952E+02  0.12507582808E+03  0.40024535092E+02  0.17443057250E+03  0.81483621816E+02 0.  0.
         11    1    4    4    0    0 -0.37779691540E+02  0.54065935889E+02  0.59816761046E+02  0.89041986829E+02  0.00000000000E+00 0. -1.
        -12    1    4    4    0    0 -0.43093776412E+02  0.71009892191E+02 -0.19792225954E+02  0.85388585669E+02  0.00000000000E+00 0.  1.
        -11    1    3    3    0    0 -0.12449550057E+02 -0.22897038597E+02  0.11315186488E+02  0.28413009667E+02  0.00000000000E+00 0.  1.
         11    1    3    3    0    0  0.97965077312E+02 -0.12753065812E+03  0.26968581877E+03  0.31399309861E+03  0.00000000000E+00 0. -1.
          4    1    1    2  501    0 -0.46420593030E+01  0.25351868637E+02  0.35516752613E+02  0.43882863103E+02  0.00000000000E+00 0. -1.
<scales pt_clust_5="13000.00000" pt_clust_6="13000.00000" pt_clust_7="13000.00000" pt_clust_8="13000.00000" pt_clust_9="25.77337"></scales>
<clustering>
<clus scale="   25.773">  2  9  1 -1</clus>
<clus scale="   81.484">  5  6 -1 -1</clus>
<clus scale="   91.318">  7  8 -1 -1</clus>
<clus scale="  184.406">  2  5  1 -1</clus>
<clus scale="   25.773">  2  5  1 -1</clus>
</clustering>
</event>
<event>
 9    1  0.8429841E-005  0.9125491E+02  0.7546771E-02  0.1306070E+00
         21   -1    0    0  501  502  0.00000000000E+00  0.00000000000E+00  0.67459978399E+02  0.67459978399E+02  0.00000000000E+00 0. -1.
          1   -1    0    0  502    0 -0.00000000000E+00 -0.00000000000E+00 -0.23926892221E+03  0.23926892221E+03  0.00000000000E+00 0. -1.
        -24    2    1    2    0    0  0.11012814978E+02  0.50107539872E+01 -0.11114436355E+03  0.13717756722E+03  0.79487267216E+02 0.  0.
         23    2    1    2    0    0  0.14967708054E+02 -0.51720346362E+02 -0.34504597658E+02  0.11004403731E+03  0.89554990795E+02 0.  0.
         13    1    3    3    0    0 -0.71620912824E+01 -0.34578878305E+02 -0.63215986092E+02  0.72410325741E+02  0.00000000000E+00 0. -1.
        -14    1    3    3    0    0  0.18174906260E+02  0.39589632292E+02 -0.47928377457E+02  0.64767241475E+02  0.00000000000E+00 0.  1.
        -13    1    4    4    0    0 -0.27937116317E+02 -0.52141492154E+02 -0.31534089924E+02  0.67034442636E+02  0.00000000000E+00 0.  1.
         13    1    4    4    0    0  0.42904824371E+02  0.42114579204E+00 -0.29705077336E+01  0.43009594677E+02  0.00000000000E+00 0. -1.
          2    1    1    2  501    0 -0.25980523032E+02  0.46709592374E+02 -0.26159982602E+02  0.59507296078E+02  0.00000000000E+00 0. -1.
<scales pt_clust_5="13000.00000" pt_clust_6="13000.00000" pt_clust_7="13000.00000" pt_clust_8="13000.00000" pt_clust_9="53.44879"></scales>
<clustering>
<clus scale="   53.449">  1  9  2 -1</clus>
<clus scale="   79.487">  5  6 -1 -1</clus>
<clus scale="   81.398">  2  5  1 -1</clus>
<clus scale="   89.555">  7  8 -1 -1</clus>
<clus scale="   53.449">  1  5  2 -1</clus>
</clustering>
</event>
<event>
 9    1  0.8429841E-005  0.1292884E+03  0.7546771E-02  0.1245057E+00
         21   -1    0    0  501  502  0.00000000000E+00  0.00000000000E+00  0.73719342626E+02  0.73719342626E+02  0.00000000000E+00 0.  1.
         -2   -1    0    0    0  501 -0.00000000000E+00 -0.00000000000E+00 -0.57856081147E+03  0.57856081147E+03  0.00000000000E+00 0.  1.
        -24    2    1    2    0    0 -0.43559607788E+02 -0.15959511472E+02  0.58982923520E+01  0.92418413393E+02  0.79713410693E+02 0.  0.
         23    2    1    2    0    0 -0.36539360262E+02 -0.50898514021E+02 -0.35753565153E+03  0.37450441154E+03  0.92173903956E+02 0.  0.
         11    1    3    3    0    0 -0.60008631798E+01  0.30296783797E+02 -0.64897597566E+01  0.31559823337E+02  0.00000000000E+00 0. -1.
        -12    1    3    3    0    0 -0.37558744608E+02 -0.46256295269E+02  0.12388052109E+02  0.60858590056E+02  0.00000000000E+00 0.  1.
        -11    1    4    4    0    0 -0.37241883753E+02  0.10771068905E+02 -0.66235276870E+02  0.76746893962E+02  0.00000000000E+00 0. -1.
         11    1    4    4    0    0  0.70252349138E+00 -0.61669582925E+02 -0.29130037466E+03  0.29775751757E+03  0.00000000000E+00 0.  1.
         -1    1    1    2    0  502  0.80098968049E+02  0.66858025493E+02 -0.15320410967E+03  0.18535732916E+03  0.00000000000E+00 0.  1.
<scales pt_clust_5="13000.00000" pt_clust_6="13000.00000" pt_clust_7="13000.00000" pt_clust_8="13000.00000" pt_clust_9="90.66129"></scales>
<clustering>
<clus scale="   79.713">  5  6 -1 -1</clus>
<clus scale="   92.174">  7  8 -1 -1</clus>
<clus scale="   92.230">  2  5  1 -1</clus>
<clus scale="   90.661">  1  9  2 -1</clus>
<clus scale="   90.661">  1  5  2 -1</clus>
</clustering>
</event>
<event>
 9    1  0.8429841E-005  0.1361588E+03  0.7546771E-02  0.1225029E+00
         21   -1    0    0  501  502  0.00000000000E+00  0.00000000000E+00  0.58970892271E+03  0.58970892271E+03  0.00000000000E+00 0.  1.
         -2   -1    0    0    0  501 -0.00000000000E+00 -0.00000000000E+00 -0.17345131673E+03  0.17345131673E+03  0.00000000000E+00 0.  1.
         23    2    1    2    0    0  0.55476950181E+02 -0.53027980359E+02 -0.20730289692E+02  0.12078791550E+03  0.90941282800E+02 0.  0.
        -24    2    1    2    0    0  0.65029067442E+02  0.87922614176E+02  0.48811971457E+03  0.50689613173E+03  0.81997968987E+02 0.  0.
         13    1    4    4    0    0  0.78641980706E+01  0.60587318889E+02  0.13561550964E+03  0.14874217719E+03  0.00000000000E+00 0. -1.
        -14    1    4    4    0    0  0.57164869371E+02  0.27335295287E+02  0.35250420493E+03  0.35815395454E+03  0.00000000000E+00 0.  1.
        -11    1    3    3    0    0  0.68706313103E+02 -0.66464833367E+01 -0.22274269653E+02  0.72531898428E+02  0.00000000000E+00 0.  1.
         11    1    3    3    0    0 -0.13229362922E+02 -0.46381497023E+02  0.15439799607E+01  0.48256017070E+02  0.00000000000E+00 0. -1.
         -1    1    1    2    0  502 -0.12050601762E+03 -0.34894633817E+02 -0.51131818891E+02  0.13547619221E+03  0.00000000000E+00 0.  1.
<scales pt_clust_5="13000.00000" pt_clust_6="13000.00000" pt_clust_7="13000.00000" pt_clust_8="13000.00000" pt_clust_9="108.69936"></scales>
<clustering>
<clus scale="   81.998">  5  6 -1 -1</clus>
<clus scale="   90.941">  7  8 -1 -1</clus>
<clus scale="  118.996">  2  7  1 -1</clus>
<clus scale="  108.699">  1  9  2 -1</clus>
<clus scale="  108.699">  1  5  2 -1</clus>
</clustering>
</event>
<event>
 9    1  0.8429841E-005  0.1465581E+03  0.7546771E-02  0.1206312E+00
          3   -1    0    0  502    0 -0.00000000000E+00  0.00000000000E+00  0.29558621650E+03  0.29558621650E+03  0.00000000000E+00 0. -1.
         21   -1    0    0  501  502  0.00000000000E+00 -0.00000000000E+00 -0.15969311021E+03  0.15969311021E+03  0.00000000000E+00 0.  1.
         23    2    1    2    0    0  0.62275481315E+02  0.10322726994E+03  0.22972854587E+03  0.27440655285E+03  0.89384823254E+02 0.  0.
        -24    2    1    2    0    0 -0.49228613898E+02 -0.82772446847E+02 -0.60914365015E+02  0.13997757014E+03  0.81292225300E+02 0.  0.
         11    1    4    4    0    0 -0.32870959200E+02  0.57183883551E+01 -0.42517143781E+01  0.33634461483E+02  0.00000000000E+00 0. -1.
        -12    1    4    4    0    0 -0.16357654698E+02 -0.88490835202E+02 -0.56662650636E+02  0.10634310866E+03  0.00000000000E+00 0.  1.
        -11    1    3    3    0    0  0.34040038338E+02  0.19816414794E+02  0.14694250694E+02  0.42039689685E+02  0.00000000000E+00 0.  1.
         11    1    3    3    0    0  0.28235442977E+02  0.83410855142E+02  0.21503429517E+03  0.23236686316E+03  0.00000000000E+00 0. -1.
          4    1    1    2  501    0 -0.13046867417E+02 -0.20454823089E+02 -0.32921074557E+02  0.40895203716E+02  0.00000000000E+00 0. -1.
<scales pt_clust_5="13000.00000" pt_clust_6="13000.00000" pt_clust_7="13000.00000" pt_clust_8="13000.00000" pt_clust_9="24.26150"></scales>
<clustering>
<clus scale="   24.262">  2  9  1 -1</clus>
<clus scale="   81.292">  5  6 -1 -1</clus>
<clus scale="   89.385">  7  8 -1 -1</clus>
<clus scale="  141.768">  2  5  1 -1</clus>
<clus scale="   24.262">  2  5  1 -1</clus>
</clustering>
</event>
<event>
 9    1  0.8429841E-005  0.1021582E+03  0.7546771E-02  0.1282261E+00
         21   -1    0    0  501  502  0.00000000000E+00  0.00000000000E+00  0.11568483172E+03  0.11568483172E+03  0.00000000000E+00 0. -1.
          3   -1    0    0  502    0 -0.00000000000E+00 -0.00000000000E+00 -0.21400668735E+03  0.21400668735E+03  0.00000000000E+00 0. -1.
        -24    2    1    2    0    0 -0.33430066851E+02  0.23643218167E+02 -0.13221602186E+03  0.16047195799E+03  0.81200995873E+02 0.  0.
         23    2    1    2    0    0  0.13479643294E+02 -0.32801634082E+02  0.73047280061E+02  0.12433234346E+03  0.94154014915E+02 0.  0.
         11    1    3    3    0    0 -0.36524199594E+02  0.51027127157E+02 -0.10021144867E+03  0.11823755455E+03  0.00000000000E+00 0. -1.
        -12    1    3    3    0    0  0.30941327428E+01 -0.27383908990E+02 -0.32004573188E+02  0.42234403440E+02  0.00000000000E+00 0.  1.
        -13    1    4    4    0    0 -0.23678864803E+02  0.10587846072E+02  0.60526377718E+02  0.65850083694E+02  0.00000000000E+00 0. -1.
         13    1    4    4    0    0  0.37158508097E+02 -0.43389480154E+02  0.12520902343E+02  0.58482259768E+02  0.00000000000E+00 0.  1.
          4    1    1    2  501    0  0.19950423557E+02  0.91584159143E+01 -0.39153113839E+02  0.44887217618E+02  0.00000000000E+00 0. -1.
<scales pt_clust_5="13000.00000" pt_clust_6="13000.00000" pt_clust_7="13000.00000" pt_clust_8="13000.00000" pt_clust_9="21.95214"></scales>
<clustering>
<clus scale="   21.952">  1  9  2 -1</clus>
<clus scale="   81.201">  5  6 -1 -1</clus>
<clus scale="   90.360">  2  5  1 -1</clus>
<clus scale="   94.154">  7  8 -1 -1</clus>
<clus scale="   21.952">  1  5  2 -1</clus>
</clustering>
</event>
<event>
 9    1  0.8429841E-005  0.1079995E+03  0.7546771E-02  0.1269305E+00
         21   -1    0    0  501  502  0.00000000000E+00  0.00000000000E+00  0.58902207261E+03  0.58902207261E+03  0.00000000000E+00 0.  1.
          3   -1    0    0  502    0 -0.00000000000E+00 -0.00000000000E+00 -0.41030097305E+02  0.41030097305E+02  0.00000000000E+00 0. -1.
         23    2    1    2    0    0 -0.40789372785E+02 -0.34372109553E+02  0.77481905483E+02  0.13148307888E+03  0.91864789267E+02 0.  0.
        -24    2    1    2    0    0  0.14296202248E+02  0.76876190807E+02  0.27767412112E+03  0.29933508761E+03  0.79901483238E+02 0.  0.
         11    1    4    4    0    0  0.28785539235E+02  0.19531745111E+02  0.34210291075E+02  0.48789756625E+02  0.00000000000E+00 0. -1.
        -12    1    4    4    0    0 -0.14489336987E+02  0.57344445696E+02  0.24346383004E+03  0.25054533098E+03  0.00000000000E+00 0.  1.
        -11    1    3    3    0    0 -0.20537705479E+02 -0.19271923296E+02 -0.17527597373E+02  0.33172594766E+02  0.00000000000E+00 0. -1.
         11    1    3    3    0    0 -0.20251667306E+02 -0.15100186257E+02  0.95009502856E+02  0.98310484113E+02  0.00000000000E+00 0.  1.
          4    1    1    2  501    0  0.26493170538E+02 -0.42504081254E+02  0.19283594871E+03  0.19923400343E+03  0.00000000000E+00 0. -1.
<scales pt_clust_5="13000.00000" pt_clust_6="13000.00000" pt_clust_7="13000.00000" pt_clust_8="13000.00000" pt_clust_9="50.08478"></scales>
<clustering>
<clus scale="   50.085">  1  9  2 -1</clus>
<clus scale="   79.901">  5  6 -1 -1</clus>
<clus scale="   91.865">  7  8 -1 -1</clus>
<clus scale="   98.026">  1  5  2 -1</clus>
<clus scale="   50.085">  1  5  2 -1</clus>
</clustering>
</event>
<event>
 9    1  0.8429841E-005  0.9613300E+02  0.7546771E-02  0.1292208E+00
          1   -1    0    0  502    0 -0.00000000000E+00  0.00000000000E+00  0.11894483448E+03  0.11894483448E+03  0.00000000000E+00 0. -1.
         21   -1    0    0  501  502  0.00000000000E+00 -0.00000000000E+00 -0.90059353265E+03  0.90059353265E+03  0.00000000000E+00 0. -1.
         23    2    1    2    0    0 -0.82140030063E+01  0.36284300029E+02  0.84248500703E+02  0.12919195827E+03  0.90602052609E+02 0.  0.
        -24    2    1    2    0    0 -0.57548269205E+02  0.25058190577E+02 -0.28608406254E+03  0.30360042407E+03  0.79933787928E+02 0.  0.
         13    1    4    4    0    0 -0.52839883588E+02  0.15687022905E+02 -0.79434607433E+02  0.96685018712E+02  0.00000000000E+00 0. -1.
        -14    1    4    4    0    0 -0.47083856172E+01  0.93711676720E+01 -0.20664945511E+03  0.20691540536E+03  0.00000000000E+00 0.  1.
        -11    1    3    3    0    0  0.35822414374E+02  0.39648627348E+02  0.51476037679E+02  0.74195966719E+02  0.00000000000E+00 0. -1.
         11    1    3    3    0    0 -0.44036417381E+02 -0.33643273189E+01  0.32772463024E+02  0.54995991551E+02  0.00000000000E+00 0.  1.
          2    1    1    2  501    0  0.65762272211E+02 -0.61342490607E+02 -0.57981313633E+03  0.58674598479E+03  0.00000000000E+00 0. -1.
<scales pt_clust_5="13000.00000" pt_clust_6="13000.00000" pt_clust_7="13000.00000" pt_clust_8="13000.00000" pt_clust_9="89.93096"></scales>
<clustering>
<clus scale="   79.934">  5  6 -1 -1</clus>
<clus scale="   89.931">  2  9  1 -1</clus>
<clus scale="   89.931">  2  5  1 -1</clus>
<clus scale="   90.602">  7  8 -1 -1</clus>
<clus scale="   89.931">  2  5  1 -1</clus>
</clustering>
</event>
<event>
 9    1  0.8429841E-005  0.1293160E+03  0.7546771E-02  0.1230865E+00
          3   -1    0    0  502    0 -0.00000000000E+00  0.00000000000E+00  0.71529084829E+03  0.71529084829E+03  0.00000000000E+00 0. -1.
         21   -1    0    0  501  502  0.00000000000E+00 -0.00000000000E+00 -0.39096840228E+02  0.39096840228E+02  0.00000000000E+00 0.  1.
        -24    2    1    2    0    0  0.45996853525E+02  0.84422131443E+02  0.32835311761E+03  0.35139707799E+03  0.80133200122E+02 0.  0.
         23    2    1    2    0    0 -0.85681081823E+02 -0.47840837989E+02  0.16187331607E+03  0.20934927267E+03  0.89410032718E+02 0.  0.
         11    1    3    3    0    0  0.66318620317E+02  0.43223392359E+02  0.20259804158E+03  0.21751410874E+03  0.00000000000E+00 0. -1.
        -12    1    3    3    0    0 -0.20321766793E+02  0.41198739083E+02  0.12575507603E+03  0.13388296925E+03  0.00000000000E+00 0.  1.
        -13    1    4    4    0    0 -0.41028823648E+02  0.96587005849E+01  0.13808319631E+02  0.44354532553E+02  0.00000000000E+00 0.  1.
         13    1    4    4    0    0 -0.44652258175E+02 -0.57499538574E+02  0.14806499644E+03  0.16499474012E+03  0.00000000000E+00 0. -1.
          4    1    1    2  501    0  0.39684228298E+02 -0.36581293454E+02  0.18596757439E+03  0.19364133786E+03  0.00000000000E+00 0. -1.
<scales pt_clust_5="13000.00000" pt_clust_6="13000.00000" pt_clust_7="13000.00000" pt_clust_8="13000.00000" pt_clust_9="53.97251"></scales>
<clustering>
<clus scale="   53.973">  2  9  1 -1</clus>
<clus scale="   80.133">  5  6 -1 -1</clus>
<clus scale="   89.410">  7  8 -1 -1</clus>
<clus scale="  123.085">  1  5  2 -1</clus>
<clus scale="   53.973">  2  5  1 -1</clus>
</clustering>
</event>
<event>
 9    1  0.8429841E-005  0.1593338E+03  0.7546771E-02  0.1191247E+00
          1   -1    0    0  502    0 -0.00000000000E+00  0.00000000000E+00  0.11547705820E+03  0.11547705820E+03  0.00000000000E+00 0. -1.
         21   -1    0    0  501  502  0.00000000000E+00 -0.00000000000E+00 -0.50429982822E+03  0.50429982822E+03  0.00000000000E+00 0. -1.
        -24    2    1    2    0    0  0.13527149721E+03  0.35468926493E+02 -0.20692069632E+03  0.26284229953E+03  0.81935811154E+02 0.  0.
         23    2    1    2    0    0 -0.11837628534E+03 -0.85560395328E+01 -0.24419988081E+03  0.28700055770E+03  0.93003159020E+02 0.  0.
         13    1    3    3    0    0  0.59260075553E+02 -0.25620267524E+02 -0.81896534933E+02  0.10428421307E+03  0.00000000000E+00 0. -1.
        -14    1    3    3    0    0  0.76011421661E+02  0.61089194017E+02 -0.12502416139E+03  0.15855808645E+03  0.00000000000E+00 0.  1.
        -13    1    4    4    0    0 -0.86981108953E+02  0.26549637679E+02 -0.99359559791E+02  0.13469565211E+03  0.00000000000E+00 0.  1.
         13    1    4    4    0    0 -0.31395176387E+02 -0.35105677212E+02 -0.14484032102E+03  0.15230490559E+03  0.00000000000E+00 0. -1.
          2    1    1    2  501    0 -0.16895211874E+02 -0.26912886960E+02  0.62297807113E+02  0.69934029198E+02  0.00000000000E+00 0. -1.
<scales pt_clust_5="13000.00000" pt_clust_6="13000.00000" pt_clust_7="13000.00000" pt_clust_8="13000.00000" pt_clust_9="31.77661"></scales>
<clustering>
<clus scale="   31.777">  2  9  1 -1</clus>
<clus scale="   81.936">  5  6 -1 -1</clus>
<clus scale="   93.003">  7  8 -1 -1</clus>
<clus scale="  153.138">  1  5  2 -1</clus>
<clus scale="   31.777">  2  5  1 -1</clus>
</clustering>
</event>
<event>
 9    1  0.8429841E-005  0.2566883E+03  0.7546771E-02  0.1109915E+00
         21   -1    0    0  501  502  0.00000000000E+00  0.00000000000E+00  0.46477221240E+03  0.46477221240E+03  0.00000000000E+00 0. -1.
         -4   -1    0    0    0  501 -0.00000000000E+00 -0.00000000000E+00 -0.22998209927E+03  0.22998209927E+03  0.00000000000E+00 0.  1.
        -24    2    1    2    0    0 -0.10980490797E+03  0.22728203428E+03 -0.71367041689E+02  0.27410173230E+03  0.79525241833E+02 0.  0.
         23    2    1    2    0    0  0.11188502814E+03 -0.16473456164E+03  0.26981733877E+03  0.34828480019E+03  0.94048766153E+02 0.  0.
         13    1    3    3    0    0 -0.13401221658E+02  0.11798671112E+03 -0.36874695220E+02  0.12433905215E+03  0.00000000000E+00 0. -1.
        -14    1    3    3    0    0 -0.96403686313E+02  0.10929532316E+03 -0.34492346469E+02  0.14976268015E+03  0.00000000000E+00 0.  1.
        -13    1    4    4    0    0  0.10152773675E+02 -0.27750581351E+02  0.60711033635E+00  0.29555746676E+02  0.00000000000E+00 0.  1.
         13    1    4    4    0    0  0.10173225447E+03 -0.13698398029E+03  0.26921022844E+03  0.31872905351E+03  0.00000000000E+00 0. -1.
         -3    1    1    2    0  502 -0.20801201731E+01 -0.62547472637E+02  0.36339816050E+02  0.72367779183E+02  0.00000000000E+00 0.  1.
<scales pt_clust_5="13000.00000" pt_clust_6="13000.00000" pt_clust_7="13000.00000" pt_clust_8="13000.00000" pt_clust_9="62.58205"></scales>
<clustering>
<clus scale="   62.582">  1  9  2 -1</clus>
<clus scale="   79.525">  5  6 -1 -1</clus>
<clus scale="   94.049">  7  8 -1 -1</clus>
<clus scale="  251.730">  2  5  1 -1</clus>
<clus scale="   62.582">  1  5  2 -1</clus>
</clustering>
</event>
<event>
 9    1  0.8429841E-005  0.9537522E+02  0.7546771E-02  0.1297851E+00
          1   -1    0    0  502    0 -0.00000000000E+00  0.00000000000E+00  0.15054790909E+03  0.15054790909E+03  0.00000000000E+00 0. -1.
         21   -1    0    0  501  502  0.00000000000E+00 -0.00000000000E+00 -0.10196223004E+03  0.10196223004E+03  0.00000000000E+00 0.  1.
         23    2    1    2    0    0  0.41321929024E+02 -0.51458076007E+02  0.33290180541E+02  0.98880690570E+02  0.65678911704E+02 0.  0.
        -24    2    1    2    0    0  0.16819377446E+02  0.42064774037E+02 -0.46173910848E+00  0.92662767680E+02  0.80832163392E+02 0.  0.
         13    1    4    4    0    0 -0.27741675892E+02  0.22600219616E+02  0.18727483068E+02  0.40386744484E+02  0.00000000000E+00 0. -1.
        -14    1    4    4    0    0  0.44561053338E+02  0.19464554421E+02 -0.19189222177E+02  0.52276023196E+02  0.00000000000E+00 0.  1.
        -11    1    3    3    0    0  0.55942785266E+02 -0.34907584349E+02  0.38271763383E+02  0.76242131009E+02  0.00000000000E+00 0.  1.
         11    1    3    3    0    0 -0.14620856242E+02 -0.16550491658E+02 -0.49815828423E+01  0.22638559561E+02  0.00000000000E+00 0. -1.
          2    1    1    2  501    0 -0.58141306470E+02  0.93933019704E+01  0.15757237615E+02  0.60966680877E+02  0.00000000000E+00 0. -1.
<scales pt_clust_5="13000.00000" pt_clust_6="13000.00000" pt_clust_7="13000.00000" pt_clust_8="13000.00000" pt_clust_9="58.89524"></scales>
<clustering>
<clus scale="   58.895">  2  9  1 -1</clus>
<clus scale="   65.679">  7  8 -1 -1</clus>
<clus scale="   80.832">  5  6 -1 -1</clus>
<clus scale="   82.924">  1  7  2 -1</clus>
<clus scale="   58.895">  2  5  1 -1</clus>
</clustering>
</event>
<event>
 9    1  0.8429841E-005  0.1120599E+03  0.7546771E-02  0.1260009E+00
         21   -1    0    0  501  502  0.00000000000E+00  0.00000000000E+00  0.76089098452E+02  0.76089098452E+02  0.00000000000E+00 0. -1.
          1   -1    0    0  502    0 -0.00000000000E+00 -0.00000000000E+00 -0.34294346632E+03  0.34294346632E+03  0.00000000000E+00 0. -1.
        -24    2    1    2    0    0  0.83904698581E+02  0.24149124037E+02 -0.22483349288E+03  0.25384523994E+03  0.79146242397E+02 0.  0.
         23    2    1    2    0    0 -0.20875288562E+02 -0.28510856907E+02 -0.36866641115E+02  0.10179728328E+03  0.88061859065E+02 0.  0.
         13    1    3    3    0    0  0.83769090247E+02  0.45796639389E+02 -0.19337062852E+03  0.21565433599E+03  0.00000000000E+00 0. -1.
        -14    1    3    3    0    0  0.13560833353E+00 -0.21647515351E+02 -0.31462864360E+02  0.38190903947E+02  0.00000000000E+00 0.  1.
        -13    1    4    4    0    0  0.23600583584E+02 -0.28023953461E+01  0.15552230070E+02  0.28402690460E+02  0.00000000000E+00 0. -1.
         13    1    4    4    0    0 -0.44475872146E+02 -0.25708461560E+02 -0.52418871185E+02  0.73394592821E+02  0.00000000000E+00 0.  1.
          2    1    1    2  501    0 -0.63029410019E+02  0.43617328691E+01 -0.51542338754E+01  0.63390041551E+02  0.00000000000E+00 0. -1.
<scales pt_clust_5="13000.00000" pt_clust_6="13000.00000" pt_clust_7="13000.00000" pt_clust_8="13000.00000" pt_clust_9="63.18015"></scales>
<clustering>
<clus scale="   63.180">  1  9  2 -1</clus>
<clus scale="   79.146">  5  6 -1 -1</clus>
<clus scale="   88.062">  7  8 -1 -1</clus>
<clus scale="  105.198">  2  5  1 -1</clus>
<clus scale="   63.180">  1  5  2 -1</clus>
</clustering>
</event>
<event>
 9    1  0.8429841E-005  0.1039465E+03  0.7546771E-02  0.1276573E+00
         -2   -1    0    0    0  501 -0.00000000000E+00  0.00000000000E+00  0.32783971805E+03  0.32783971805E+03  0.00000000000E+00 0.  1.
         21   -1    0    0  501  502  0.00000000000E+00 -0.00000000000E+00 -0.76174932910E+02  0.76174932910E+02  0.00000000000E+00 0. -1.
         23    2    1    2    0    0  0.39753870395E+02 -0.40083379069E+02  0.24340683315E+03  0.26617894033E+03  0.91745813856E+02 0.  0.
        -24    2    1    2    0    0 -0.30691643724E+02 -0.71304558614E+01 -0.44584028121E+01  0.88106686509E+02  0.82158934126E+02 0.  0.
         11    1    4    4    0    0 -0.12947076836E+02  0.35262375255E+02  0.11776160419E+02  0.39366735469E+02  0.00000000000E+00 0. -1.
        -12    1    4    4    0    0 -0.17744566888E+02 -0.42392831117E+02 -0.16234563231E+02  0.48739951041E+02  0.00000000000E+00 0.  1.
        -13    1    3    3    0    0  0.29117532905E+02  0.24946502154E+02  0.59113886832E+02  0.70459990835E+02  0.00000000000E+00 0. -1.
         13    1    3    3    0    0  0.10636337490E+02 -0.65029881222E+02  0.18429294632E+03  0.19571894949E+03  0.00000000000E+00 0.  1.
         -1    1    1    2    0  502 -0.90622266710E+01  0.47213834930E+02  0.12716354803E+02  0.49729024126E+02  0.00000000000E+00 0.  1.
<scales pt_clust_5="13000.00000" pt_clust_6="13000.00000" pt_clust_7="13000.00000" pt_clust_8="13000.00000" pt_clust_9="48.07567"></scales>
<clustering>
<clus scale="   48.076">  2  9  1 -1</clus>
<clus scale="   82.159">  5  6 -1 -1</clus>
<clus scale="   91.746">  7  8 -1 -1</clus>
<clus scale="   95.591">  2  5  1 -1</clus>
<clus scale="   48.076">  2  5  1 -1</clus>
</clustering>
</event>
<event>
 9    1  0.8429841E-005  0.3047913E+03  0.7546771E-02  0.1083563E+00
          1   -1    0    0  502    0 -0.00000000000E+00  0.00000000000E+00  0.14000859552E+04  0.14000859552E+04  0.00000000000E+00 0. -1.
         21   -1    0    0  501  502  0.00000000000E+00 -0.00000000000E+00 -0.27936211763E+03  0.27936211763E+03  0.00000000000E+00 0. -1.
         23    2    1    2    0    0  0.20507230606E+03 -0.18786998474E+03  0.84634551611E+03  0.89663254177E+03  0.10148596175E+03 0.  0.
        -24    2    1    2    0    0 -0.35338332954E+02  0.41843194229E+03  0.24940246965E+03  0.49542688988E+03  0.83139179961E+02 0.  0.
         11    1    4    4    0    0 -0.57398137683E+02  0.34603483283E+03  0.18800112474E+03  0.39796868551E+03  0.00000000000E+00 0. -1.
        -12    1    4    4    0    0  0.22059804729E+02  0.72397109454E+02  0.61401344905E+02  0.97458204366E+02  0.00000000000E+00 0.  1.
        -13    1    3    3    0    0  0.78084896137E+02 -0.37728826560E+02  0.39336760221E+03  0.40281358694E+03  0.00000000000E+00 0.  1.
         13    1    3    3    0    0  0.12698740992E+03 -0.15014115818E+03  0.45297791391E+03  0.49381895483E+03  0.00000000000E+00 0. -1.
          2    1    1    2  501    0 -0.16973397310E+03 -0.23056195754E+03  0.24975851770E+02  0.28738864115E+03  0.00000000000E+00 0. -1.
<scales pt_clust_5="13000.00000" pt_clust_6="13000.00000" pt_clust_7="13000.00000" pt_clust_8="13000.00000" pt_clust_9="286.30131"></scales>
<clustering>
<clus scale="   83.139">  5  6 -1 -1</clus>
<clus scale="  101.486">  7  8 -1 -1</clus>
<clus scale="  286.301">  2  9  1 -1</clus>
<clus scale="  299.183">  2  5  1 -1</clus>
<clus scale="  286.301">  2  5  1 -1</clus>
</clustering>
</event>
<event>
 9    1  0.8429841E-005  0.1374207E+03  0.7546771E-02  0.1219736E+00
         21   -1    0    0  501  502  0.00000000000E+00  0.00000000000E+00  0.42555951358E+03  0.42555951358E+03  0.00000000000E+00 0. -1.
          3   -1    0    0  502    0 -0.00000000000E+00 -0.00000000000E+00 -0.68782751634E+02  0.68782751634E+02  0.00000000000E+00 0. -1.
        -24    2    1    2    0    0 -0.83049731794E+02 -0.37119799868E+02  0.10109842441E+03  0.15784568190E+03  0.80120099746E+02 0.  0.
         23    2    1    2    0    0  0.10513934240E+03  0.67322957183E+02  0.25548896972E+03  0.29907710350E+03  0.92659798782E+02 0.  0.
         13    1    3    3    0    0 -0.81356551677E+02 -0.21155850073E+02  0.11080680745E+03  0.13908489159E+03  0.00000000000E+00 0. -1.
        -14    1    3    3    0    0 -0.16931801166E+01 -0.15963949794E+02 -0.97083830323E+01  0.18760790310E+02  0.00000000000E+00 0.  1.
        -11    1    4    4    0    0  0.85986655100E+02  0.77788404882E+02  0.25142829703E+03  0.27687710150E+03  0.00000000000E+00 0. -1.
         11    1    4    4    0    0  0.19152687299E+02 -0.10465447699E+02  0.40606726892E+01  0.22200002005E+02  0.00000000000E+00 0.  1.
          4    1    1    2  501    0 -0.22089610606E+02 -0.30203157315E+02  0.18936781328E+00  0.37419479803E+02  0.00000000000E+00 0. -1.
<scales pt_clust_5="13000.00000" pt_clust_6="13000.00000" pt_clust_7="13000.00000" pt_clust_8="13000.00000" pt_clust_9="37.41902"></scales>
<clustering>
<clus scale="   37.419">  1  9  2 -1</clus>
<clus scale="   80.120">  5  6 -1 -1</clus>
<clus scale="   92.660">  7  8 -1 -1</clus>
<clus scale="  129.297">  2  5  1 -1</clus>
<clus scale="   37.419">  1  5  2 -1</clus>
</clustering>
</event>
<event>
 9    1  0.8429841E-005  0.1305952E+03  0.7546771E-02  0.1239331E+00
          3   -1    0    0  502    0 -0.00000000000E+00  0.00000000000E+00  0.51432950726E+03  0.51432950726E+03  0.00000000000E+00 0. -1.
         21   -1    0    0  501  502  0.00000000000E+00 -0.00000000000E+00 -0.11343087089E+03  0.11343087089E+03  0.00000000000E+00 0. -1.
         23    2    1    2    0    0 -0.32578759685E+02 -0.21825318563E+02  0.37738451704E+03  0.39053281067E+03  0.92515309018E+02 0.  0.
        -24    2    1    2    0    0 -0.83284421642E+02  0.17630583501E+01  0.27308213584E+02  0.11957908163E+03  0.81326594485E+02 0.  0.
         13    1    4    4    0    0 -0.99566801257E+02  0.32429157934E+01  0.27053154930E+02  0.10322760099E+03  0.00000000000E+00 0. -1.
        -14    1    4    4    0    0  0.16282379614E+02 -0.14798574433E+01  0.25505865406E+00  0.16351480633E+02  0.00000000000E+00 0.  1.
        -11    1    3    3    0    0 -0.59574187064E+02 -0.35475944353E+02  0.23747725251E+03  0.24739254607E+03  0.00000000000E+00 0. -1.
         11    1    3    3    0    0  0.26995427379E+02  0.13650625790E+02  0.13990726453E+03  0.14314026460E+03  0.00000000000E+00 0.  1.
          4    1    1    2  501    0  0.11586318133E+03  0.20062260213E+02 -0.37940942487E+01  0.11764848585E+03  0.00000000000E+00 0. -1.
<scales pt_clust_5="13000.00000" pt_clust_6="13000.00000" pt_clust_7="13000.00000" pt_clust_8="13000.00000" pt_clust_9="102.18171"></scales>
<clustering>
<clus scale="   81.327">  5  6 -1 -1</clus>
<clus scale="   92.515">  7  8 -1 -1</clus>
<clus scale="  100.483">  1  7  2 -1</clus>
<clus scale="  102.182">  2  9  1 -1</clus>
<clus scale="  102.182">  2  5  1 -1</clus>
</clustering>
</event>
<event>
 9    1  0.8429841E-005  0.8534613E+02  0.7546771E-02  0.1316139E+00
         21   -1    0    0  501  502  0.00000000000E+00  0.00000000000E+00  0.30930171272E+03  0.30930171272E+03  0.00000000000E+00 0. -1.
          1   -1    0    0  502    0 -0.00000000000E+00 -0.00000000000E+00 -0.54822013256E+02  0.54822013256E+02  0.00000000000E+00 0. -1.
         23    2    1    2    0    0  0.81190725849E+01 -0.14234628918E+02  0.12664760442E+02  0.84115334228E+02  0.81525758477E+02 0.  0.
        -24    2    1    2    0    0 -0.16883326276E+02  0.56098755596E+02  0.16430382515E+03  0.19147935686E+03  0.78971387589E+02 0.  0.
         13    1    4    4    0    0 -0.29257289086E+02  0.68432189024E+02  0.15438929807E+03  0.17139139073E+03  0.00000000000E+00 0. -1.
        -14    1    4    4    0    0  0.12373962810E+02 -0.12333433428E+02  0.99145270833E+01  0.20087966125E+02  0.00000000000E+00 0.  1.
        -13    1    3    3    0    0 -0.24114533433E+02  0.22366117710E+02 -0.26490164534E+01  0.32996533641E+02  0.00000000000E+00 0.  1.
         13    1    3    3    0    0  0.32233606018E+02 -0.36600746629E+02  0.15313776896E+02  0.51118800588E+02  0.00000000000E+00 0. -1.
          2    1    1    2  501    0  0.87642536909E+01 -0.41864126677E+02  0.77511113873E+02  0.88529034893E+02  0.00000000000E+00 0. -1.
<scales pt_clust_5="13000.00000" pt_clust_6="13000.00000" pt_clust_7="13000.00000" pt_clust_8="13000.00000" pt_clust_9="42.77169"></scales>
<clustering>
<clus scale="   42.772">  1  9  2 -1</clus>
<clus scale="   78.971">  5  6 -1 -1</clus>
<clus scale="   81.526">  7  8 -1 -1</clus>
<clus scale="   82.910">  1  5  2 -1</clus>
<clus scale="   42.772">  1  5  2 -1</clus>
</clustering>
</event>
<event>
 9    1  0.8429841E-005  0.2119389E+03  0.7546771E-02  0.1140944E+00
         21   -1    0    0  501  502  0.00000000000E+00  0.00000000000E+00  0.53322560141E+03  0.53322560141E+03  0.00000000000E+00 0. -1.
         -2   -1    0    0    0  501 -0.00000000000E+00 -0.00000000000E+00 -0.26114850090E+03  0.26114850090E+03  0.00000000000E+00 0.  1.
        -24    2    1    2    0    0 -0.27306536571E+02  0.18986926840E+03 -0.18269526342E+03  0.27684570000E+03  0.80436287297E+02 0.  0.
         23    2    1    2    0    0  0.60183005753E+02 -0.17766642562E+03  0.41474396217E+03  0.46431144501E+03  0.91570796816E+02 0.  0.
         11    1    3    3    0    0  0.11768673151E+02  0.53112205131E+02 -0.13960566562E+02  0.56163203437E+02  0.00000000000E+00 0. -1.
        -12    1    3    3    0    0 -0.39075209722E+02  0.13675706327E+03 -0.16873469685E+03  0.22068249657E+03  0.00000000000E+00 0.  1.
        -11    1    4    4    0    0 -0.17552330686E+02 -0.54217666101E+02  0.17099318551E+03  0.18023958810E+03  0.00000000000E+00 0.  1.
         11    1    4    4    0    0  0.77735336439E+02 -0.12344875952E+03  0.24375077667E+03  0.28407185690E+03  0.00000000000E+00 0. -1.
         -1    1    1    2    0  502 -0.32876469182E+02 -0.12202842778E+02  0.40028401754E+02  0.53216957304E+02  0.00000000000E+00 0.  1.
<scales pt_clust_5="13000.00000" pt_clust_6="13000.00000" pt_clust_7="13000.00000" pt_clust_8="13000.00000" pt_clust_9="35.06810"></scales>
<clustering>
<clus scale="   35.068">  1  9  2 -1</clus>
<clus scale="   80.436">  5  6 -1 -1</clus>
<clus scale="   91.571">  7  8 -1 -1</clus>
<clus scale="  207.371">  2  5  1 -1</clus>
<clus scale="   35.068">  1  5  2 -1</clus>
</clustering>
</event>
<event>
 9    1  0.8429841E-005  0.9598491E+02  0.7546771E-02  0.1294049E+00
          1   -1    0    0  502    0 -0.00000000000E+00  0.00000000000E+00  0.51250473366E+03  0.51250473366E+03  0.00000000000E+00 0. -1.
         21   -1    0    0  501  502  0.00000000000E+00 -0.00000000000E+00 -0.51385402216E+02  0.51385402216E+02  0.00000000000E+00 0. -1.
        -24    2    1    2    0    0 -0.25708182147E+02  0.12826829551E+02  0.30382742227E+03  0.31501289180E+03  0.78080607668E+02 0.  0.
         23    2    1    2    0    0  0.69562512073E+02 -0.17743645728E+02  0.16876386803E+03  0.20328137612E+03  0.87682921235E+02 0.  0.
         13    1    3    3    0    0 -0.33826880967E+02 -0.26396817790E+02  0.14525512575E+03  0.15145990038E+03  0.00000000000E+00 0. -1.
        -14    1    3    3    0    0  0.81186988200E+01  0.39223647341E+02  0.15857229652E+03  0.16355299142E+03  0.00000000000E+00 0.  1.
        -13    1    4    4    0    0  0.88156258104E+02 -0.70295798604E+01  0.15275624044E+03  0.17650895113E+03  0.00000000000E+00 0. -1.
         13    1    4    4    0    0 -0.18593746031E+02 -0.10714065867E+02  0.16007627589E+02  0.26772424991E+02  0.00000000000E+00 0.  1.
          2    1    1    2  501    0 -0.43854329925E+02  0.49168161771E+01 -0.11471958853E+02  0.45595867953E+02  0.00000000000E+00 0. -1.
<scales pt_clust_5="13000.00000" pt_clust_6="13000.00000" pt_clust_7="13000.00000" pt_clust_8="13000.00000" pt_clust_9="44.12910"></scales>
<clustering>
<clus scale="   44.129">  2  9  1 -1</clus>
<clus scale="   78.081">  5  6 -1 -1</clus>
<clus scale="   87.301">  1  5  2 -1</clus>
<clus scale="   87.683">  7  8 -1 -1</clus>
<clus scale="   44.129">  2  5  1 -1</clus>
</clustering>
</event>
<event>
 9    1  0.8429841E-005  0.1034436E+03  0.7546771E-02  0.1277138E+00
          1   -1    0    0  502    0 -0.00000000000E+00  0.00000000000E+00  0.15429369963E+03  0.15429369963E+03  0.00000000000E+00 0. -1.
         21   -1    0    0  501  502  0.00000000000E+00 -0.00000000000E+00 -0.13413070598E+03  0.13413070598E+03  0.00000000000E+00 0. -1.
         23    2    1    2    0    0 -0.51042507950E+02 -0.17029096988E+02  0.57766650290E+02  0.11987865576E+03  0.90214070185E+02 0.  0.
        -24    2    1    2    0    0  0.47915212819E+02 -0.26007271967E+02 -0.64800110857E+02  0.11754029768E+03  0.81513320372E+02 0.  0.
         11    1    4    4    0    0  0.38106793753E+02 -0.52942754486E+02 -0.28238195649E+02  0.71080649098E+02  0.00000000000E+00 0. -1.
        -12    1    4    4    0    0  0.98084190661E+01  0.26935482519E+02 -0.36561915208E+02  0.46459648587E+02  0.00000000000E+00 0.  1.
        -11    1    3    3    0    0  0.19711749866E+02 -0.21811974230E+02  0.34313090455E+02  0.45185213059E+02  0.00000000000E+00 0.  1.
         11    1    3    3    0    0 -0.70754257816E+02  0.47828772414E+01  0.23453559835E+02  0.74693442703E+02  0.00000000000E+00 0. -1.
          2    1    1    2  501    0  0.31272951314E+01  0.43036368955E+02  0.27196454217E+02  0.51005452156E+02  0.00000000000E+00 0. -1.
<scales pt_clust_5="13000.00000" pt_clust_6="13000.00000" pt_clust_7="13000.00000" pt_clust_8="13000.00000" pt_clust_9="43.14987"></scales>
<clustering>
<clus scale="   43.150">  2  9  1 -1</clus>
<clus scale="   81.513">  5  6 -1 -1</clus>
<clus scale="   90.214">  7  8 -1 -1</clus>
<clus scale="   95.950">  2  5  1 -1</clus>
<clus scale="   43.150">  2  5  1 -1</clus>
</clustering>
</event>
<event>
 9    1  0.8429841E-005  0.1606556E+03  0.7546771E-02  0.1213966E+00
         21   -1    0    0  501  502  0.00000000000E+00  0.00000000000E+00  0.40728648524E+03  0.40728648524E+03  0.00000000000E+00 0.  1.
         -2   -1    0    0    0  501 -0.00000000000E+00 -0.00000000000E+00 -0.31824832644E+03  0.31824832644E+03  0.00000000000E+00 0.  1.
        -24    2    1    2    0    0 -0.23627163158E+02 -0.19181231594E+02 -0.21449054594E+03  0.23315291120E+03  0.86185400264E+02 0.  0.
         23    2    1    2    0    0 -0.12292757647E+03 -0.27506880268E+02  0.30037073548E+03  0.33853767971E+03  0.92289567847E+02 0.  0.
         13    1    3    3    0    0  0.74642209664E+01  0.25228223582E+02 -0.13093240688E+03  0.13354951527E+03  0.00000000000E+00 0. -1.
        -14    1    3    3    0    0 -0.31091384125E+02 -0.44409455176E+02 -0.83558139060E+02  0.99603395921E+02  0.00000000000E+00 0.  1.
        -11    1    4    4    0    0 -0.33108271448E+02  0.32162048983E+02  0.11750884396E+03  0.12624929086E+03  0.00000000000E+00 0. -1.
         11    1    4    4    0    0 -0.89819305020E+02 -0.59668929251E+02  0.18286189152E+03  0.21228838886E+03  0.00000000000E+00 0.  1.
         -1    1    1    2    0  502  0.14655473963E+03  0.46688111862E+02  0.31579692544E+01  0.15384422077E+03  0.00000000000E+00 0.  1.
<scales pt_clust_5="13000.00000" pt_clust_6="13000.00000" pt_clust_7="13000.00000" pt_clust_8="13000.00000" pt_clust_9="131.50242"></scales>
<clustering>
<clus scale="   86.185">  5  6 -1 -1</clus>
<clus scale="   91.401">  2  5  1 -1</clus>
<clus scale="   92.290">  7  8 -1 -1</clus>
<clus scale="  131.502">  1  9  2 -1</clus>
<clus scale="  131.502">  1  5  2 -1</clus>
</clustering>
</event>
<event>
 9    1  0.8429841E-005  0.1043894E+03  0.7546771E-02  0.1276180E+00
          1   -1    0    0  502    0 -0.00000000000E+00  0.00000000000E+00  0.11788287088E+04  0.11788287088E+04  0.00000000000E+00 0. -1.
         21   -1    0    0  501  502  0.00000000000E+00 -0.00000000000E+00 -0.26210521948E+02  0.26210521948E+02  0.00000000000E+00 0. -1.
        -24    2    1    2    0    0 -0.64058347334E+02 -0.30695545249E+01  0.63299055175E+03  0.64126816118E+03  0.80217964999E+02 0.  0.
         23    2    1    2    0    0 -0.98192295165E+01  0.24803668644E+02  0.10279763683E+03  0.13988722282E+03  0.91046371280E+02 0.  0.
         13    1    3    3    0    0 -0.47678229784E+02 -0.38923999411E+02  0.32624016769E+03  0.33199538904E+03  0.00000000000E+00 0. -1.
        -14    1    3    3    0    0 -0.16380117550E+02  0.35854444886E+02  0.30675038406E+03  0.30927277215E+03  0.00000000000E+00 0.  1.
        -13    1    4    4    0    0 -0.14220655177E+02 -0.21838023588E+02  0.86411055617E+02  0.90255176255E+02  0.00000000000E+00 0.  1.
         13    1    4    4    0    0  0.44014256606E+01  0.46641692232E+02  0.16386581212E+02  0.49632046562E+02  0.00000000000E+00 0. -1.
          2    1    1    2  501    0  0.73877576850E+02 -0.21734114119E+02  0.41682999831E+03  0.42388384679E+03  0.00000000000E+00 0. -1.
<scales pt_clust_5="13000.00000" pt_clust_6="13000.00000" pt_clust_7="13000.00000" pt_clust_8="13000.00000" pt_clust_9="77.00827"></scales>
<clustering>
<clus scale="   77.008">  2  9  1 -1</clus>
<clus scale="   80.218">  5  6 -1 -1</clus>
<clus scale="   91.046">  7  8 -1 -1</clus>
<clus scale="   95.093">  1  5  2 -1</clus>
<clus scale="   77.008">  2  5  1 -1</clus>
</clustering>
</event>
<event>
 9    1  0.8429841E-005  0.3845747E+03  0.7546771E-02  0.1049461E+00
         21   -1    0    0  501  502  0.00000000000E+00  0.00000000000E+00  0.12525227508E+03  0.12525227508E+03  0.00000000000E+00 0. -1.
         -2   -1    0    0    0  501 -0.00000000000E+00 -0.00000000000E+00 -0.23375008231E+04  0.23375008231E+04  0.00000000000E+00 0.  1.
         23    2    1    2    0    0  0.22144657432E+03 -0.14183706022E+03 -0.47978916960E+03  0.55469043641E+03  0.91255115150E+02 0.  0.
        -24    2    1    2    0    0 -0.43607486801E+03  0.27685306563E+03 -0.13639652563E+04  0.14607567886E+04  0.81242011954E+02 0.  0.
         13    1    4    4    0    0 -0.21175139247E+03  0.15628654964E+03 -0.79406198696E+03  0.83653964458E+03  0.00000000000E+00 0. -1.
        -14    1    4    4    0    0 -0.22432347553E+03  0.12056651599E+03 -0.56990326937E+03  0.62421714402E+03  0.00000000000E+00 0.  1.
        -13    1    3    3    0    0  0.91283999475E+02 -0.18750761612E+02 -0.11283282387E+03  0.14634071806E+03  0.00000000000E+00 0.  1.
         13    1    3    3    0    0  0.13016257485E+03 -0.12308629861E+03 -0.36695634573E+03  0.40834971834E+03  0.00000000000E+00 0. -1.
         -1    1    1    2    0  502  0.21462829368E+03 -0.13501600541E+03 -0.36849412214E+03  0.44730587322E+03  0.00000000000E+00 0.  1.
<scales pt_clust_5="13000.00000" pt_clust_6="13000.00000" pt_clust_7="13000.00000" pt_clust_8="13000.00000" pt_clust_9="253.56385"></scales>
<clustering>
<clus scale="   81.242">  5  6 -1 -1</clus>
<clus scale="   91.255">  7  8 -1 -1</clus>
<clus scale="  253.564">  1  9  2 -1</clus>
<clus scale="  382.322">  1  5  2 -1</clus>
<clus scale="  253.564">  1  5  2 -1</clus>
</clustering>
</event>
<event>
 9    1  0.8429841E-005  0.9880157E+02  0.7546771E-02  0.1289225E+00
         21   -1    0    0  501  502  0.00000000000E+00  0.00000000000E+00  0.80813915959E+02  0.80813915959E+02  0.00000000000E+00 0.  1.
          1   -1    0    0  502    0 -0.00000000000E+00 -0.00000000000E+00 -0.31021802052E+03  0.31021802052E+03  0.00000000000E+00 0. -1.
        -24    2    1    2    0    0 -0.42752577905E+02  0.19060324540E+01 -0.22979888676E+03  0.24719952378E+03  0.80427982221E+02 0.  0.
         23    2    1    2    0    0 -0.26795799596E+01  0.11941708591E+02 -0.13639100177E+02  0.94306755162E+02  0.92509212853E+02 0.  0.
         11    1    3    3    0    0 -0.50990190827E+02 -0.22670284882E+02 -0.97098278240E+02  0.11199114704E+03  0.00000000000E+00 0. -1.
        -12    1    3    3    0    0  0.82376129218E+01  0.24576317336E+02 -0.13270060852E+03  0.13520837675E+03  0.00000000000E+00 0.  1.
        -13    1    4    4    0    0  0.20892875573E+02 -0.29280824064E+02 -0.27000114716E+02  0.44976494998E+02  0.00000000000E+00 0. -1.
         13    1    4    4    0    0 -0.23572455532E+02  0.41222532655E+02  0.13361014539E+02  0.49330260164E+02  0.00000000000E+00 0.  1.
          2    1    1    2  501    0  0.45432157865E+02 -0.13847741045E+02  0.14033882374E+02  0.49525657540E+02  0.00000000000E+00 0. -1.
<scales pt_clust_5="13000.00000" pt_clust_6="13000.00000" pt_clust_7="13000.00000" pt_clust_8="13000.00000" pt_clust_9="47.49569"></scales>
<clustering>
<clus scale="   47.496">  1  9  2 -1</clus>
<clus scale="   80.428">  5  6 -1 -1</clus>
<clus scale="   87.593">  2  5  1 -1</clus>
<clus scale="   92.509">  7  8 -1 -1</clus>
<clus scale="   47.496">  1  5  2 -1</clus>
</clustering>
</event>
<event>
 9    1  0.8429841E-005  0.1405615E+03  0.7546771E-02  0.1219874E+00
          3   -1    0    0  502    0 -0.00000000000E+00  0.00000000000E+00  0.89089077287E+03  0.89089077287E+03  0.00000000000E+00 0. -1.
         21   -1    0    0  501  502  0.00000000000E+00 -0.00000000000E+00 -0.64934098383E+02  0.64934098383E+02  0.00000000000E+00 0. -1.
        -24    2    1    2    0    0  0.43920448161E+02  0.76434221156E+02  0.55295773830E+03  0.56592901489E+03  0.82110861732E+02 0.  0.
         23    2    1    2    0    0  0.79472166156E+02 -0.78356628562E+02  0.90034245492E+02  0.16920260554E+03  0.89820765570E+02 0.  0.
         13    1    3    3    0    0  0.92916915041E+01  0.54587548761E+02  0.13420866924E+03  0.14518299800E+03  0.00000000000E+00 0. -1.
        -14    1    3    3    0    0  0.34628756657E+02  0.21846672394E+02  0.41874906907E+03  0.42074601689E+03  0.00000000000E+00 0.  1.
        -11    1    4    4    0    0 -0.98833316784E+01 -0.37069636190E+02  0.49801035073E+02  0.62864785586E+02  0.00000000000E+00 0.  1.
         11    1    4    4    0    0  0.89355497834E+02 -0.41286992371E+02  0.40233210419E+02  0.10633781996E+03  0.00000000000E+00 0. -1.
          4    1    1    2  501    0 -0.12339261432E+03  0.19224074062E+01  0.18296469069E+03  0.22069325082E+03  0.00000000000E+00 0. -1.
<scales pt_clust_5="13000.00000" pt_clust_6="13000.00000" pt_clust_7="13000.00000" pt_clust_8="13000.00000" pt_clust_9="108.11927"></scales>
<clustering>
<clus scale="   82.111">  5  6 -1 -1</clus>
<clus scale="   89.821">  7  8 -1 -1</clus>
<clus scale="  120.472">  1  5  2 -1</clus>
<clus scale="  108.119">  2  9  1 -1</clus>
<clus scale="  108.119">  2  5  1 -1</clus>
</clustering>
</event>
<event>
 9    1  0.8429841E-005  0.9703648E+02  0.7546771E-02  0.1291268E+00
          1   -1    0    0  502    0 -0.00000000000E+00  0.00000000000E+00  0.24423237702E+03  0.24423237702E+03  0.00000000000E+00 0. -1.
         21   -1    0    0  501  502  0.00000000000E+00 -0.00000000000E+00 -0.11264105641E+03  0.11264105641E+03  0.00000000000E+00 0.  1.
        -24    2    1    2    0    0  0.45641950360E+02 -0.98894560789E+01  0.90059061230E+02  0.12996303323E+03  0.81232792163E+02 0.  0.
         23    2    1    2    0    0  0.87848385420E+01  0.14931572100E+01 -0.62007748290E+02  0.10963590862E+03  0.89975934030E+02 0.  0.
         11    1    3    3    0    0  0.63748336727E+02 -0.25696547637E+02  0.58259388292E+02  0.90101716521E+02  0.00000000000E+00 0. -1.
        -12    1    3    3    0    0 -0.18106386367E+02  0.15807091558E+02  0.31799672939E+02  0.39861316709E+02  0.00000000000E+00 0.  1.
        -13    1    4    4    0    0  0.60597311382E+01  0.40746043240E+02 -0.66628189065E+01  0.41729528358E+02  0.00000000000E+00 0. -1.
         13    1    4    4    0    0  0.27251074038E+01 -0.39252886030E+02 -0.55344929384E+02  0.67906380264E+02  0.00000000000E+00 0.  1.
          2    1    1    2  501    0 -0.54426788902E+02  0.83962988688E+01  0.10354000768E+03  0.11727449158E+03  0.00000000000E+00 0. -1.
<scales pt_clust_5="13000.00000" pt_clust_6="13000.00000" pt_clust_7="13000.00000" pt_clust_8="13000.00000" pt_clust_9="55.07065"></scales>
<clustering>
<clus scale="   55.071">  2  9  1 -1</clus>
<clus scale="   81.233">  5  6 -1 -1</clus>
<clus scale="   88.990">  1  5  2 -1</clus>
<clus scale="   89.976">  7  8 -1 -1</clus>
<clus scale="   55.071">  2  5  1 -1</clus>
</clustering>
</event>
<event>
 9    1  0.8429841E-005  0.1293045E+03  0.7546771E-02  0.1232596E+00
          3   -1    0    0  502    0 -0.00000000000E+00  0.00000000000E+00  0.61915871512E+03  0.61915871512E+03  0.00000000000E+00 0. -1.
         21   -1    0    0  501  502  0.00000000000E+00 -0.00000000000E+00 -0.79683185853E+02  0.79683185853E+02  0.00000000000E+00 0. -1.
        -24    2    1    2    0    0  0.37140912241E+02 -0.84508481290E+02  0.39105286720E+03  0.40958778384E+03  0.79490106029E+02 0.  0.
         23    2    1    2    0    0  0.55063747887E+02  0.94491008012E+02  0.13066420656E+03  0.19482576899E+03  0.94463635662E+02 0.  0.
         11    1    3    3    0    0  0.12493309780E+02 -0.68831099144E+02  0.36085593635E+03  0.36757422352E+03  0.00000000000E+00 0. -1.
        -12    1    3    3    0    0  0.24647602461E+02 -0.15677382147E+02  0.30196930846E+02  0.42013560318E+02  0.00000000000E+00 0.  1.
        -11    1    4    4    0    0  0.70719840941E+02  0.61003182862E+02  0.49641738145E+02  0.10576855104E+03  0.00000000000E+00 0. -1.
         11    1    4    4    0    0 -0.15656093054E+02  0.33487825150E+02  0.81022468412E+02  0.89057217959E+02  0.00000000000E+00 0.  1.
          4    1    1    2  501    0 -0.92204660128E+02 -0.99825267215E+01  0.17758455508E+02  0.94428348133E+02  0.00000000000E+00 0. -1.
<scales pt_clust_5="13000.00000" pt_clust_6="13000.00000" pt_clust_7="13000.00000" pt_clust_8="13000.00000" pt_clust_9="92.74346"></scales>
<clustering>
<clus scale="   79.490">  5  6 -1 -1</clus>
<clus scale="   92.743">  2  9  1 -1</clus>
<clus scale="   94.464">  7  8 -1 -1</clus>
<clus scale="  118.806">  1  5  2 -1</clus>
<clus scale="   92.743">  2  5  1 -1</clus>
</clustering>
</event>
<event>
 9    1  0.8429841E-005  0.9174624E+02  0.7546771E-02  0.1307795E+00
         21   -1    0    0  501  502  0.00000000000E+00  0.00000000000E+00  0.50685231931E+03  0.50685231931E+03  0.00000000000E+00 0.  1.
         -2   -1    0    0    0  501 -0.00000000000E+00 -0.00000000000E+00 -0.33364282916E+02  0.33364282916E+02  0.00000000000E+00 0.  1.
        -24    2    1    2    0    0 -0.19178941463E+01  0.85536315239E+01  0.36183953690E+02  0.85863822766E+02  0.77372311747E+02 0.  0.
         23    2    1    2    0    0 -0.20681171704E+02  0.89724026357E+01  0.35060503628E+03  0.36305872543E+03  0.91539782467E+02 0.  0.
         13    1    3    3    0    0  0.28198924686E+02  0.16906655540E+02  0.42746583030E+02  0.53928514866E+02  0.00000000000E+00 0. -1.
        -14    1    3    3    0    0 -0.30116818832E+02 -0.83530240159E+01 -0.65626293396E+01  0.31935307899E+02  0.00000000000E+00 0.  1.
        -11    1    4    4    0    0  0.31028755750E+02 -0.37768396514E+01  0.60417998102E+02  0.68024868216E+02  0.00000000000E+00 0. -1.
         11    1    4    4    0    0 -0.51709927454E+02  0.12749242287E+02  0.29018703818E+03  0.29503385721E+03  0.00000000000E+00 0.  1.
         -1    1    1    2    0  502  0.22599065850E+02 -0.17526034160E+02  0.86699046427E+02  0.91294054035E+02  0.00000000000E+00 0.  1.
<scales pt_clust_5="13000.00000" pt_clust_6="13000.00000" pt_clust_7="13000.00000" pt_clust_8="13000.00000" pt_clust_9="28.59860"></scales>
<clustering>
<clus scale="   28.599">  1  9  2 -1</clus>
<clus scale="   77.372">  5  6 -1 -1</clus>
<clus scale="   77.616">  2  5  1 -1</clus>
<clus scale="   91.540">  7  8 -1 -1</clus>
<clus scale="   28.599">  1  5  2 -1</clus>
</clustering>
</event>
<event>
 9    1  0.8429841E-005  0.1325119E+03  0.7546771E-02  0.1246081E+00
         -2   -1    0    0    0  501 -0.00000000000E+00  0.00000000000E+00  0.34275380730E+03  0.34275380730E+03  0.00000000000E+00 0.  1.
         21   -1    0    0  501  502  0.00000000000E+00 -0.00000000000E+00 -0.84544670719E+02  0.84544670719E+02  0.00000000000E+00 0.  1.
        -24    2    1    2    0    0  0.19654505668E+02  0.15152366583E+02  0.14421385546E+03  0.16685164599E+03  0.80161972625E+02 0.  0.
         23    2    1    2    0    0  0.71819379534E+02 -0.55044728552E+02  0.92622619231E+02  0.15838967700E+03  0.91216197957E+02 0.  0.
         11    1    3    3    0    0 -0.18566329647E+02 -0.18527062029E+02  0.21262947900E+02  0.33764975602E+02  0.00000000000E+00 0. -1.
        -12    1    3    3    0    0  0.38220835314E+02  0.33679428613E+02  0.12295090756E+03  0.13308667039E+03  0.00000000000E+00 0.  1.
        -13    1    4    4    0    0  0.57832308007E+02 -0.72455336247E+02  0.39512412995E+02  0.10077490948E+03  0.00000000000E+00 0.  1.
         13    1    4    4    0    0  0.13987071527E+02  0.17410607695E+02  0.53110206236E+02  0.57614767522E+02  0.00000000000E+00 0. -1.
         -1    1    1    2    0  502 -0.91473885201E+02  0.39892361969E+02  0.21372661893E+02  0.10205715503E+03  0.00000000000E+00 0.  1.
<scales pt_clust_5="13000.00000" pt_clust_6="13000.00000" pt_clust_7="13000.00000" pt_clust_8="13000.00000" pt_clust_9="96.11978"></scales>
<clustering>
<clus scale="   80.162">  5  6 -1 -1</clus>
<clus scale="   83.916">  1  5  2 -1</clus>
<clus scale="   91.216">  7  8 -1 -1</clus>
<clus scale="   96.120">  2  9  1 -1</clus>
<clus scale="   96.120">  2  5  1 -1</clus>
</clustering>
</event>
<event>
 9    1  0.8429841E-005  0.1931812E+03  0.7546771E-02  0.1156525E+00
         21   -1    0    0  501  502  0.00000000000E+00  0.00000000000E+00  0.10686524466E+03  0.10686524466E+03  0.00000000000E+00 0. -1.
          1   -1    0    0  502    0 -0.00000000000E+00 -0.00000000000E+00 -0.56635617580E+03  0.56635617580E+03  0.00000000000E+00 0. -1.
         23    2    1    2    0    0  0.15340358848E+03 -0.11761871112E+03 -0.37556912572E+03  0.43207604540E+03  0.90943491545E+02 0.  0.
        -24    2    1    2    0    0 -0.11828094064E+03  0.54881124868E+02 -0.61074380240E+02  0.16570261559E+03  0.82005841903E+02 0.  0.
         11    1    4    4    0    0 -0.10055565359E+03  0.69066190716E+01 -0.53151334449E+02  0.11394825672E+03  0.00000000000E+00 0. -1.
        -12    1    4    4    0    0 -0.17725287050E+02  0.47974505797E+02 -0.79230457910E+01  0.51754358870E+02  0.00000000000E+00 0.  1.
        -11    1    3    3    0    0  0.11814982237E+03 -0.12089202716E+03 -0.25130962755E+03  0.30287091583E+03  0.00000000000E+00 0. -1.
         11    1    3    3    0    0  0.35253766109E+02  0.32733160406E+01 -0.12425949817E+03  0.12920512957E+03  0.00000000000E+00 0.  1.
          2    1    1    2  501    0 -0.35122647838E+02  0.62737586247E+02 -0.22847425182E+02  0.75442759472E+02  0.00000000000E+00 0. -1.
<scales pt_clust_5="13000.00000" pt_clust_6="13000.00000" pt_clust_7="13000.00000" pt_clust_8="13000.00000" pt_clust_9="71.89997"></scales>
<clustering>
<clus scale="   71.900">  1  9  2 -1</clus>
<clus scale="   82.006">  5  6 -1 -1</clus>
<clus scale="   90.943">  7  8 -1 -1</clus>
<clus scale="  189.138">  1  5  2 -1</clus>
<clus scale="   71.900">  1  5  2 -1</clus>
</clustering>
</event>
<event>
 9    1  0.8429841E-005  0.1061784E+03  0.7546771E-02  0.1273659E+00
          1   -1    0    0  502    0 -0.00000000000E+00  0.00000000000E+00  0.70183048413E+03  0.70183048413E+03  0.00000000000E+00 0. -1.
         21   -1    0    0  501  502  0.00000000000E+00 -0.00000000000E+00 -0.25382692235E+02  0.25382692235E+02  0.00000000000E+00 0.  1.
         23    2    1    2    0    0 -0.77666219987E+02  0.23393721132E+02  0.30990643021E+03  0.33312379290E+03  0.91379198947E+02 0.  0.
        -24    2    1    2    0    0  0.26299884528E+02 -0.13824358758E+02  0.15303541226E+03  0.17428296055E+03  0.77922500657E+02 0.  0.
         13    1    4    4    0    0  0.20704701817E+02 -0.28884490834E+02  0.15413543878E+03  0.15817942969E+03  0.00000000000E+00 0. -1.
        -14    1    4    4    0    0  0.55951827114E+01  0.15060132076E+02 -0.11000265184E+01  0.16103530857E+02  0.00000000000E+00 0.  1.
        -13    1    3    3    0    0  0.20293721606E+02  0.11363909693E+02  0.67529633216E+02  0.71422860083E+02  0.00000000000E+00 0. -1.
         13    1    3    3    0    0 -0.97959941594E+02  0.12029811439E+02  0.24237679699E+03  0.26170093282E+03  0.00000000000E+00 0.  1.
          2    1    1    2  501    0  0.51366335459E+02 -0.95693623738E+01  0.21350594943E+03  0.21980642292E+03  0.00000000000E+00 0. -1.
<scales pt_clust_5="13000.00000" pt_clust_6="13000.00000" pt_clust_7="13000.00000" pt_clust_8="13000.00000" pt_clust_9="52.25013"></scales>
<clustering>
<clus scale="   52.250">  2  9  1 -1</clus>
<clus scale="   77.923">  5  6 -1 -1</clus>
<clus scale="   91.379">  7  8 -1 -1</clus>
<clus scale="   94.845">  2  5  1 -1</clus>
<clus scale="   52.250">  2  5  1 -1</clus>
</clustering>
</event>
<event>
 9    1  0.8429841E-005  0.1009360E+03  0.7546771E-02  0.1284625E+00
         21   -1    0    0  501  502  0.00000000000E+00  0.00000000000E+00  0.17360381840E+03  0.17360381840E+03  0.00000000000E+00 0. -1.
         -4   -1    0    0    0  501 -0.00000000000E+00 -0.00000000000E+00 -0.22952270987E+03  0.22952270987E+03  0.00000000000E+00 0.  1.
        -24    2    1    2    0    0  0.15525942483E+02 -0.42435644252E+02 -0.15594847549E+03  0.18158481149E+03  0.81309765488E+02 0.  0.
         23    2    1    2    0    0  0.12764202095E+01 -0.35771266656E+02  0.99903737825E+02  0.14155011631E+03  0.93672118746E+02 0.  0.
         13    1    3    3    0    0  0.17151221047E+02  0.22292011538E+02 -0.52025339387E+02  0.59141644381E+02  0.00000000000E+00 0. -1.
        -14    1    3    3    0    0 -0.16252785642E+01 -0.64727655790E+02 -0.10392313610E+03  0.12244316711E+03  0.00000000000E+00 0.  1.
        -13    1    4    4    0    0  0.61202497159E+01  0.29198660885E+02  0.54527445766E+02  0.62155141347E+02  0.00000000000E+00 0.  1.
         13    1    4    4    0    0 -0.48438295064E+01 -0.64969927542E+02  0.45376292059E+02  0.79394974967E+02  0.00000000000E+00 0. -1.
         -3    1    1    2    0  502 -0.16802362693E+02  0.78206910909E+02  0.12584619540E+00  0.79991600454E+02  0.00000000000E+00 0.  1.
<scales pt_clust_5="13000.00000" pt_clust_6="13000.00000" pt_clust_7="13000.00000" pt_clust_8="13000.00000" pt_clust_9="79.99150"></scales>
<clustering>
<clus scale="   79.992">  1  9  2 -1</clus>
<clus scale="   81.310">  5  6 -1 -1</clus>
<clus scale="   89.582">  2  5  1 -1</clus>
<clus scale="   93.672">  7  8 -1 -1</clus>
<clus scale="   79.992">  1  5  2 -1</clus>
</clustering>
</event>
<event>
 9    1  0.8429841E-005  0.9494734E+02  0.7546771E-02  0.1295914E+00
          3   -1    0    0  502    0 -0.00000000000E+00  0.00000000000E+00  0.17768625495E+02  0.17768625495E+02  0.00000000000E+00 0. -1.
         21   -1    0    0  501  502  0.00000000000E+00 -0.00000000000E+00 -0.84262070769E+03  0.84262070769E+03  0.00000000000E+00 0.  1.
         23    2    1    2    0    0 -0.25422031104E+02 -0.16013322690E+02 -0.18791042610E+03  0.21073149545E+03  0.90524741189E+02 0.  0.
        -24    2    1    2    0    0  0.32346560690E+02 -0.11403093328E+02 -0.57089547990E+03  0.57781282143E+03  0.82278047623E+02 0.  0.
         13    1    4    4    0    0 -0.14498220455E+01 -0.25381305218E+02 -0.54654027551E+02  0.60277486394E+02  0.00000000000E+00 0. -1.
        -14    1    4    4    0    0  0.33796382735E+02  0.13978211890E+02 -0.51624145235E+03  0.51753533504E+03  0.00000000000E+00 0.  1.
        -13    1    3    3    0    0  0.53340961327E+01 -0.46230179858E+02 -0.61183401887E+02  0.76870610624E+02  0.00000000000E+00 0. -1.
         13    1    3    3    0    0 -0.30756127236E+02  0.30216857168E+02 -0.12672702422E+03  0.13386088483E+03  0.00000000000E+00 0.  1.
          4    1    1    2  501    0 -0.69245295860E+01  0.27416416018E+02 -0.66046176195E+02  0.71845016301E+02  0.00000000000E+00 0. -1.
<scales pt_clust_5="13000.00000" pt_clust_6="13000.00000" pt_clust_7="13000.00000" pt_clust_8="13000.00000" pt_clust_9="28.27737"></scales>
<clustering>
<clus scale="   28.277">  2  9  1 -1</clus>
<clus scale="   82.278">  5  6 -1 -1</clus>
<clus scale="   87.120">  2  5  1 -1</clus>
<clus scale="   90.525">  7  8 -1 -1</clus>
<clus scale="   28.277">  2  5  1 -1</clus>
</clustering>
</event>
<event>
 9    1  0.8429841E-005  0.2881489E+03  0.7546771E-02  0.1129479E+00
         21   -1    0    0  501  502  0.00000000000E+00  0.00000000000E+00  0.27544443400E+03  0.27544443400E+03  0.00000000000E+00 0. -1.
          3   -1    0    0  502    0 -0.00000000000E+00 -0.00000000000E+00 -0.46298689265E+03  0.46298689265E+03  0.00000000000E+00 0. -1.
         23    2    1    2    0    0  0.46681729250E+02 -0.13382393867E+02  0.50492192951E+02  0.12018361428E+03  0.97654325466E+02 0.  0.
        -24    2    1    2    0    0 -0.25007559474E+03 -0.15556902482E+03 -0.14589089195E+03  0.33824035740E+03  0.79892818513E+02 0.  0.
         13    1    4    4    0    0 -0.16724894164E+03 -0.14281093606E+03 -0.11997153413E+03  0.25052014079E+03  0.00000000000E+00 0. -1.
        -14    1    4    4    0    0 -0.82826653098E+02 -0.12758088761E+02 -0.25919357821E+02  0.87720216610E+02  0.00000000000E+00 0.  1.
        -11    1    3    3    0    0  0.24050995851E+02 -0.30573052987E+02 -0.20315974292E+02  0.43885086098E+02  0.00000000000E+00 0.  1.
         11    1    3    3    0    0  0.22630733398E+02  0.17190659119E+02  0.70808167243E+02  0.76298528186E+02  0.00000000000E+00 0. -1.
          4    1    1    2  501    0  0.20339386549E+03  0.16895141869E+03 -0.92143759649E+02  0.28000735497E+03  0.00000000000E+00 0. -1.
<scales pt_clust_5="13000.00000" pt_clust_6="13000.00000" pt_clust_7="13000.00000" pt_clust_8="13000.00000" pt_clust_9="276.85177"></scales>
<clustering>
<clus scale="   79.893">  5  6 -1 -1</clus>
<clus scale="   97.654">  7  8 -1 -1</clus>
<clus scale="  109.063">  2  7  1 -1</clus>
<clus scale="  276.852">  1  9  2 -1</clus>
<clus scale="  276.852">  1  5  2 -1</clus>
</clustering>
</event>
<event>
 9    1  0.8429841E-005  0.9332666E+02  0.7546771E-02  0.1303336E+00
         21   -1    0    0  501  502  0.00000000000E+00  0.00000000000E+00  0.47282145357E+02  0.47282145357E+02  0.00000000000E+00 0.  1.
          1   -1    0    0  502    0 -0.00000000000E+00 -0.00000000000E+00 -0.23270528100E+03  0.23270528100E+03  0.00000000000E+00 0. -1.
        -24    2    1    2    0    0  0.15613703793E+02  0.88469760698E+01 -0.12447361106E+03  0.14815168382E+03  0.78314652751E+02 0.  0.
         23    2    1    2    0    0 -0.17388411263E+02  0.11984345538E+02 -0.58075646818E+02  0.11073236082E+03  0.91885219681E+02 0.  0.
         11    1    3    3    0    0  0.40008546457E+02  0.28411938995E+02 -0.75442431250E+02  0.89997124954E+02  0.00000000000E+00 0. -1.
        -12    1    3    3    0    0 -0.24394842664E+02 -0.19564962925E+02 -0.49031179811E+02  0.58154558863E+02  0.00000000000E+00 0.  1.
        -11    1    4    4    0    0 -0.45283521631E+02  0.24516463947E+02 -0.80781537266E+01  0.52123995467E+02  0.00000000000E+00 0.  1.
         11    1    4    4    0    0  0.27895110368E+02 -0.12532118409E+02 -0.49997493091E+02  0.58608365356E+02  0.00000000000E+00 0. -1.
          2    1    1    2  501    0  0.17747074698E+01 -0.20831321607E+02 -0.28738777651E+01  0.21103381718E+02  0.00000000000E+00 0. -1.
<scales pt_clust_5="13000.00000" pt_clust_6="13000.00000" pt_clust_7="13000.00000" pt_clust_8="13000.00000" pt_clust_9="20.90678"></scales>
<clustering>
<clus scale="   20.907">  1  9  2 -1</clus>
<clus scale="   78.315">  5  6 -1 -1</clus>
<clus scale="   80.001">  2  5  1 -1</clus>
<clus scale="   91.885">  7  8 -1 -1</clus>
<clus scale="   20.907">  1  5  2 -1</clus>
</clustering>
</event>
<event>
 9    1  0.8429841E-005  0.1524056E+03  0.7546771E-02  0.1200069E+00
         21   -1    0    0  501  502  0.00000000000E+00  0.00000000000E+00  0.15016355059E+03  0.15016355059E+03  0.00000000000E+00 0. -1.
          1   -1    0    0  502    0 -0.00000000000E+00 -0.00000000000E+00 -0.44124594020E+03  0.44124594020E+03  0.00000000000E+00 0. -1.
        -24    2    1    2    0    0  0.77541940276E+01 -0.12640995729E+03 -0.34231491235E+03  0.37370527639E+03  0.80227984897E+02 0.  0.
         23    2    1    2    0    0 -0.50712220411E+01  0.68539253494E+02  0.90663003043E+02  0.14762583347E+03  0.94075820614E+02 0.  0.
         13    1    3    3    0    0 -0.22439936021E+02 -0.81605507391E+02 -0.27301596959E+03  0.28583339415E+03  0.00000000000E+00 0. -1.
        -14    1    3    3    0    0  0.30194130049E+02 -0.44804449894E+02 -0.69298942762E+02  0.87871882236E+02  0.00000000000E+00 0.  1.
        -11    1    4    4    0    0  0.27619886479E+02  0.69478645711E+02  0.33852062128E+02  0.82073762247E+02  0.00000000000E+00 0.  1.
         11    1    4    4    0    0 -0.32691108520E+02 -0.93939221695E+00  0.56810940915E+02  0.65552071223E+02  0.00000000000E+00 0. -1.
          2    1    1    2  501    0 -0.26829719865E+01  0.57870703791E+02 -0.39430480309E+02  0.70078380927E+02  0.00000000000E+00 0. -1.
<scales pt_clust_5="13000.00000" pt_clust_6="13000.00000" pt_clust_7="13000.00000" pt_clust_8="13000.00000" pt_clust_9="57.93289"></scales>
<clustering>
<clus scale="   57.933">  1  9  2 -1</clus>
<clus scale="   80.228">  5  6 -1 -1</clus>
<clus scale="   94.076">  7  8 -1 -1</clus>
<clus scale="  144.270">  2  5  1 -1</clus>
<clus scale="   57.933">  1  5  2 -1</clus>
</clustering>
</event>
<event>
 9    1  0.8429841E-005  0.1118072E+03  0.7546771E-02  0.1260696E+00
         21   -1    0    0  501  502  0.00000000000E+00  0.00000000000E+00  0.36302253086E+02  0.36302253086E+02  0.00000000000E+00 0.  1.
         -2   -1    0    0    0  501 -0.00000000000E+00 -0.00000000000E+00 -0.75443497662E+03  0.75443497662E+03  0.00000000000E+00 0.  1.
        -24    2    1    2    0    0  0.85756243684E+02 -0.41913909196E+02 -0.41345163269E+03  0.43174050318E+03  0.79666181042E+02 0.  0.
         23    2    1    2    0    0 -0.11141524725E+02 -0.62031211999E+00 -0.87019429925E+02  0.12500289134E+03  0.89043940270E+02 0.  0.
         11    1    3    3    0    0  0.36446420697E+02  0.37148742933E+01 -0.49179822594E+02  0.61325335898E+02  0.00000000000E+00 0. -1.
        -12    1    3    3    0    0  0.49309822986E+02 -0.45628783490E+02 -0.36427181009E+03  0.37041516728E+03  0.00000000000E+00 0.  1.
        -11    1    4    4    0    0 -0.28388636271E+01 -0.25386000087E+02  0.77545250363E+01  0.26695333031E+02  0.00000000000E+00 0.  1.
         11    1    4    4    0    0 -0.83026610977E+01  0.24765687967E+02 -0.94773954962E+02  0.98307558310E+02  0.00000000000E+00 0. -1.
         -1    1    1    2    0  502 -0.74614718959E+02  0.42534221316E+02 -0.21766166092E+03  0.23399383519E+03  0.00000000000E+00 0.  1.
<scales pt_clust_5="13000.00000" pt_clust_6="13000.00000" pt_clust_7="13000.00000" pt_clust_8="13000.00000" pt_clust_9="85.88669"></scales>
<clustering>
<clus scale="   79.666">  5  6 -1 -1</clus>
<clus scale="   85.887">  1  9  2 -1</clus>
<clus scale="   89.044">  7  8 -1 -1</clus>
<clus scale="  104.493">  2  5  1 -1</clus>
<clus scale="   85.887">  1  5  2 -1</clus>
</clustering>
</event>
<event>
 9    1  0.8429841E-005  0.3110864E+03  0.7546771E-02  0.1080179E+00
         21   -1    0    0  501  502  0.00000000000E+00  0.00000000000E+00  0.79664288150E+03  0.79664288150E+03  0.00000000000E+00 0. -1.
          1   -1    0    0  502    0 -0.00000000000E+00 -0.00000000000E+00 -0.20302567829E+03  0.20302567829E+03  0.00000000000E+00 0. -1.
        -24    2    1    2    0    0 -0.78166334841E+02  0.21942210693E+03  0.25639977035E+03  0.35563794289E+03  0.80507560381E+02 0.  0.
         23    2    1    2    0    0  0.13324524477E+03 -0.35636903400E+03  0.29656758401E+03  0.49092752299E+03  0.91128026909E+02 0.  0.
         11    1    3    3    0    0 -0.76588472918E+02  0.21726397809E+03  0.21806270849E+03  0.31720777921E+03  0.00000000000E+00 0. -1.
        -12    1    3    3    0    0 -0.15778619221E+01  0.21581288390E+01  0.38337061864E+02  0.38430163683E+02  0.00000000000E+00 0.  1.
        -11    1    4    4    0    0 -0.11805448644E+02 -0.47871312126E+02  0.26223306198E+02  0.55845258799E+02  0.00000000000E+00 0.  1.
         11    1    4    4    0    0  0.14505069341E+03 -0.30849772188E+03  0.27034427782E+03  0.43508226419E+03  0.00000000000E+00 0. -1.
          2    1    1    2  501    0 -0.55078909929E+02  0.13694692707E+03  0.40649848855E+02  0.15310309391E+03  0.00000000000E+00 0. -1.
<scales pt_clust_5="13000.00000" pt_clust_6="13000.00000" pt_clust_7="13000.00000" pt_clust_8="13000.00000" pt_clust_9="147.60816"></scales>
<clustering>
<clus scale="   80.508">  5  6 -1 -1</clus>
<clus scale="   91.128">  7  8 -1 -1</clus>
<clus scale="  147.608">  1  9  2 -1</clus>
<clus scale="  308.143">  2  5  1 -1</clus>
<clus scale="  147.608">  1  5  2 -1</clus>
</clustering>
</event>
<event>
 9    1  0.8429841E-005  0.9172452E+02  0.7546771E-02  0.1305555E+00
         21   -1    0    0  501  502  0.00000000000E+00  0.00000000000E+00  0.70962322252E+02  0.70962322252E+02  0.00000000000E+00 0.  1.
         -4   -1    0    0    0  501 -0.00000000000E+00 -0.00000000000E+00 -0.19160939309E+03  0.19160939309E+03  0.00000000000E+00 0.  1.
         23    2    1    2    0    0  0.19248748014E+02 -0.56313117302E+01 -0.98682687127E+02  0.13500309548E+03  0.89918502431E+02 0.  0.
        -24    2    1    2    0    0 -0.13912711300E+02 -0.27077548790E+02  0.52375052754E+01  0.84693386814E+02  0.78859248819E+02 0.  0.
         11    1    4    4    0    0 -0.59777381797E+01 -0.48177546079E+02 -0.18504586089E+02  0.51954104807E+02  0.00000000000E+00 0. -1.
        -12    1    4    4    0    0 -0.79349731206E+01  0.21099997289E+02  0.23742091364E+02  0.32739282007E+02  0.00000000000E+00 0.  1.
        -13    1    3    3    0    0 -0.23527662708E+02 -0.18869685635E+01  0.37823791197E+01  0.23904350121E+02  0.00000000000E+00 0. -1.
         13    1    3    3    0    0  0.42776410723E+02 -0.37443431666E+01 -0.10246506625E+03  0.11109874536E+03  0.00000000000E+00 0.  1.
         -3    1    1    2    0  502 -0.53360367139E+01  0.32708860521E+02 -0.27201888991E+02  0.42875233050E+02  0.00000000000E+00 0.  1.
<scales pt_clust_5="13000.00000" pt_clust_6="13000.00000" pt_clust_7="13000.00000" pt_clust_8="13000.00000" pt_clust_9="33.14127"></scales>
<clustering>
<clus scale="   33.141">  1  9  2 -1</clus>
<clus scale="   78.859">  5  6 -1 -1</clus>
<clus scale="   80.912">  1  5  2 -1</clus>
<clus scale="   89.919">  7  8 -1 -1</clus>
<clus scale="   33.141">  1  5  2 -1</clus>
</clustering>
</event>
<event>
 9    1  0.8429841E-005  0.2174821E+03  0.7546771E-02  0.1136177E+00
          3   -1    0    0  502    0 -0.00000000000E+00  0.00000000000E+00  0.14964481504E+04  0.14964481504E+04  0.00000000000E+00 0. -1.
         21   -1    0    0  501  502  0.00000000000E+00 -0.00000000000E+00 -0.83721051454E+02  0.83721051454E+02  0.00000000000E+00 0.  1.
         23    2    1    2    0    0  0.31647288172E+02  0.17630738078E+03  0.59001407160E+03  0.62386038124E+03  0.94864783955E+02 0.  0.
        -24    2    1    2    0    0  0.13122731593E+03 -0.25015757951E+03  0.40482645710E+03  0.50176380182E+03  0.89905669559E+02 0.  0.
         11    1    4    4    0    0  0.24257450541E+02 -0.10552819295E+01  0.22696745841E+02  0.33236723642E+02  0.00000000000E+00 0. -1.
        -12    1    4    4    0    0  0.10696986539E+03 -0.24910229758E+03  0.38212971126E+03  0.46852707818E+03  0.00000000000E+00 0.  1.
        -13    1    3    3    0    0 -0.21770559746E+02  0.74502904131E+02  0.14774804161E+03  0.16689554756E+03  0.00000000000E+00 0.  1.
         13    1    3    3    0    0  0.53417847918E+02  0.10180447665E+03  0.44226602999E+03  0.45696483369E+03  0.00000000000E+00 0. -1.
          4    1    1    2  501    0 -0.16287460410E+03  0.73850198725E+02  0.41788657027E+03  0.45454501881E+03  0.00000000000E+00 0. -1.
<scales pt_clust_5="13000.00000" pt_clust_6="13000.00000" pt_clust_7="13000.00000" pt_clust_8="13000.00000" pt_clust_9="178.83518"></scales>
<clustering>
<clus scale="   89.906">  5  6 -1 -1</clus>
<clus scale="   94.865">  7  8 -1 -1</clus>
<clus scale="  178.835">  2  9  1 -1</clus>
<clus scale="  215.365">  2  5  1 -1</clus>
<clus scale="  178.835">  2  5  1 -1</clus>
</clustering>
</event>
<event>
 9    1  0.8429841E-005  0.1098550E+03  0.7546771E-02  0.1267751E+00
         21   -1    0    0  501  502  0.00000000000E+00  0.00000000000E+00  0.47993820213E+02  0.47993820213E+02  0.00000000000E+00 0.  1.
          1   -1    0    0  502    0 -0.00000000000E+00 -0.00000000000E+00 -0.61111480283E+03  0.61111480283E+03  0.00000000000E+00 0. -1.
         23    2    1    2    0    0  0.75869274343E+01  0.32527970429E+02 -0.25208207900E+03  0.27573602036E+03  0.10662714497E+03 0.  0.
        -24    2    1    2    0    0  0.77213054726E+02  0.12451217082E+02 -0.93929145826E+02  0.14598934461E+03  0.79833048784E+02 0.  0.
         13    1    4    4    0    0  0.40834677182E+02 -0.14791517707E+02 -0.90536269774E+02  0.10041452087E+03  0.00000000000E+00 0. -1.
        -14    1    4    4    0    0  0.36378377544E+02  0.27242734789E+02 -0.33928760527E+01  0.45574823746E+02  0.00000000000E+00 0.  1.
        -13    1    3    3    0    0  0.88155334061E+01 -0.35962426359E+02 -0.13598839373E+03  0.14093918181E+03  0.00000000000E+00 0. -1.
         13    1    3    3    0    0 -0.12286059718E+01  0.68490396788E+02 -0.11609368527E+03  0.13479683856E+03  0.00000000000E+00 0.  1.
          2    1    1    2  501    0 -0.84799982160E+02 -0.44979187511E+02 -0.21710975779E+03  0.23738325807E+03  0.00000000000E+00 0. -1.
<scales pt_clust_5="13000.00000" pt_clust_6="13000.00000" pt_clust_7="13000.00000" pt_clust_8="13000.00000" pt_clust_9="95.99049"></scales>
<clustering>
<clus scale="   79.833">  5  6 -1 -1</clus>
<clus scale="   95.990">  1  9  2 -1</clus>
<clus scale="   95.990">  1  5  2 -1</clus>
<clus scale="  106.627">  7  8 -1 -1</clus>
<clus scale="   95.990">  1  5  2 -1</clus>
</clustering>
</event>
<event>
 9    1  0.8429841E-005  0.1064958E+03  0.7546771E-02  0.1271027E+00
          1   -1    0    0  502    0 -0.00000000000E+00  0.00000000000E+00  0.50806666218E+03  0.50806666218E+03  0.00000000000E+00 0. -1.
         21   -1    0    0  501  502  0.00000000000E+00 -0.00000000000E+00 -0.81065126482E+02  0.81065126482E+02  0.00000000000E+00 0.  1.
         23    2    1    2    0    0  0.59605930730E+02  0.22520195155E+01  0.35484388954E+03  0.37102778119E+03  0.90495800458E+02 0.  0.
        -24    2    1    2    0    0 -0.24622700234E+02 -0.26121877258E+02 -0.40495809926E+02  0.97752864178E+02  0.81406891570E+02 0.  0.
         11    1    4    4    0    0  0.28850585445E+02 -0.90219864161E+01 -0.32997884894E+01  0.30407912186E+02  0.00000000000E+00 0. -1.
        -12    1    4    4    0    0 -0.53473285679E+02 -0.17099890842E+02 -0.37196021436E+02  0.67344951992E+02  0.00000000000E+00 0.  1.
        -11    1    3    3    0    0 -0.14294669309E+02  0.20749678180E+02  0.41449177287E+02  0.48506917166E+02  0.00000000000E+00 0.  1.
         11    1    3    3    0    0  0.73900600039E+02 -0.18497658664E+02  0.31339471225E+03  0.32252086402E+03  0.00000000000E+00 0. -1.
          2    1    1    2  501    0 -0.34983230496E+02  0.23869857743E+02  0.11265345609E+03  0.12035114330E+03  0.00000000000E+00 0. -1.
<scales pt_clust_5="13000.00000" pt_clust_6="13000.00000" pt_clust_7="13000.00000" pt_clust_8="13000.00000" pt_clust_9="42.35090"></scales>
<clustering>
<clus scale="   42.351">  2  9  1 -1</clus>
<clus scale="   81.407">  5  6 -1 -1</clus>
<clus scale="   90.496">  7  8 -1 -1</clus>
<clus scale="   98.889">  2  5  1 -1</clus>
<clus scale="   42.351">  2  5  1 -1</clus>
</clustering>
</event>
<event>
 9    1  0.8429841E-005  0.1301203E+03  0.7546771E-02  0.1247802E+00
          1   -1    0    0  502    0 -0.00000000000E+00  0.00000000000E+00  0.96501532211E+02  0.96501532211E+02  0.00000000000E+00 0. -1.
         21   -1    0    0  501  502  0.00000000000E+00 -0.00000000000E+00 -0.26752557509E+03  0.26752557509E+03  0.00000000000E+00 0. -1.
        -24    2    1    2    0    0 -0.85300097644E+01  0.17753580689E+02 -0.76990622793E+02  0.11514318297E+03  0.83321341163E+02 0.  0.
         23    2    1    2    0    0 -0.74202947281E+02 -0.58830551745E+02 -0.84310162154E+02  0.15600442455E+03  0.90895906588E+02 0.  0.
         13    1    3    3    0    0 -0.38010049459E+02  0.89843563308E+01 -0.83688219272E+01  0.39943956977E+02  0.00000000000E+00 0. -1.
        -14    1    3    3    0    0  0.29480039695E+02  0.87692243585E+01 -0.68621800866E+02  0.75199225995E+02  0.00000000000E+00 0.  1.
        -13    1    4    4    0    0  0.16331788374E+02 -0.18217501428E+02  0.19245070640E+01  0.24541972154E+02  0.00000000000E+00 0.  1.
         13    1    4    4    0    0 -0.90534735655E+02 -0.40613050317E+02 -0.86234669218E+02  0.13146245240E+03  0.00000000000E+00 0. -1.
          2    1    1    2  501    0  0.82732957046E+02  0.41076971056E+02 -0.97232579276E+01  0.92879499769E+02  0.00000000000E+00 0. -1.
<scales pt_clust_5="13000.00000" pt_clust_6="13000.00000" pt_clust_7="13000.00000" pt_clust_8="13000.00000" pt_clust_9="93.10875"></scales>
<clustering>
<clus scale="   83.321">  5  6 -1 -1</clus>
<clus scale="   85.618">  1  5  2 -1</clus>
<clus scale="   90.896">  7  8 -1 -1</clus>
<clus scale="   93.109">  2  9  1 -1</clus>
<clus scale="   93.109">  2  5  1 -1</clus>
</clustering>
</event>
<event>
 9    1  0.8429841E-005  0.9965927E+02  0.7546771E-02  0.1289038E+00
          1   -1    0    0  502    0 -0.00000000000E+00  0.00000000000E+00  0.26750455343E+03  0.26750455343E+03  0.00000000000E+00 0. -1.
         21   -1    0    0  501  502  0.00000000000E+00 -0.00000000000E+00 -0.79495607808E+02  0.79495607808E+02  0.00000000000E+00 0. -1.
         23    2    1    2    0    0  0.28010706539E+02  0.48414988703E+01  0.20040416852E+03  0.22371995441E+03  0.95292955935E+02 0.  0.
        -24    2    1    2    0    0 -0.23451194589E+02 -0.33932322281E+02  0.20105165775E+01  0.90499259836E+02  0.80527714676E+02 0.  0.
         13    1    4    4    0    0 -0.30641310284E+02 -0.35808313724E+02  0.33707833565E+02  0.57942585991E+02  0.00000000000E+00 0. -1.
        -14    1    4    4    0    0  0.71901156950E+01  0.18759914432E+01 -0.31697316988E+02  0.32556673845E+02  0.00000000000E+00 0.  1.
        -11    1    3    3    0    0  0.17758273507E+02  0.47964247728E+02  0.13802425651E+03  0.14719585837E+03  0.00000000000E+00 0.  1.
         11    1    3    3    0    0  0.10252433032E+02 -0.43122748857E+02  0.62379912012E+02  0.76524096040E+02  0.00000000000E+00 0. -1.
          2    1    1    2  501    0 -0.45595119505E+01  0.29090823410E+02 -0.14405739472E+02  0.32780946991E+02  0.00000000000E+00 0. -1.
<scales pt_clust_5="13000.00000" pt_clust_6="13000.00000" pt_clust_7="13000.00000" pt_clust_8="13000.00000" pt_clust_9="29.44597"></scales>
<clustering>
<clus scale="   29.446">  2  9  1 -1</clus>
<clus scale="   80.528">  5  6 -1 -1</clus>
<clus scale="   85.650">  2  5  1 -1</clus>
<clus scale="   95.293">  7  8 -1 -1</clus>
<clus scale="   29.446">  2  5  1 -1</clus>
</clustering>
</event>
<event>
 9    1  0.8429841E-005  0.1597607E+03  0.7546771E-02  0.1195259E+00
         21   -1    0    0  501  502  0.00000000000E+00  0.00000000000E+00  0.33711699865E+03  0.33711699865E+03  0.00000000000E+00 0. -1.
          3   -1    0    0  502    0 -0.00000000000E+00 -0.00000000000E+00 -0.18292790312E+03  0.18292790312E+03  0.00000000000E+00 0. -1.
        -24    2    1    2    0    0 -0.40118961358E+02 -0.10681814732E+03  0.15428159511E+03  0.20772770824E+03  0.79550880099E+02 0.  0.
         23    2    1    2    0    0 -0.10438843380E+03  0.92274711073E+02 -0.75526402985E+01  0.16688833638E+03  0.91559308811E+02 0.  0.
         13    1    3    3    0    0 -0.33650233353E+01 -0.98753705714E+02  0.12857026924E+03  0.16215403759E+03  0.00000000000E+00 0. -1.
        -14    1    3    3    0    0 -0.36753938022E+02 -0.80644416013E+01  0.25711325871E+02  0.45573670650E+02  0.00000000000E+00 0.  1.
        -13    1    4    4    0    0 -0.29006723127E+02  0.70802550575E+02  0.27124698462E+02  0.81179679854E+02  0.00000000000E+00 0.  1.
         13    1    4    4    0    0 -0.75381710670E+02  0.21472160497E+02 -0.34677338760E+02  0.85708656526E+02  0.00000000000E+00 0. -1.
          4    1    1    2  501    0  0.14450739515E+03  0.14543436242E+02  0.74601407112E+01  0.14542885715E+03  0.00000000000E+00 0. -1.
<scales pt_clust_5="13000.00000" pt_clust_6="13000.00000" pt_clust_7="13000.00000" pt_clust_8="13000.00000" pt_clust_9="130.92130"></scales>
<clustering>
<clus scale="   79.551">  5  6 -1 -1</clus>
<clus scale="   91.559">  7  8 -1 -1</clus>
<clus scale="  139.097">  2  5  1 -1</clus>
<clus scale="  130.921">  1  9  2 -1</clus>
<clus scale="  130.921">  1  5  2 -1</clus>
</clustering>
</event>
<event>
 9    1  0.8429841E-005  0.1107067E+03  0.7546771E-02  0.1263600E+00
         21   -1    0    0  501  502  0.00000000000E+00  0.00000000000E+00  0.27894021867E+02  0.27894021867E+02  0.00000000000E+00 0.  1.
          1   -1    0    0  502    0 -0.00000000000E+00 -0.00000000000E+00 -0.56703967463E+03  0.56703967463E+03  0.00000000000E+00 0. -1.
         23    2    1    2    0    0 -0.54912558145E+02 -0.53229804400E+02 -0.32336053174E+03  0.34338018852E+03  0.86597455276E+02 0.  0.
        -24    2    1    2    0    0  0.54741515432E+02  0.24249921915E+02 -0.13329978972E+03  0.16412529329E+03  0.74723394811E+02 0.  0.
         13    1    4    4    0    0 -0.52406045663E+01 -0.19894575607E+02 -0.37605679647E+02  0.42865431487E+02  0.00000000000E+00 0. -1.
        -14    1    4    4    0    0  0.59982119999E+02  0.44144497522E+02 -0.95694110074E+02  0.12125986180E+03  0.00000000000E+00 0.  1.
        -13    1    3    3    0    0 -0.18478466727E+02  0.23873890498E+02 -0.89693505293E+02  0.94637948371E+02  0.00000000000E+00 0.  1.
         13    1    3    3    0    0 -0.36434091418E+02 -0.77103694898E+02 -0.23366702645E+03  0.24874224015E+03  0.00000000000E+00 0. -1.
          2    1    1    2  501    0  0.17104271259E+00  0.28979882485E+02 -0.82485331302E+02  0.87428214693E+02  0.00000000000E+00 0. -1.
<scales pt_clust_5="13000.00000" pt_clust_6="13000.00000" pt_clust_7="13000.00000" pt_clust_8="13000.00000" pt_clust_9="28.98040"></scales>
<clustering>
<clus scale="   28.980">  1  9  2 -1</clus>
<clus scale="   74.723">  5  6 -1 -1</clus>
<clus scale="   86.597">  7  8 -1 -1</clus>
<clus scale="  101.688">  1  5  2 -1</clus>
<clus scale="   28.980">  1  5  2 -1</clus>
</clustering>
</event>
<event>
 9    1  0.8429841E-005  0.2054690E+03  0.7546771E-02  0.1170394E+00
         21   -1    0    0  501  502  0.00000000000E+00  0.00000000000E+00  0.23245595508E+03  0.23245595508E+03  0.00000000000E+00 0. -1.
          3   -1    0    0  502    0 -0.00000000000E+00 -0.00000000000E+00 -0.52765581272E+03  0.52765581272E+03  0.00000000000E+00 0. -1.
        -24    2    1    2    0    0  0.71377403547E+02  0.37966728290E+02 -0.33858321323E+03  0.35727352759E+03  0.80433668585E+02 0.  0.
         23    2    1    2    0    0 -0.91728419422E+02  0.15667737853E+03  0.39175598164E+02  0.20708789566E+03  0.91590202351E+02 0.  0.
         13    1    3    3    0    0  0.83119448606E+02  0.45707235093E+02 -0.24648409456E+03  0.26410680216E+03  0.00000000000E+00 0. -1.
        -14    1    3    3    0    0 -0.11742045059E+02 -0.77405068028E+01 -0.92099118667E+02  0.93166725428E+02  0.00000000000E+00 0.  1.
        -11    1    4    4    0    0 -0.51605641083E+02  0.15431908339E+03  0.25947405003E+02  0.16477496629E+03  0.00000000000E+00 0. -1.
         11    1    4    4    0    0 -0.40122778339E+02  0.23582951360E+01  0.13228193161E+02  0.42312929370E+02  0.00000000000E+00 0.  1.
          4    1    1    2  501    0  0.20351015875E+02 -0.19464410682E+03  0.42077574339E+01  0.19575034454E+03  0.00000000000E+00 0. -1.
<scales pt_clust_5="13000.00000" pt_clust_6="13000.00000" pt_clust_7="13000.00000" pt_clust_8="13000.00000" pt_clust_9="183.92598"></scales>
<clustering>
<clus scale="   80.434">  5  6 -1 -1</clus>
<clus scale="   91.590">  7  8 -1 -1</clus>
<clus scale="  114.043">  2  5  1 -1</clus>
<clus scale="  183.926">  1  9  2 -1</clus>
<clus scale="  183.926">  1  5  2 -1</clus>
</clustering>
</event>
<event>
 9    1  0.8429841E-005  0.1862996E+03  0.7546771E-02  0.1162144E+00
         -2   -1    0    0    0  501 -0.00000000000E+00  0.00000000000E+00  0.52730822966E+03  0.52730822966E+03  0.00000000000E+00 0.  1.
         21   -1    0    0  501  502  0.00000000000E+00 -0.00000000000E+00 -0.11517980581E+03  0.11517980581E+03  0.00000000000E+00 0. -1.
         23    2    1    2    0    0  0.79608857645E+02  0.19144588079E+03  0.28314860176E+03  0.36035665783E+03  0.81821113871E+02 0.  0.
        -24    2    1    2    0    0 -0.19706619910E+02 -0.11004112767E+03  0.28708501443E+02  0.13976091139E+03  0.78813283464E+02 0.  0.
         13    1    4    4    0    0 -0.42668409736E+01 -0.97142582837E+02 -0.83493555157E+01  0.97594052430E+02  0.00000000000E+00 0. -1.
        -14    1    4    4    0    0 -0.15439778936E+02 -0.12898544836E+02  0.37057856958E+02  0.42166858963E+02  0.00000000000E+00 0.  1.
        -11    1    3    3    0    0  0.73979665795E+02  0.10891647529E+03  0.21958720402E+03  0.25603579771E+03  0.00000000000E+00 0.  1.
         11    1    3    3    0    0  0.56291918501E+01  0.82529405495E+02  0.63561397744E+02  0.10432086012E+03  0.00000000000E+00 0. -1.
         -1    1    1    2    0  502 -0.59902237735E+02 -0.81404753117E+02  0.10027132064E+03  0.14237046624E+03  0.00000000000E+00 0.  1.
<scales pt_clust_5="13000.00000" pt_clust_6="13000.00000" pt_clust_7="13000.00000" pt_clust_8="13000.00000" pt_clust_9="101.06939"></scales>
<clustering>
<clus scale="   78.813">  5  6 -1 -1</clus>
<clus scale="   81.821">  7  8 -1 -1</clus>
<clus scale="  101.069">  2  9  1 -1</clus>
<clus scale="  184.998">  2  5  1 -1</clus>
<clus scale="  101.069">  2  5  1 -1</clus>
</clustering>
</event>
<event>
 9    1  0.8429841E-005  0.1406628E+03  0.7546771E-02  0.1214704E+00
          1   -1    0    0  502    0 -0.00000000000E+00  0.00000000000E+00  0.13883596970E+03  0.13883596970E+03  0.00000000000E+00 0. -1.
         21   -1    0    0  501  502  0.00000000000E+00 -0.00000000000E+00 -0.19401895467E+03  0.19401895467E+03  0.00000000000E+00 0. -1.
        -24    2    1    2    0    0 -0.40285536168E+02 -0.79002089516E+02 -0.37868267696E+02  0.12391550655E+03  0.77825397479E+02 0.  0.
         23    2    1    2    0    0  0.54652307908E+02  0.12166781576E+03 -0.28129654726E+02  0.16263897292E+03  0.88714293594E+02 0.  0.
         11    1    3    3    0    0 -0.55669748940E+02 -0.81999570143E+02 -0.42097785314E+02  0.10768135391E+03  0.00000000000E+00 0. -1.
        -12    1    3    3    0    0  0.15384212772E+02  0.29974806275E+01  0.42295176183E+01  0.16234152642E+02  0.00000000000E+00 0.  1.
        -13    1    4    4    0    0  0.34948267447E+02  0.12909995839E+03 -0.87709585826E+01  0.13403398960E+03  0.00000000000E+00 0. -1.
         13    1    4    4    0    0  0.19704040461E+02 -0.74321426319E+01 -0.19358696143E+02  0.28604983324E+02  0.00000000000E+00 0.  1.
          2    1    1    2  501    0 -0.14366771740E+02 -0.42665726240E+02  0.10814937456E+02  0.46300444900E+02  0.00000000000E+00 0. -1.
<scales pt_clust_5="13000.00000" pt_clust_6="13000.00000" pt_clust_7="13000.00000" pt_clust_8="13000.00000" pt_clust_9="45.01967"></scales>
<clustering>
<clus scale="   45.020">  2  9  1 -1</clus>
<clus scale="   77.825">  5  6 -1 -1</clus>
<clus scale="   88.714">  7  8 -1 -1</clus>
<clus scale="  134.062">  1  5  2 -1</clus>
<clus scale="   45.020">  2  5  1 -1</clus>
</clustering>
</event>
<event>
 9    1  0.8429841E-005  0.1824970E+03  0.7546771E-02  0.1194083E+00
          1   -1    0    0  502    0 -0.00000000000E+00  0.00000000000E+00  0.10314860120E+04  0.10314860120E+04  0.00000000000E+00 0. -1.
         21   -1    0    0  501  502  0.00000000000E+00 -0.00000000000E+00 -0.51639110785E+02  0.51639110785E+02  0.00000000000E+00 0.  1.
         23    2    1    2    0    0 -0.35202889725E+02 -0.12406693758E+01  0.19309411920E+03  0.21553188443E+03  0.89038596306E+02 0.  0.
        -24    2    1    2    0    0  0.10394106892E+03 -0.13562636603E+03  0.27703513626E+03  0.33536246036E+03  0.80754294756E+02 0.  0.
         11    1    4    4    0    0  0.51604351468E+00 -0.62011076277E+02  0.87936685185E+02  0.10760344085E+03  0.00000000000E+00 0. -1.
        -12    1    4    4    0    0  0.10342502540E+03 -0.73615289749E+02  0.18909845108E+03  0.22775901950E+03  0.00000000000E+00 0.  1.
        -11    1    3    3    0    0 -0.27533712245E+02  0.39772191069E+02  0.66452536529E+02  0.82194112341E+02  0.00000000000E+00 0.  1.
         11    1    3    3    0    0 -0.76691774801E+01 -0.41012860444E+02  0.12664158267E+03  0.13333777209E+03  0.00000000000E+00 0. -1.
          2    1    1    2  501    0 -0.68738179193E+02  0.13686703540E+03  0.50971764577E+03  0.53223077801E+03  0.00000000000E+00 0. -1.
<scales pt_clust_5="13000.00000" pt_clust_6="13000.00000" pt_clust_7="13000.00000" pt_clust_8="13000.00000" pt_clust_9="163.65795"></scales>
<clustering>
<clus scale="   80.754">  5  6 -1 -1</clus>
<clus scale="   89.039">  7  8 -1 -1</clus>
<clus scale="   95.753">  1  7  2 -1</clus>
<clus scale="  163.658">  2  9  1 -1</clus>
<clus scale="  163.658">  2  5  1 -1</clus>
</clustering>
</event>
<event>
 9    1  0.8429841E-005  0.9437878E+02  0.7546771E-02  0.1299723E+00
         21   -1    0    0  501  502  0.00000000000E+00  0.00000000000E+00  0.29911547093E+02  0.29911547093E+02  0.00000000000E+00 0. -1.
          1   -1    0    0  502    0 -0.00000000000E+00 -0.00000000000E+00 -0.57694841118E+03  0.57694841118E+03  0.00000000000E+00 0. -1.
        -24    2    1    2    0    0 -0.32989667164E+02 -0.19505536696E+01 -0.31318512274E+03  0.32477384052E+03  0.79378861073E+02 0.  0.
         23    2    1    2    0    0 -0.11670512082E+02 -0.20961932095E+02 -0.93424774498E+02  0.13295782857E+03  0.91509519936E+02 0.  0.
         11    1    3    3    0    0 -0.56985006503E+02  0.21745350277E+01 -0.26143575707E+03  0.26758302383E+03  0.00000000000E+00 0. -1.
        -12    1    3    3    0    0  0.23995339339E+02 -0.41250886974E+01 -0.51749365668E+02  0.57190816691E+02  0.00000000000E+00 0.  1.
        -11    1    4    4    0    0 -0.50191984446E+02 -0.11278507600E+01 -0.60013053643E+02  0.78243683179E+02  0.00000000000E+00 0.  1.
         11    1    4    4    0    0  0.38521472363E+02 -0.19834081335E+02 -0.33411720855E+02  0.54714145392E+02  0.00000000000E+00 0. -1.
          2    1    1    2  501    0  0.44660179246E+02  0.22912485765E+02 -0.14042696685E+03  0.14912828918E+03  0.00000000000E+00 0. -1.
<scales pt_clust_5="13000.00000" pt_clust_6="13000.00000" pt_clust_7="13000.00000" pt_clust_8="13000.00000" pt_clust_9="50.19478"></scales>
<clustering>
<clus scale="   50.195">  1  9  2 -1</clus>
<clus scale="   79.379">  5  6 -1 -1</clus>
<clus scale="   82.670">  2  5  1 -1</clus>
<clus scale="   91.510">  7  8 -1 -1</clus>
<clus scale="   50.195">  1  5  2 -1</clus>
</clustering>
</event>
<event>
 9    1  0.8429841E-005  0.1365540E+03  0.7546771E-02  0.1232561E+00
         21   -1    0    0  501  502  0.00000000000E+00  0.00000000000E+00  0.10128559157E+03  0.10128559157E+03  0.00000000000E+00 0. -1.
         -4   -1    0    0    0  501 -0.00000000000E+00 -0.00000000000E+00 -0.41932126047E+03  0.41932126047E+03  0.00000000000E+00 0.  1.
         23    2    1    2    0    0 -0.22879079617E+02  0.35008742870E+02 -0.52167298595E+01  0.10107728176E+03  0.91871313570E+02 0.  0.
        -24    2    1    2    0    0  0.11573285345E+03  0.96449814776E+01 -0.73993945786E+02  0.15942736763E+03  0.80342158925E+02 0.  0.
         13    1    4    4    0    0  0.11756379821E+03 -0.12021499975E+02 -0.54159563598E+02  0.12999623626E+03  0.00000000000E+00 0. -1.
        -14    1    4    4    0    0 -0.18309447584E+01  0.21666481453E+02 -0.19834382188E+02  0.29431131375E+02  0.00000000000E+00 0.  1.
        -11    1    3    3    0    0  0.59081663249E+01  0.51114747945E+02 -0.30231292050E+02  0.59678764279E+02  0.00000000000E+00 0.  1.
         11    1    3    3    0    0 -0.28787245942E+02 -0.16106005076E+02  0.25014562191E+02  0.41398517486E+02  0.00000000000E+00 0. -1.
         -3    1    1    2    0  502 -0.92853773837E+02 -0.44653724347E+02 -0.23882499325E+03  0.26010220264E+03  0.00000000000E+00 0.  1.
<scales pt_clust_5="13000.00000" pt_clust_6="13000.00000" pt_clust_7="13000.00000" pt_clust_8="13000.00000" pt_clust_9="110.41809"></scales>
<clustering>
<clus scale="   80.342">  5  6 -1 -1</clus>
<clus scale="   91.871">  7  8 -1 -1</clus>
<clus scale="  100.943">  2  7  1 -1</clus>
<clus scale="  110.418">  1  9  2 -1</clus>
<clus scale="  110.418">  1  5  2 -1</clus>
</clustering>
</event>
<event>
 9    1  0.8429841E-005  0.1444985E+03  0.7546771E-02  0.1234968E+00
         21   -1    0    0  501  502  0.00000000000E+00  0.00000000000E+00  0.41038480047E+03  0.41038480047E+03  0.00000000000E+00 0. -1.
          3   -1    0    0  502    0 -0.00000000000E+00 -0.00000000000E+00 -0.69220545121E+02  0.69220545121E+02  0.00000000000E+00 0. -1.
        -24    2    1    2    0    0 -0.69711395404E+00 -0.28154997416E+01  0.60331327648E+02  0.10106891330E+03  0.81034826667E+02 0.  0.
         23    2    1    2    0    0 -0.12924494005E+02  0.10850057787E+03  0.14180060826E+03  0.20336545926E+03  0.96491862736E+02 0.  0.
         11    1    3    3    0    0  0.28839044301E+02 -0.29299535925E+01 -0.49588278526E+01  0.29408588506E+02  0.00000000000E+00 0. -1.
        -12    1    3    3    0    0 -0.29536158255E+02  0.11445385086E+00  0.65290155501E+02  0.71660324793E+02  0.00000000000E+00 0.  1.
        -13    1    4    4    0    0 -0.36827365731E+02  0.10172004410E+03  0.73770231762E+02  0.13093994552E+03  0.00000000000E+00 0. -1.
         13    1    4    4    0    0  0.23902871726E+02  0.67805337744E+01  0.68030376493E+02  0.72425513742E+02  0.00000000000E+00 0.  1.
          4    1    1    2  501    0  0.13621607959E+02 -0.10568507813E+03  0.13903231944E+03  0.17517097303E+03  0.00000000000E+00 0. -1.
<scales pt_clust_5="13000.00000" pt_clust_6="13000.00000" pt_clust_7="13000.00000" pt_clust_8="13000.00000" pt_clust_9="107.55990"></scales>
<clustering>
<clus scale="   81.035">  5  6 -1 -1</clus>
<clus scale="   81.087">  2  5  1 -1</clus>
<clus scale="   96.492">  7  8 -1 -1</clus>
<clus scale="  107.560">  1  9  2 -1</clus>
<clus scale="  107.560">  1  5  2 -1</clus>
</clustering>
</event>
<event>
 9    1  0.8429841E-005  0.1280396E+03  0.7546771E-02  0.1232747E+00
         21   -1    0    0  501  502  0.00000000000E+00  0.00000000000E+00  0.36420266353E+03  0.36420266353E+03  0.00000000000E+00 0. -1.
          1   -1    0    0  502    0 -0.00000000000E+00 -0.00000000000E+00 -0.18034896192E+03  0.18034896192E+03  0.00000000000E+00 0. -1.
        -24    2    1    2    0    0  0.71390978296E+02 -0.31726197979E+02 -0.32506720093E+02  0.11837795218E+03  0.82785441292E+02 0.  0.
         23    2    1    2    0    0 -0.10772058705E+03 -0.49308276829E+01 -0.53674329960E+02  0.15125123856E+03  0.91476584618E+02 0.  0.
         13    1    3    3    0    0  0.71989721379E+02 -0.52116461852E+02 -0.38879676639E+02  0.97006571096E+02  0.00000000000E+00 0. -1.
        -14    1    3    3    0    0 -0.59874308303E+00  0.20390263874E+02  0.63729565461E+01  0.21371381080E+02  0.00000000000E+00 0.  1.
        -11    1    4    4    0    0  0.42270432260E+01 -0.26895615417E+02 -0.12601535845E+02  0.30000678805E+02  0.00000000000E+00 0.  1.
         11    1    4    4    0    0 -0.11194763027E+03  0.21964787734E+02 -0.41072794115E+02  0.12125055975E+03  0.00000000000E+00 0. -1.
          2    1    1    2  501    0  0.36329608753E+02  0.36657025662E+02  0.27003475166E+03  0.27492243471E+03  0.00000000000E+00 0. -1.
<scales pt_clust_5="13000.00000" pt_clust_6="13000.00000" pt_clust_7="13000.00000" pt_clust_8="13000.00000" pt_clust_9="51.60986"></scales>
<clustering>
<clus scale="   51.610">  1  9  2 -1</clus>
<clus scale="   82.785">  5  6 -1 -1</clus>
<clus scale="   91.477">  7  8 -1 -1</clus>
<clus scale="  121.982">  2  5  1 -1</clus>
<clus scale="   51.610">  1  5  2 -1</clus>
</clustering>
</event>
<event>
 9    1  0.8429841E-005  0.1301233E+03  0.7546771E-02  0.1229104E+00
         21   -1    0    0  501  502  0.00000000000E+00  0.00000000000E+00  0.16168951816E+03  0.16168951816E+03  0.00000000000E+00 0. -1.
          3   -1    0    0  502    0 -0.00000000000E+00 -0.00000000000E+00 -0.15361379261E+03  0.15361379261E+03  0.00000000000E+00 0. -1.
        -24    2    1    2    0    0  0.47976904792E+02 -0.10419402176E+03 -0.30967569463E+02  0.14390289093E+03  0.81184198554E+02 0.  0.
         23    2    1    2    0    0 -0.49965095400E+02  0.56309531108E+02  0.13100865410E+02  0.11690375023E+03  0.88473612396E+02 0.  0.
         11    1    3    3    0    0  0.51181497099E+02 -0.75220976143E+02  0.12219353487E+02  0.91798984182E+02  0.00000000000E+00 0. -1.
        -12    1    3    3    0    0 -0.32045923071E+01 -0.28973045614E+02 -0.43186922950E+02  0.52103906743E+02  0.00000000000E+00 0.  1.
        -11    1    4    4    0    0 -0.21644433810E+01  0.40673191346E+02 -0.30066055972E+02  0.50625695364E+02  0.00000000000E+00 0.  1.
         11    1    4    4    0    0 -0.47800652019E+02  0.15636339762E+02  0.43166921382E+02  0.66278054861E+02  0.00000000000E+00 0. -1.
          4    1    1    2  501    0  0.19881906083E+01  0.47884490649E+02  0.25942429604E+02  0.54496669626E+02  0.00000000000E+00 0. -1.
<scales pt_clust_5="13000.00000" pt_clust_6="13000.00000" pt_clust_7="13000.00000" pt_clust_8="13000.00000" pt_clust_9="47.92575"></scales>
<clustering>
<clus scale="   47.926">  1  9  2 -1</clus>
<clus scale="   81.184">  5  6 -1 -1</clus>
<clus scale="   88.474">  7  8 -1 -1</clus>
<clus scale="  125.281">  2  5  1 -1</clus>
<clus scale="   47.926">  1  5  2 -1</clus>
</clustering>
</event>
<event>
 9    1  0.8429841E-005  0.9688210E+02  0.7546771E-02  0.1299586E+00
         21   -1    0    0  501  502  0.00000000000E+00  0.00000000000E+00  0.23678655994E+03  0.23678655994E+03  0.00000000000E+00 0. -1.
          1   -1    0    0  502    0 -0.00000000000E+00 -0.00000000000E+00 -0.59219504750E+03  0.59219504750E+03  0.00000000000E+00 0. -1.
         23    2    1    2    0    0 -0.34942399859E+02 -0.16492639772E+02 -0.53472947228E+03  0.54376001537E+03  0.90809511165E+02 0.  0.
        -24    2    1    2    0    0  0.91367332382E+01  0.93310813689E+00 -0.28654567951E+02  0.75074353308E+02  0.68780256434E+02 0.  0.
         13    1    4    4    0    0 -0.28163200763E+02  0.11645855434E+02 -0.10542741953E+02  0.32248119851E+02  0.00000000000E+00 0. -1.
        -14    1    4    4    0    0  0.37299934001E+02 -0.10712747298E+02 -0.18111825998E+02  0.42826233457E+02  0.00000000000E+00 0.  1.
        -13    1    3    3    0    0 -0.30452934961E+02  0.35303360354E+02 -0.24226190906E+03  0.24670739973E+03  0.00000000000E+00 0.  1.
         13    1    3    3    0    0 -0.44894648976E+01 -0.51796000126E+02 -0.29246756321E+03  0.29705261564E+03  0.00000000000E+00 0. -1.
          2    1    1    2  501    0  0.25805666621E+02  0.15559531635E+02  0.20797555266E+03  0.21014723876E+03  0.00000000000E+00 0. -1.
<scales pt_clust_5="13000.00000" pt_clust_6="13000.00000" pt_clust_7="13000.00000" pt_clust_8="13000.00000" pt_clust_9="30.13356"></scales>
<clustering>
<clus scale="   30.134">  1  9  2 -1</clus>
<clus scale="   68.780">  5  6 -1 -1</clus>
<clus scale="   76.619">  1  5  2 -1</clus>
<clus scale="   90.810">  7  8 -1 -1</clus>
<clus scale="   30.134">  1  5  2 -1</clus>
</clustering>
</event>
<event>
 9    1  0.8429841E-005  0.1371775E+03  0.7546771E-02  0.1220574E+00
         21   -1    0    0  501  502  0.00000000000E+00  0.00000000000E+00  0.11474902045E+03  0.11474902045E+03  0.00000000000E+00 0. -1.
         -4   -1    0    0    0  501 -0.00000000000E+00 -0.00000000000E+00 -0.27458752386E+03  0.27458752386E+03  0.00000000000E+00 0.  1.
         23    2    1    2    0    0  0.12385480832E+03  0.21301098516E+02 -0.10909747239E+03  0.19058299883E+03  0.92875565248E+02 0.  0.
        -24    2    1    2    0    0 -0.65719926872E+02  0.89458453206E+01  0.17607367510E+02  0.10406434000E+03  0.78231902274E+02 0.  0.
         11    1    4    4    0    0 -0.34215686378E+02  0.41225412790E+02 -0.46317155548E+01  0.53774535266E+02  0.00000000000E+00 0. -1.
        -12    1    4    4    0    0 -0.31504240493E+02 -0.32279567470E+02  0.22239083065E+02  0.50289804739E+02  0.00000000000E+00 0.  1.
        -13    1    3    3    0    0  0.86601957915E+02 -0.96800925529E+00 -0.16286535153E+02  0.88125407142E+02  0.00000000000E+00 0. -1.
         13    1    3    3    0    0  0.37252850402E+02  0.22269107771E+02 -0.92810937234E+02  0.10245759169E+03  0.00000000000E+00 0.  1.
         -3    1    1    2    0  502 -0.58134881445E+02 -0.30246943836E+02 -0.68348398528E+02  0.94689205475E+02  0.00000000000E+00 0.  1.
<scales pt_clust_5="13000.00000" pt_clust_6="13000.00000" pt_clust_7="13000.00000" pt_clust_8="13000.00000" pt_clust_9="65.53279"></scales>
<clustering>
<clus scale="   65.533">  1  9  2 -1</clus>
<clus scale="   78.232">  5  6 -1 -1</clus>
<clus scale="   92.876">  7  8 -1 -1</clus>
<clus scale="  127.719">  1  5  2 -1</clus>
<clus scale="   65.533">  1  5  2 -1</clus>
</clustering>
</event>
<event>
 9    1  0.8429841E-005  0.2054114E+03  0.7546771E-02  0.1170223E+00
         21   -1    0    0  501  502  0.00000000000E+00  0.00000000000E+00  0.16635642133E+03  0.16635642133E+03  0.00000000000E+00 0.  1.
          1   -1    0    0  502    0 -0.00000000000E+00 -0.00000000000E+00 -0.10433509578E+04  0.10433509578E+04  0.00000000000E+00 0. -1.
        -24    2    1    2    0    0 -0.23873368302E+02 -0.77948565333E+02 -0.92152257108E+02  0.14704423473E+03  0.80523610991E+02 0.  0.
         23    2    1    2    0    0 -0.77158031937E+02 -0.15957763331E+03  0.36031544335E+02  0.20216336327E+03  0.90296014947E+02 0.  0.
         11    1    3    3    0    0 -0.17988504702E+02 -0.94411630776E+02 -0.70393876890E+02  0.11913202857E+03  0.00000000000E+00 0. -1.
        -12    1    3    3    0    0 -0.58848635998E+01  0.16463065443E+02 -0.21758380218E+02  0.27912206166E+02  0.00000000000E+00 0.  1.
        -13    1    4    4    0    0 -0.32743250126E+02 -0.13999144735E+03  0.36571811823E+01  0.14381620470E+03  0.00000000000E+00 0.  1.
         13    1    4    4    0    0 -0.44414781812E+02 -0.19586185966E+02  0.32374363153E+02  0.58347158574E+02  0.00000000000E+00 0. -1.
          2    1    1    2  501    0  0.10103140024E+03  0.23752619864E+03 -0.82087382367E+03  0.86049978109E+03  0.00000000000E+00 0. -1.
<scales pt_clust_5="13000.00000" pt_clust_6="13000.00000" pt_clust_7="13000.00000" pt_clust_8="13000.00000" pt_clust_9="184.50065"></scales>
<clustering>
<clus scale="   80.524">  5  6 -1 -1</clus>
<clus scale="   90.296">  7  8 -1 -1</clus>
<clus scale="  114.586">  2  5  1 -1</clus>
<clus scale="  184.501">  1  9  2 -1</clus>
<clus scale="  184.501">  1  5  2 -1</clus>
</clustering>
</event>
<event>
 9    1  0.8429841E-005  0.3745420E+03  0.7546771E-02  0.1098394E+00
          1   -1    0    0  502    0 -0.00000000000E+00  0.00000000000E+00  0.20369643964E+04  0.20369643964E+04  0.00000000000E+00 0. -1.
         21   -1    0    0  501  502  0.00000000000E+00 -0.00000000000E+00 -0.13711919174E+03  0.13711919174E+03  0.00000000000E+00 0. -1.
         23    2    1    2    0    0  0.45463076240E+02  0.33138878333E+02  0.23030189416E+03  0.25479963881E+03  0.93374605347E+02 0.  0.
        -24    2    1    2    0    0  0.32299859688E+03 -0.92772147429E+02  0.14405728719E+04  0.14813940167E+04  0.79644639331E+02 0.  0.
         13    1    4    4    0    0  0.26366764044E+03 -0.41499915660E+02  0.11224960565E+04  0.11537938570E+04  0.00000000000E+00 0. -1.
        -14    1    4    4    0    0  0.59330956438E+02 -0.51272231769E+02  0.31807681535E+03  0.32760015966E+03  0.00000000000E+00 0.  1.
        -11    1    3    3    0    0  0.30429040035E+02  0.50578628675E+02  0.22294650123E+03  0.23062798305E+03  0.00000000000E+00 0.  1.
         11    1    3    3    0    0  0.15034036206E+02 -0.17439750342E+02  0.73553929262E+01  0.24171655750E+02  0.00000000000E+00 0. -1.
          2    1    1    2  501    0 -0.36846167312E+03  0.59633269096E+02  0.22897043864E+03  0.43788993265E+03  0.00000000000E+00 0. -1.
<scales pt_clust_5="13000.00000" pt_clust_6="13000.00000" pt_clust_7="13000.00000" pt_clust_8="13000.00000" pt_clust_9="365.97606"></scales>
<clustering>
<clus scale="   79.645">  5  6 -1 -1</clus>
<clus scale="   93.375">  7  8 -1 -1</clus>
<clus scale="  109.013">  1  7  2 -1</clus>
<clus scale="  365.976">  2  9  1 -1</clus>
<clus scale="  365.976">  2  5  1 -1</clus>
</clustering>
</event>
<event>
 9    1  0.8429841E-005  0.1223680E+03  0.7546771E-02  0.1241957E+00
          1   -1    0    0  502    0 -0.00000000000E+00  0.00000000000E+00  0.25855901956E+03  0.25855901956E+03  0.00000000000E+00 0. -1.
         21   -1    0    0  501  502  0.00000000000E+00 -0.00000000000E+00 -0.10360666246E+03  0.10360666246E+03  0.00000000000E+00 0.  1.
        -24    2    1    2    0    0 -0.43959189814E+02 -0.95226351634E+02  0.12442046380E+03  0.18220785754E+03  0.81968183592E+02 0.  0.
         23    2    1    2    0    0  0.41748198454E+02  0.24139856438E+02  0.11229337237E+01  0.10299637188E+03  0.91001906013E+02 0.  0.
         11    1    3    3    0    0 -0.41134657539E+02 -0.48200019665E+01  0.51075614415E+02  0.65757211450E+02  0.00000000000E+00 0. -1.
        -12    1    3    3    0    0 -0.28245322754E+01 -0.90406349667E+02  0.73344849386E+02  0.11645064609E+03  0.00000000000E+00 0.  1.
        -11    1    4    4    0    0  0.49407169162E+02  0.53323124388E+02 -0.15139360314E+01  0.72709806501E+02  0.00000000000E+00 0. -1.
         11    1    4    4    0    0 -0.76589707084E+01 -0.29183267950E+02  0.26368697550E+01  0.30286565383E+02  0.00000000000E+00 0.  1.
          2    1    1    2  501    0  0.22109913608E+01  0.71086495196E+02  0.29408959581E+02  0.76961452596E+02  0.00000000000E+00 0. -1.
<scales pt_clust_5="13000.00000" pt_clust_6="13000.00000" pt_clust_7="13000.00000" pt_clust_8="13000.00000" pt_clust_9="71.12087"></scales>
<clustering>
<clus scale="   71.121">  2  9  1 -1</clus>
<clus scale="   81.968">  5  6 -1 -1</clus>
<clus scale="   91.002">  7  8 -1 -1</clus>
<clus scale="  115.807">  1  5  2 -1</clus>
<clus scale="   71.121">  2  5  1 -1</clus>
</clustering>
</event>
<event>
 9    1  0.8429841E-005  0.1042321E+03  0.7546771E-02  0.1278919E+00
          3   -1    0    0  502    0 -0.00000000000E+00  0.00000000000E+00  0.20658444285E+03  0.20658444285E+03  0.00000000000E+00 0. -1.
         21   -1    0    0  501  502  0.00000000000E+00 -0.00000000000E+00 -0.96482816635E+02  0.96482816635E+02  0.00000000000E+00 0.  1.
        -24    2    1    2    0    0 -0.32637336891E+02 -0.34593168266E+02  0.67026684785E+02  0.11082468857E+03  0.74348181375E+02 0.  0.
         23    2    1    2    0    0  0.16490441119E+02  0.70222997857E+02 -0.20630768478E+02  0.11748546774E+03  0.90410189945E+02 0.  0.
         11    1    3    3    0    0 -0.26126337111E+02 -0.57273971182E+02  0.38451547480E+02  0.73765945865E+02  0.00000000000E+00 0. -1.
        -12    1    3    3    0    0 -0.65109997804E+01  0.22680802916E+02  0.28575137304E+02  0.37058742707E+02  0.00000000000E+00 0.  1.
        -13    1    4    4    0    0  0.14053532335E+02  0.91846751026E+02 -0.22634176489E+02  0.95632804991E+02  0.00000000000E+00 0. -1.
         13    1    4    4    0    0  0.24369087843E+01 -0.21623753169E+02  0.20034080108E+01  0.21852662749E+02  0.00000000000E+00 0.  1.
          4    1    1    2  501    0  0.16146895772E+02 -0.35629829591E+02  0.63705709910E+02  0.74757103174E+02  0.00000000000E+00 0. -1.
<scales pt_clust_5="13000.00000" pt_clust_6="13000.00000" pt_clust_7="13000.00000" pt_clust_8="13000.00000" pt_clust_9="39.11788"></scales>
<clustering>
<clus scale="   39.118">  2  9  1 -1</clus>
<clus scale="   74.348">  5  6 -1 -1</clus>
<clus scale="   90.410">  7  8 -1 -1</clus>
<clus scale="   90.653">  1  5  2 -1</clus>
<clus scale="   39.118">  2  5  1 -1</clus>
</clustering>
</event>
<event>
 9    1  0.8429841E-005  0.1139871E+03  0.7546771E-02  0.1258891E+00
          1   -1    0    0  502    0 -0.00000000000E+00  0.00000000000E+00  0.60609222321E+03  0.60609222321E+03  0.00000000000E+00 0. -1.
         21   -1    0    0  501  502  0.00000000000E+00 -0.00000000000E+00 -0.14384902511E+03  0.14384902511E+03  0.00000000000E+00 0. -1.
        -24    2    1    2    0    0 -0.60810498099E+02 -0.15985836677E+02  0.53910511629E+03  0.54871703646E+03  0.80638675857E+02 0.  0.
         23    2    1    2    0    0  0.43325003536E+02  0.65988876429E+02 -0.81439093406E+02  0.14805469956E+03  0.95164491186E+02 0.  0.
         13    1    3    3    0    0 -0.69642671649E+02 -0.27619173926E+02  0.30169944948E+03  0.31086247490E+03  0.00000000000E+00 0. -1.
        -14    1    3    3    0    0  0.88321735501E+01  0.11633337249E+02  0.23740566681E+03  0.23785456157E+03  0.00000000000E+00 0.  1.
        -13    1    4    4    0    0  0.23070079281E+02  0.88503011757E+02 -0.49324877446E+02  0.10391320986E+03  0.00000000000E+00 0. -1.
         13    1    4    4    0    0  0.20254924256E+02 -0.22514135328E+02 -0.32114215960E+02  0.44141489700E+02  0.00000000000E+00 0.  1.
          2    1    1    2  501    0  0.17485494563E+02 -0.50003039752E+02  0.45771752194E+01  0.53169512293E+02  0.00000000000E+00 0. -1.
<scales pt_clust_5="13000.00000" pt_clust_6="13000.00000" pt_clust_7="13000.00000" pt_clust_8="13000.00000" pt_clust_9="52.97213"></scales>
<clustering>
<clus scale="   52.972">  2  9  1 -1</clus>
<clus scale="   80.639">  5  6 -1 -1</clus>
<clus scale="   95.164">  7  8 -1 -1</clus>
<clus scale="  102.173">  1  5  2 -1</clus>
<clus scale="   52.972">  2  5  1 -1</clus>
</clustering>
</event>
<event>
 9    1  0.8429841E-005  0.1035036E+03  0.7546771E-02  0.1278561E+00
         21   -1    0    0  501  502  0.00000000000E+00  0.00000000000E+00  0.52990457979E+02  0.52990457979E+02  0.00000000000E+00 0.  1.
         -2   -1    0    0    0  501 -0.00000000000E+00 -0.00000000000E+00 -0.28943019719E+03  0.28943019719E+03  0.00000000000E+00 0.  1.
        -24    2    1    2    0    0 -0.11795334719E+01  0.31631548339E+02 -0.79094965722E+02  0.11667280062E+03  0.79715636186E+02 0.  0.
         23    2    1    2    0    0 -0.28861210205E+02 -0.64429111057E+02 -0.12795336940E+03  0.17243762068E+03  0.91534629940E+02 0.  0.
         11    1    3    3    0    0 -0.10042280003E+02  0.51184364181E+02 -0.23755011566E+02  0.57314806977E+02  0.00000000000E+00 0. -1.
        -12    1    3    3    0    0  0.88627465307E+01 -0.19552815842E+02 -0.55339954157E+02  0.59357993644E+02  0.00000000000E+00 0.  1.
        -13    1    4    4    0    0 -0.34913137697E+02 -0.11234431887E+02 -0.33613734622E+01  0.36829858474E+02  0.00000000000E+00 0.  1.
         13    1    4    4    0    0  0.60519274919E+01 -0.53194679169E+02 -0.12459199594E+03  0.13560776220E+03  0.00000000000E+00 0. -1.
         -1    1    1    2    0  502  0.30040743677E+02  0.32797562718E+02 -0.29391404086E+02  0.53310233867E+02  0.00000000000E+00 0.  1.
<scales pt_clust_5="13000.00000" pt_clust_6="13000.00000" pt_clust_7="13000.00000" pt_clust_8="13000.00000" pt_clust_9="44.47613"></scales>
<clustering>
<clus scale="   44.476">  1  9  2 -1</clus>
<clus scale="   79.716">  5  6 -1 -1</clus>
<clus scale="   91.535">  7  8 -1 -1</clus>
<clus scale="   93.215">  2  5  1 -1</clus>
<clus scale="   44.476">  1  5  2 -1</clus>
</clustering>
</event>
<event>
 9    1  0.8429841E-005  0.9755753E+02  0.7546771E-02  0.1291796E+00
         21   -1    0    0  501  502  0.00000000000E+00  0.00000000000E+00  0.13534317128E+03  0.13534317128E+03  0.00000000000E+00 0.  1.
         -2   -1    0    0    0  501 -0.00000000000E+00 -0.00000000000E+00 -0.20038163586E+03  0.20038163586E+03  0.00000000000E+00 0.  1.
         23    2    1    2    0    0  0.21647523341E+02  0.53814686997E+02 -0.11855013310E+03  0.15804896210E+03  0.86952311986E+02 0.  0.
        -24    2    1    2    0    0 -0.46275912113E+02  0.19959156205E+02  0.16376871281E+02  0.91489241435E+02  0.74580502995E+02 0.  0.
         13    1    4    4    0    0  0.10918584477E+02 -0.17160366973E+02  0.10924192980E+02  0.23087478725E+02  0.00000000000E+00 0. -1.
        -14    1    4    4    0    0 -0.57194496590E+02  0.37119523178E+02  0.54526783009E+01  0.68401762710E+02  0.00000000000E+00 0.  1.
        -13    1    3    3    0    0  0.30657816518E+02 -0.39976670426E+01 -0.64282947591E+01  0.31578569140E+02  0.00000000000E+00 0. -1.
         13    1    3    3    0    0 -0.90102931762E+01  0.57812354039E+02 -0.11212183834E+03  0.12647039296E+03  0.00000000000E+00 0.  1.
         -1    1    1    2    0  502  0.24628388772E+02 -0.73773843202E+02  0.37134797236E+02  0.86186603599E+02  0.00000000000E+00 0.  1.
<scales pt_clust_5="13000.00000" pt_clust_6="13000.00000" pt_clust_7="13000.00000" pt_clust_8="13000.00000" pt_clust_9="77.77620"></scales>
<clustering>
<clus scale="   74.581">  5  6 -1 -1</clus>
<clus scale="   77.776">  1  9  2 -1</clus>
<clus scale="   86.712">  1  5  2 -1</clus>
<clus scale="   86.952">  7  8 -1 -1</clus>
<clus scale="   77.776">  1  5  2 -1</clus>
</clustering>
</event>
<event>
 9    1  0.8429841E-005  0.1135439E+03  0.7546771E-02  0.1259054E+00
         -2   -1    0    0    0  501 -0.00000000000E+00  0.00000000000E+00  0.11557712971E+03  0.11557712971E+03  0.00000000000E+00 0.  1.
         21   -1    0    0  501  502  0.00000000000E+00 -0.00000000000E+00 -0.43151908643E+03  0.43151908643E+03  0.00000000000E+00 0. -1.
         23    2    1    2    0    0  0.67237185571E+02  0.44777572273E+01  0.13484748700E+02  0.11444831924E+03  0.91518795315E+02 0.  0.
        -24    2    1    2    0    0 -0.53672785641E+02 -0.86572504751E+02 -0.32487598568E+03  0.34931573285E+03  0.78112154284E+02 0.  0.
         11    1    4    4    0    0  0.85259294733E+01 -0.59601716141E+02 -0.16591472412E+03  0.17650142130E+03  0.00000000000E+00 0. -1.
        -12    1    4    4    0    0 -0.62198715114E+02 -0.26970788610E+02 -0.15896126155E+03  0.17281431155E+03  0.00000000000E+00 0.  1.
        -13    1    3    3    0    0  0.17911631607E+02 -0.37743076182E+02  0.24738314684E+02  0.48552554618E+02  0.00000000000E+00 0. -1.
         13    1    3    3    0    0  0.49325553964E+02  0.42220833410E+02 -0.11253565984E+02  0.65895764621E+02  0.00000000000E+00 0.  1.
         -1    1    1    2    0  502 -0.13564399930E+02  0.82094747524E+02 -0.45507197361E+01  0.83332164058E+02  0.00000000000E+00 0.  1.
<scales pt_clust_5="13000.00000" pt_clust_6="13000.00000" pt_clust_7="13000.00000" pt_clust_8="13000.00000" pt_clust_9="83.20786"></scales>
<clustering>
<clus scale="   78.112">  5  6 -1 -1</clus>
<clus scale="   83.208">  2  9  1 -1</clus>
<clus scale="   91.519">  7  8 -1 -1</clus>
<clus scale="  103.044">  2  5  1 -1</clus>
<clus scale="   83.208">  2  5  1 -1</clus>
</clustering>
</event>
<event>
 9    1  0.8429841E-005  0.1131943E+03  0.7546771E-02  0.1258824E+00
          1   -1    0    0  502    0 -0.00000000000E+00  0.00000000000E+00  0.38394700054E+03  0.38394700054E+03  0.00000000000E+00 0. -1.
         21   -1    0    0  501  502  0.00000000000E+00 -0.00000000000E+00 -0.46180005561E+02  0.46180005561E+02  0.00000000000E+00 0. -1.
        -24    2    1    2    0    0 -0.43335857095E+02  0.58549372720E+02  0.23562097193E+03  0.25955565590E+03  0.80906554368E+02 0.  0.
         23    2    1    2    0    0  0.44573892775E+02 -0.31342894862E+02  0.93577936457E+02  0.14202074114E+03  0.91890433375E+02 0.  0.
         11    1    3    3    0    0 -0.23202451778E+02  0.54701649859E+02  0.23103177534E+03  0.23855042545E+03  0.00000000000E+00 0. -1.
        -12    1    3    3    0    0 -0.20133405317E+02  0.38477228613E+01  0.45891965912E+01  0.21005230449E+02  0.00000000000E+00 0.  1.
        -11    1    4    4    0    0 -0.26300308739E+02 -0.12495587370E+02  0.46528589788E+02  0.54888574505E+02  0.00000000000E+00 0.  1.
         11    1    4    4    0    0  0.70874201514E+02 -0.18847307492E+02  0.47049346668E+02  0.87132166631E+02  0.00000000000E+00 0. -1.
          2    1    1    2  501    0 -0.12380356803E+01 -0.27206477858E+02  0.85680865831E+01  0.28550609056E+02  0.00000000000E+00 0. -1.
<scales pt_clust_5="13000.00000" pt_clust_6="13000.00000" pt_clust_7="13000.00000" pt_clust_8="13000.00000" pt_clust_9="27.23463"></scales>
<clustering>
<clus scale="   27.235">  2  9  1 -1</clus>
<clus scale="   80.907">  5  6 -1 -1</clus>
<clus scale="   91.890">  7  8 -1 -1</clus>
<clus scale="  104.475">  1  5  2 -1</clus>
<clus scale="   27.235">  2  5  1 -1</clus>
</clustering>
</event>
<event>
 9    1  0.8429841E-005  0.1000189E+03  0.7546771E-02  0.1288105E+00
          1   -1    0    0  502    0 -0.00000000000E+00  0.00000000000E+00  0.93732691284E+02  0.93732691284E+02  0.00000000000E+00 0. -1.
         21   -1    0    0  501  502  0.00000000000E+00 -0.00000000000E+00 -0.17449667115E+03  0.17449667115E+03  0.00000000000E+00 0.  1.
        -24    2    1    2    0    0  0.11006459353E+02  0.52845332935E+02 -0.30856572343E+02  0.98772625490E+02  0.76747196228E+02 0.  0.
         23    2    1    2    0    0 -0.40414476293E+01 -0.16067396828E+02 -0.78744494858E+02  0.12220522290E+03  0.91972422467E+02 0.  0.
         13    1    3    3    0    0 -0.12478835163E+02 -0.16319504177E+02 -0.97556863204E+01  0.22742492370E+02  0.00000000000E+00 0. -1.
        -14    1    3    3    0    0  0.23485294516E+02  0.69164837112E+02 -0.21100886022E+02  0.76030133120E+02  0.00000000000E+00 0.  1.
        -11    1    4    4    0    0 -0.25101828538E+02 -0.34326787862E+02 -0.83710185908E+02  0.93892626897E+02  0.00000000000E+00 0.  1.
         11    1    4    4    0    0  0.21060380909E+02  0.18259391034E+02  0.49656910501E+01  0.28312596006E+02  0.00000000000E+00 0. -1.
          2    1    1    2  501    0 -0.69650117238E+01 -0.36777936107E+02  0.28837087339E+02  0.47251514037E+02  0.00000000000E+00 0. -1.
<scales pt_clust_5="13000.00000" pt_clust_6="13000.00000" pt_clust_7="13000.00000" pt_clust_8="13000.00000" pt_clust_9="37.43166"></scales>
<clustering>
<clus scale="   37.432">  2  9  1 -1</clus>
<clus scale="   76.747">  5  6 -1 -1</clus>
<clus scale="   86.226">  1  5  2 -1</clus>
<clus scale="   91.972">  7  8 -1 -1</clus>
<clus scale="   37.432">  2  5  1 -1</clus>
</clustering>
</event>
<event>
 9    1  0.8429841E-005  0.1687614E+03  0.7546771E-02  0.1202223E+00
         -4   -1    0    0    0  501 -0.00000000000E+00  0.00000000000E+00  0.43021282999E+02  0.43021282999E+02  0.00000000000E+00 0.  1.
         21   -1    0    0  501  502  0.00000000000E+00 -0.00000000000E+00 -0.12248341969E+04  0.12248341969E+04  0.00000000000E+00 0.  1.
        -24    2    1    2    0    0 -0.33232576252E+02 -0.51472440046E+02 -0.31956676514E+03  0.33527104655E+03  0.80808050721E+02 0.  0.
         23    2    1    2    0    0 -0.11361367366E+03  0.12812460292E+02 -0.17302519638E+03  0.22683381426E+03  0.91889252522E+02 0.  0.
         11    1    3    3    0    0  0.23636614848E+02  0.29932211872E+00 -0.57977705573E+02  0.62611448624E+02  0.00000000000E+00 0. -1.
        -12    1    3    3    0    0 -0.56869191101E+02 -0.51771762165E+02 -0.26158905957E+03  0.27265959792E+03  0.00000000000E+00 0.  1.
        -11    1    4    4    0    0 -0.90333906586E+02  0.28733420904E+02 -0.64383018491E+02  0.11459056342E+03  0.00000000000E+00 0.  1.
         11    1    4    4    0    0 -0.23279767072E+02 -0.15920960612E+02 -0.10864217789E+03  0.11224325084E+03  0.00000000000E+00 0. -1.
         -3    1    1    2    0  502  0.14684624991E+03  0.38659979754E+02 -0.68922095233E+03  0.70575061904E+03  0.00000000000E+00 0.  1.
<scales pt_clust_5="13000.00000" pt_clust_6="13000.00000" pt_clust_7="13000.00000" pt_clust_8="13000.00000" pt_clust_9="141.55137"></scales>
<clustering>
<clus scale="   80.808">  5  6 -1 -1</clus>
<clus scale="   91.889">  7  8 -1 -1</clus>
<clus scale="  101.409">  1  5  2 -1</clus>
<clus scale="  141.551">  2  9  1 -1</clus>
<clus scale="  141.551">  2  5  1 -1</clus>
</clustering>
</event>
<event>
 9    1  0.8429841E-005  0.8490057E+02  0.7546771E-02  0.1318429E+00
          1   -1    0    0  502    0 -0.00000000000E+00  0.00000000000E+00  0.34560448570E+03  0.34560448570E+03  0.00000000000E+00 0. -1.
         21   -1    0    0  501  502  0.00000000000E+00 -0.00000000000E+00 -0.12157131568E+03  0.12157131568E+03  0.00000000000E+00 0. -1.
         23    2    1    2    0    0 -0.81463704233E+01  0.12275171691E+02  0.29784530664E+03  0.30975337682E+03  0.83775202598E+02 0.  0.
        -24    2    1    2    0    0 -0.38505076355E+02 -0.20707072495E+02 -0.56281344085E+02  0.10687756207E+03  0.79647974397E+02 0.  0.
         13    1    4    4    0    0  0.46402216955E+01 -0.37888243024E+02 -0.63643352267E+01  0.38698260681E+02  0.00000000000E+00 0. -1.
        -14    1    4    4    0    0 -0.43145298050E+02  0.17181170529E+02 -0.49917008858E+02  0.68179301389E+02  0.00000000000E+00 0.  1.
        -13    1    3    3    0    0  0.26903878048E+02  0.25706820815E+02  0.74502398143E+02  0.83278248178E+02  0.00000000000E+00 0.  1.
         13    1    3    3    0    0 -0.35050248471E+02 -0.13431649123E+02  0.22334290850E+03  0.22647512864E+03  0.00000000000E+00 0. -1.
          2    1    1    2  501    0  0.46651446778E+02  0.84319008038E+01 -0.17530792534E+02  0.50544862494E+02  0.00000000000E+00 0. -1.
<scales pt_clust_5="13000.00000" pt_clust_6="13000.00000" pt_clust_7="13000.00000" pt_clust_8="13000.00000" pt_clust_9="47.40732"></scales>
<clustering>
<clus scale="   47.407">  2  9  1 -1</clus>
<clus scale="   79.648">  5  6 -1 -1</clus>
<clus scale="   80.831">  2  5  1 -1</clus>
<clus scale="   83.775">  7  8 -1 -1</clus>
<clus scale="   47.407">  2  5  1 -1</clus>
</clustering>
</event>
<event>
 9    1  0.8429841E-005  0.1465875E+03  0.7546771E-02  0.1206835E+00
          3   -1    0    0  502    0 -0.00000000000E+00  0.00000000000E+00  0.20125578060E+03  0.20125578060E+03  0.00000000000E+00 0. -1.
         21   -1    0    0  501  502  0.00000000000E+00 -0.00000000000E+00 -0.16085209348E+03  0.16085209348E+03  0.00000000000E+00 0. -1.
        -24    2    1    2    0    0  0.28778468627E+02 -0.13070730623E+03  0.39031378963E+02  0.16097476429E+03  0.80478730333E+02 0.  0.
         23    2    1    2    0    0 -0.29554410259E+02  0.81926880197E+02 -0.44860107471E+02  0.13392025161E+03  0.91305682659E+02 0.  0.
         11    1    3    3    0    0  0.40880257176E+02 -0.10365092829E+03 -0.67804798911E+00  0.11142338225E+03  0.00000000000E+00 0. -1.
        -12    1    3    3    0    0 -0.12101788550E+02 -0.27056377933E+02  0.39709426952E+02  0.49551382037E+02  0.00000000000E+00 0.  1.
        -13    1    4    4    0    0 -0.49556148983E+02  0.33171066775E+02 -0.53981991512E+02  0.80437472490E+02  0.00000000000E+00 0. -1.
         13    1    4    4    0    0  0.20001738724E+02  0.48755813422E+02  0.91218840409E+01  0.53482779125E+02  0.00000000000E+00 0.  1.
          4    1    1    2  501    0  0.77594163216E+00  0.48780426030E+02  0.46232415628E+02  0.67212858173E+02  0.00000000000E+00 0. -1.
<scales pt_clust_5="13000.00000" pt_clust_6="13000.00000" pt_clust_7="13000.00000" pt_clust_8="13000.00000" pt_clust_9="48.78662"></scales>
<clustering>
<clus scale="   48.787">  2  9  1 -1</clus>
<clus scale="   80.479">  5  6 -1 -1</clus>
<clus scale="   91.306">  7  8 -1 -1</clus>
<clus scale="  140.100">  1  5  2 -1</clus>
<clus scale="   48.787">  2  5  1 -1</clus>
</clustering>
</event>
<event>
 9    1  0.8429841E-005  0.1116139E+03  0.7546771E-02  0.1270100E+00
         -2   -1    0    0    0  501 -0.00000000000E+00  0.00000000000E+00  0.74942370792E+02  0.74942370792E+02  0.00000000000E+00 0.  1.
         21   -1    0    0  501  502  0.00000000000E+00 -0.00000000000E+00 -0.52517340723E+03  0.52517340723E+03  0.00000000000E+00 0.  1.
        -24    2    1    2    0    0  0.55516768346E+02 -0.32970951900E+02  0.31478503072E+02  0.94063767959E+02  0.60728091113E+02 0.  0.
         23    2    1    2    0    0 -0.21547386239E+02  0.54688279836E+02 -0.28494676311E+03  0.30520094227E+03  0.92183835653E+02 0.  0.
         13    1    3    3    0    0  0.91851576126E+01 -0.34612330011E+02 -0.35098787728E+01  0.35981936554E+02  0.00000000000E+00 0. -1.
        -14    1    3    3    0    0  0.46331610733E+02  0.16413781117E+01  0.34988381845E+02  0.58081831405E+02  0.00000000000E+00 0.  1.
        -11    1    4    4    0    0 -0.35275160175E+02  0.73836659252E+02 -0.18132724256E+03  0.19893656795E+03  0.00000000000E+00 0. -1.
         11    1    4    4    0    0  0.13727773936E+02 -0.19148379416E+02 -0.10361952055E+03  0.10626437432E+03  0.00000000000E+00 0.  1.
         -1    1    1    2    0  502 -0.33969382107E+02 -0.21717327936E+02 -0.19676277640E+03  0.20085106779E+03  0.00000000000E+00 0.  1.
<scales pt_clust_5="13000.00000" pt_clust_6="13000.00000" pt_clust_7="13000.00000" pt_clust_8="13000.00000" pt_clust_9="40.31825"></scales>
<clustering>
<clus scale="   40.318">  2  9  1 -1</clus>
<clus scale="   60.728">  5  6 -1 -1</clus>
<clus scale="   87.451">  1  5  2 -1</clus>
<clus scale="   92.184">  7  8 -1 -1</clus>
<clus scale="   40.318">  2  5  1 -1</clus>
</clustering>
</event>
<event>
 9    1  0.8429841E-005  0.9987433E+02  0.7546771E-02  0.1285351E+00
         21   -1    0    0  501  502  0.00000000000E+00  0.00000000000E+00  0.48248903970E+02  0.48248903970E+02  0.00000000000E+00 0.  1.
          1   -1    0    0  502    0 -0.00000000000E+00 -0.00000000000E+00 -0.35478245775E+03  0.35478245775E+03  0.00000000000E+00 0. -1.
        -24    2    1    2    0    0 -0.34069764967E+02 -0.18149646045E+01 -0.21325524726E+03  0.23100265690E+03  0.81977948426E+02 0.  0.
         23    2    1    2    0    0  0.59033622419E+02 -0.20627521877E+02 -0.74646879085E+02  0.13363613436E+03  0.91520471020E+02 0.  0.
         13    1    3    3    0    0 -0.46624805679E+01  0.36982328844E+02 -0.64646512012E+02  0.74623072083E+02  0.00000000000E+00 0. -1.
        -14    1    3    3    0    0 -0.29407284399E+02 -0.38797293448E+02 -0.14860873525E+03  0.15637958481E+03  0.00000000000E+00 0.  1.
        -11    1    4    4    0    0  0.29200689295E+02  0.30371839688E+02 -0.59028805667E+02  0.72522608887E+02  0.00000000000E+00 0. -1.
         11    1    4    4    0    0  0.29832933124E+02 -0.50999361565E+02 -0.15618073418E+02  0.61113525476E+02  0.00000000000E+00 0.  1.
          2    1    1    2  501    0 -0.24963857453E+02  0.22442486482E+02 -0.18631427437E+02  0.38392570463E+02  0.00000000000E+00 0. -1.
<scales pt_clust_5="13000.00000" pt_clust_6="13000.00000" pt_clust_7="13000.00000" pt_clust_8="13000.00000" pt_clust_9="33.56873"></scales>
<clustering>
<clus scale="   33.569">  1  9  2 -1</clus>
<clus scale="   81.978">  5  6 -1 -1</clus>
<clus scale="   91.210">  2  5  1 -1</clus>
<clus scale="   91.520">  7  8 -1 -1</clus>
<clus scale="   33.569">  1  5  2 -1</clus>
</clustering>
</event>
<event>
 9    1  0.8429841E-005  0.9737519E+02  0.7546771E-02  0.1293137E+00
         -2   -1    0    0    0  501 -0.00000000000E+00  0.00000000000E+00  0.30876594302E+03  0.30876594302E+03  0.00000000000E+00 0.  1.
         21   -1    0    0  501  502  0.00000000000E+00 -0.00000000000E+00 -0.11813377571E+03  0.11813377571E+03  0.00000000000E+00 0. -1.
        -24    2    1    2    0    0  0.19941807813E+02 -0.14504596782E+02  0.25598874923E+03  0.26987962911E+03  0.81833461663E+02 0.  0.
         23    2    1    2    0    0 -0.21883256971E+02 -0.14209019623E+02 -0.15329453151E+02  0.99305666771E+02  0.94582504432E+02 0.  0.
         13    1    3    3    0    0 -0.31273232786E+02  0.24707381900E+01  0.86722497650E+02  0.92222075637E+02  0.00000000000E+00 0. -1.
        -14    1    3    3    0    0  0.51215040599E+02 -0.16975334972E+02  0.16926625158E+03  0.17765755347E+03  0.00000000000E+00 0.  1.
        -11    1    4    4    0    0  0.11673467161E+01 -0.48694543606E+02  0.11314965630E+02  0.50005496924E+02  0.00000000000E+00 0. -1.
         11    1    4    4    0    0 -0.23050603687E+02  0.34485523984E+02 -0.26644418781E+02  0.49300169847E+02  0.00000000000E+00 0.  1.
         -1    1    1    2    0  502  0.19414491586E+01  0.28713616405E+02 -0.50027128766E+02  0.57714422846E+02  0.00000000000E+00 0.  1.
<scales pt_clust_5="13000.00000" pt_clust_6="13000.00000" pt_clust_7="13000.00000" pt_clust_8="13000.00000" pt_clust_9="28.77918"></scales>
<clustering>
<clus scale="   28.779">  2  9  1 -1</clus>
<clus scale="   81.833">  5  6 -1 -1</clus>
<clus scale="   85.046">  1  5  2 -1</clus>
<clus scale="   94.583">  7  8 -1 -1</clus>
<clus scale="   28.779">  2  5  1 -1</clus>
</clustering>
</event>
<event>
 9    1  0.8429841E-005  0.1548070E+03  0.7546771E-02  0.1196109E+00
          1   -1    0    0  502    0 -0.00000000000E+00  0.00000000000E+00  0.64215420377E+03  0.64215420377E+03  0.00000000000E+00 0. -1.
         21   -1    0    0  501  502  0.00000000000E+00 -0.00000000000E+00 -0.28325473508E+03  0.28325473508E+03  0.00000000000E+00 0. -1.
        -24    2    1    2    0    0  0.10638836631E+03 -0.67416364828E+02  0.35575287105E+03  0.38613605386E+03  0.81715947667E+02 0.  0.
         23    2    1    2    0    0 -0.63642042819E+02  0.12126356412E+03  0.24111388957E+03  0.29157306449E+03  0.90132028705E+02 0.  0.
         11    1    3    3    0    0  0.19407999946E+02 -0.42055867124E+02  0.20571160427E+03  0.21086163841E+03  0.00000000000E+00 0. -1.
        -12    1    3    3    0    0  0.86980366369E+02 -0.25360497704E+02  0.15004126678E+03  0.17527441545E+03  0.00000000000E+00 0.  1.
        -13    1    4    4    0    0 -0.32033498035E+02  0.84025386417E+02  0.22128226072E+03  0.23885612713E+03  0.00000000000E+00 0.  1.
         13    1    4    4    0    0 -0.31608544784E+02  0.37238177706E+02  0.19831628847E+02  0.52716937363E+02  0.00000000000E+00 0. -1.
          2    1    1    2  501    0 -0.42746323496E+02 -0.53847199295E+02 -0.23796729192E+03  0.24769982049E+03  0.00000000000E+00 0. -1.
<scales pt_clust_5="13000.00000" pt_clust_6="13000.00000" pt_clust_7="13000.00000" pt_clust_8="13000.00000" pt_clust_9="68.75150"></scales>
<clustering>
<clus scale="   68.752">  2  9  1 -1</clus>
<clus scale="   81.716">  5  6 -1 -1</clus>
<clus scale="   90.132">  7  8 -1 -1</clus>
<clus scale="  150.063">  1  5  2 -1</clus>
<clus scale="   68.752">  2  5  1 -1</clus>
</clustering>
</event>
<event>
 9    1  0.8429841E-005  0.1022455E+03  0.7546771E-02  0.1283734E+00
          1   -1    0    0  502    0 -0.00000000000E+00  0.00000000000E+00  0.13638264228E+03  0.13638264228E+03  0.00000000000E+00 0. -1.
         21   -1    0    0  501  502  0.00000000000E+00 -0.00000000000E+00 -0.13177965216E+03  0.13177965216E+03  0.00000000000E+00 0. -1.
        -24    2    1    2    0    0 -0.13562188666E+02  0.10751383500E+02  0.59438555542E+01  0.80003852028E+02  0.77883000147E+02 0.  0.
         23    2    1    2    0    0  0.75878990906E+02 -0.26665189183E+01  0.18529115664E+02  0.12225271409E+03  0.94008863365E+02 0.  0.
         13    1    3    3    0    0  0.27755171995E+02  0.21420585865E+02  0.11664797808E+02  0.36949405668E+02  0.00000000000E+00 0. -1.
        -14    1    3    3    0    0 -0.41317360661E+02 -0.10669202365E+02 -0.57209422543E+01  0.43054446360E+02  0.00000000000E+00 0.  1.
        -13    1    4    4    0    0  0.14297333690E+02  0.40639636701E+02 -0.50164265926E+01  0.43372322483E+02  0.00000000000E+00 0.  1.
         13    1    4    4    0    0  0.61581657216E+02 -0.43306155619E+02  0.23545542257E+02  0.78880391608E+02  0.00000000000E+00 0. -1.
          2    1    1    2  501    0 -0.62316802241E+02 -0.80848645819E+01 -0.19869981104E+02  0.65905728324E+02  0.00000000000E+00 0. -1.
<scales pt_clust_5="13000.00000" pt_clust_6="13000.00000" pt_clust_7="13000.00000" pt_clust_8="13000.00000" pt_clust_9="62.83907"></scales>
<clustering>
<clus scale="   62.839">  2  9  1 -1</clus>
<clus scale="   77.883">  5  6 -1 -1</clus>
<clus scale="   87.648">  1  5  2 -1</clus>
<clus scale="   94.009">  7  8 -1 -1</clus>
<clus scale="   62.839">  2  5  1 -1</clus>
</clustering>
</event>
<event>
 9    1  0.8429841E-005  0.1282480E+03  0.7546771E-02  0.1234650E+00
          1   -1    0    0  502    0 -0.00000000000E+00  0.00000000000E+00  0.45466959748E+02  0.45466959748E+02  0.00000000000E+00 0. -1.
         21   -1    0    0  501  502  0.00000000000E+00 -0.00000000000E+00 -0.46920752472E+03  0.46920752472E+03  0.00000000000E+00 0. -1.
         23    2    1    2    0    0 -0.69156571249E+02  0.76996466243E+01 -0.16516495967E+03  0.20325204750E+03  0.95864565950E+02 0.  0.
        -24    2    1    2    0    0  0.10355161322E+03  0.15980232213E+02 -0.19209481880E+03  0.23291479054E+03  0.79815887021E+02 0.  0.
         11    1    4    4    0    0  0.85008373245E+02  0.45684745906E+02 -0.13527213522E+03  0.16616880001E+03  0.00000000000E+00 0. -1.
        -12    1    4    4    0    0  0.18543239973E+02 -0.29704513693E+02 -0.56822683582E+02  0.66745990530E+02  0.00000000000E+00 0.  1.
        -11    1    3    3    0    0 -0.55567568367E+02  0.27994393447E+02 -0.36180425707E+02  0.71975439721E+02  0.00000000000E+00 0.  1.
         11    1    3    3    0    0 -0.13589002882E+02 -0.20294746823E+02 -0.12898453397E+03  0.13127660778E+03  0.00000000000E+00 0. -1.
          2    1    1    2  501    0 -0.34395041969E+02 -0.23679878838E+02 -0.66480786495E+02  0.78507646423E+02  0.00000000000E+00 0. -1.
<scales pt_clust_5="13000.00000" pt_clust_6="13000.00000" pt_clust_7="13000.00000" pt_clust_8="13000.00000" pt_clust_9="41.75830"></scales>
<clustering>
<clus scale="   41.758">  2  9  1 -1</clus>
<clus scale="   79.816">  5  6 -1 -1</clus>
<clus scale="   95.865">  7  8 -1 -1</clus>
<clus scale="  116.740">  2  5  1 -1</clus>
<clus scale="   41.758">  2  5  1 -1</clus>
</clustering>
</event>
<event>
 9    1  0.8429841E-005  0.1950712E+03  0.7546771E-02  0.1177448E+00
          1   -1    0    0  502    0 -0.00000000000E+00  0.00000000000E+00  0.21221214235E+04  0.21221214235E+04  0.00000000000E+00 0. -1.
         21   -1    0    0  501  502  0.00000000000E+00 -0.00000000000E+00 -0.40892770520E+02  0.40892770520E+02  0.00000000000E+00 0. -1.
        -24    2    1    2    0    0  0.67103267749E+02 -0.35852084478E+02  0.75800814000E+03  0.76646373950E+03  0.84273976754E+02 0.  0.
         23    2    1    2    0    0  0.35665112597E+02  0.17859185275E+03  0.31234219769E+03  0.37048469163E+03  0.80834449048E+02 0.  0.
         13    1    3    3    0    0  0.51771069609E+00 -0.37753814709E+02  0.14455983427E+03  0.14940938469E+03  0.00000000000E+00 0. -1.
        -14    1    3    3    0    0  0.66585557053E+02  0.19017302316E+01  0.61344830574E+03  0.61705435481E+03  0.00000000000E+00 0.  1.
        -11    1    4    4    0    0  0.60820060327E+02  0.13204712842E+03  0.21218036803E+03  0.25720815003E+03  0.00000000000E+00 0. -1.
         11    1    4    4    0    0 -0.25154947730E+02  0.46544724328E+02  0.10016182966E+03  0.11327654161E+03  0.00000000000E+00 0.  1.
          2    1    1    2  501    0 -0.10276838035E+03 -0.14273976827E+03  0.10108783152E+04  0.10260657628E+04  0.00000000000E+00 0. -1.
<scales pt_clust_5="13000.00000" pt_clust_6="13000.00000" pt_clust_7="13000.00000" pt_clust_8="13000.00000" pt_clust_9="177.53477"></scales>
<clustering>
<clus scale="   80.834">  7  8 -1 -1</clus>
<clus scale="   84.274">  5  6 -1 -1</clus>
<clus scale="  113.536">  1  5  2 -1</clus>
<clus scale="  177.535">  2  9  1 -1</clus>
<clus scale="  177.535">  2  5  1 -1</clus>
</clustering>
</event>
<event>
 9    1  0.8429841E-005  0.9400090E+02  0.7546771E-02  0.1297109E+00
          1   -1    0    0  502    0 -0.00000000000E+00  0.00000000000E+00  0.43809240767E+03  0.43809240767E+03  0.00000000000E+00 0. -1.
         21   -1    0    0  501  502  0.00000000000E+00 -0.00000000000E+00 -0.35314260691E+02  0.35314260691E+02  0.00000000000E+00 0. -1.
         23    2    1    2    0    0  0.66291178672E+01 -0.42868698879E+02  0.21037598426E+03  0.23325525683E+03  0.90930135462E+02 0.  0.
        -24    2    1    2    0    0 -0.21718169545E+02 -0.46389552435E+01  0.15461730586E+03  0.17760261388E+03  0.84516142782E+02 0.  0.
         13    1    4    4    0    0 -0.36121986213E+02  0.31448412929E+02  0.95881899263E+02  0.10717807224E+03  0.00000000000E+00 0. -1.
        -14    1    4    4    0    0  0.14403816668E+02 -0.36087368172E+02  0.58735406596E+02  0.70424541633E+02  0.00000000000E+00 0.  1.
        -13    1    3    3    0    0  0.43972929110E+02 -0.23519269936E+02  0.65047817479E+02  0.81963364448E+02  0.00000000000E+00 0.  1.
         13    1    3    3    0    0 -0.37343811243E+02 -0.19349428943E+02  0.14532816678E+03  0.15129189238E+03  0.00000000000E+00 0. -1.
          2    1    1    2  501    0  0.15089051678E+02  0.47507654123E+02  0.37784856858E+02  0.62548797659E+02  0.00000000000E+00 0. -1.
<scales pt_clust_5="13000.00000" pt_clust_6="13000.00000" pt_clust_7="13000.00000" pt_clust_8="13000.00000" pt_clust_9="49.84633"></scales>
<clustering>
<clus scale="   49.846">  2  9  1 -1</clus>
<clus scale="   84.516">  5  6 -1 -1</clus>
<clus scale="   87.811">  2  5  1 -1</clus>
<clus scale="   90.930">  7  8 -1 -1</clus>
<clus scale="   49.846">  2  5  1 -1</clus>
</clustering>
</event>
<event>
 9    1  0.8429841E-005  0.1049579E+03  0.7546771E-02  0.1275677E+00
          1   -1    0    0  502    0 -0.00000000000E+00  0.00000000000E+00  0.63523722329E+03  0.63523722329E+03  0.00000000000E+00 0. -1.
         21   -1    0    0  501  502  0.00000000000E+00 -0.00000000000E+00 -0.69082548570E+02  0.69082548570E+02  0.00000000000E+00 0. -1.
         23    2    1    2    0    0 -0.67445770248E+00 -0.45997881158E+02  0.34932832741E+03  0.36422186464E+03  0.92255224140E+02 0.  0.
        -24    2    1    2    0    0 -0.19898501542E+02  0.82299408978E+02 -0.27464563303E+01  0.11659563952E+03  0.80111528820E+02 0.  0.
         13    1    4    4    0    0 -0.26297587939E+02  0.85818947013E+02 -0.25000040709E+02  0.93174335701E+02  0.00000000000E+00 0. -1.
        -14    1    4    4    0    0  0.63990863970E+01 -0.35195380346E+01  0.22253584379E+02  0.23421303815E+02  0.00000000000E+00 0.  1.
        -11    1    3    3    0    0  0.36141877477E+02  0.85225516583E+01  0.11619220394E+03  0.12198154553E+03  0.00000000000E+00 0.  1.
         11    1    3    3    0    0 -0.36816335180E+02 -0.54520432816E+02  0.23313612348E+03  0.24224031910E+03  0.00000000000E+00 0. -1.
          2    1    1    2  501    0  0.20572959244E+02 -0.36301527821E+02  0.21957280364E+03  0.22350226771E+03  0.00000000000E+00 0. -1.
<scales pt_clust_5="13000.00000" pt_clust_6="13000.00000" pt_clust_7="13000.00000" pt_clust_8="13000.00000" pt_clust_9="41.72588"></scales>
<clustering>
<clus scale="   41.726">  2  9  1 -1</clus>
<clus scale="   80.112">  5  6 -1 -1</clus>
<clus scale="   92.255">  7  8 -1 -1</clus>
<clus scale="   94.462">  2  5  1 -1</clus>
<clus scale="   41.726">  2  5  1 -1</clus>
</clustering>
</event>
<event>
 9    1  0.8429841E-005  0.1161524E+03  0.7546771E-02  0.1260099E+00
         21   -1    0    0  501  502  0.00000000000E+00  0.00000000000E+00  0.10746314372E+03  0.10746314372E+03  0.00000000000E+00 0.  1.
          1   -1    0    0  502    0 -0.00000000000E+00 -0.00000000000E+00 -0.40434344755E+03  0.40434344755E+03  0.00000000000E+00 0. -1.
         23    2    1    2    0    0 -0.14041657304E+02 -0.14850672395E+02  0.42164506233E+02  0.10329624824E+03  0.92057366379E+02 0.  0.
        -24    2    1    2    0    0 -0.74014088825E+02 -0.21818618000E+02 -0.96479562479E+02  0.14786431750E+03  0.81249079863E+02 0.  0.
         11    1    4    4    0    0  0.69750950684E+01 -0.27672038490E+02 -0.39228194936E+02  0.48510256064E+02  0.00000000000E+00 0. -1.
        -12    1    4    4    0    0 -0.80989183893E+02  0.58534204896E+01 -0.57251367543E+02  0.99354061440E+02  0.00000000000E+00 0.  1.
        -11    1    3    3    0    0 -0.41448244126E+02 -0.31571635726E+02  0.47791855390E+02  0.70702097318E+02  0.00000000000E+00 0.  1.
         11    1    3    3    0    0  0.27406586822E+02  0.16720963330E+02 -0.56273491573E+01  0.32594150924E+02  0.00000000000E+00 0. -1.
          2    1    1    2  501    0  0.88055746128E+02  0.36669290395E+02 -0.24256524758E+03  0.26064602552E+03  0.00000000000E+00 0. -1.
<scales pt_clust_5="13000.00000" pt_clust_6="13000.00000" pt_clust_7="13000.00000" pt_clust_8="13000.00000" pt_clust_9="83.00591"></scales>
<clustering>
<clus scale="   81.249">  5  6 -1 -1</clus>
<clus scale="   92.057">  7  8 -1 -1</clus>
<clus scale="   94.299">  2  7  1 -1</clus>
<clus scale="   83.006">  1  9  2 -1</clus>
<clus scale="   83.006">  1  5  2 -1</clus>
</clustering>
</event>
<event>
 9    1  0.8429841E-005  0.1264352E+03  0.7546771E-02  0.1245320E+00
          1   -1    0    0  502    0 -0.00000000000E+00  0.00000000000E+00  0.29267508858E+03  0.29267508858E+03  0.00000000000E+00 0. -1.
         21   -1    0    0  501  502  0.00000000000E+00 -0.00000000000E+00 -0.12434165278E+03  0.12434165278E+03  0.00000000000E+00 0. -1.
         23    2    1    2    0    0  0.23979278856E+02  0.33046183681E+02 -0.41797035065E+02  0.10662897452E+03  0.89194674710E+02 0.  0.
        -24    2    1    2    0    0 -0.16770271369E+02  0.80191807321E+02  0.11640000097E+03  0.16321367475E+03  0.79860975686E+02 0.  0.
         13    1    4    4    0    0 -0.23085554145E+02  0.82985379540E+02  0.56717233609E+02  0.10313273300E+03  0.00000000000E+00 0. -1.
        -14    1    4    4    0    0  0.63152827754E+01 -0.27935722193E+01  0.59682767359E+02  0.60080941753E+02  0.00000000000E+00 0.  1.
        -11    1    3    3    0    0  0.45115856223E+02 -0.10160349276E+02 -0.59204237168E+01  0.46623219506E+02  0.00000000000E+00 0.  1.
         11    1    3    3    0    0 -0.21136577367E+02  0.43206532957E+02 -0.35876611348E+02  0.60005755014E+02  0.00000000000E+00 0. -1.
          2    1    1    2  501    0 -0.72090074870E+01 -0.11323799100E+03  0.93730469898E+02  0.14717409209E+03  0.00000000000E+00 0. -1.
<scales pt_clust_5="13000.00000" pt_clust_6="13000.00000" pt_clust_7="13000.00000" pt_clust_8="13000.00000" pt_clust_9="98.02089"></scales>
<clustering>
<clus scale="   79.861">  5  6 -1 -1</clus>
<clus scale="   89.195">  7  8 -1 -1</clus>
<clus scale="   98.096">  1  7  2 -1</clus>
<clus scale="   98.021">  2  9  1 -1</clus>
<clus scale="   98.021">  2  5  1 -1</clus>
</clustering>
</event>
<event>
 9    1  0.8429841E-005  0.9455569E+02  0.7546771E-02  0.1312626E+00
          1   -1    0    0  502    0 -0.00000000000E+00  0.00000000000E+00  0.33727786106E+03  0.33727786106E+03  0.00000000000E+00 0. -1.
         21   -1    0    0  501  502  0.00000000000E+00 -0.00000000000E+00 -0.36587027740E+02  0.36587027740E+02  0.00000000000E+00 0.  1.
        -24    2    1    2    0    0 -0.84190028425E+01  0.19991574615E+02  0.21014445410E+03  0.22038657103E+03  0.62761504419E+02 0.  0.
         23    2    1    2    0    0 -0.10914383082E+02  0.45584643674E+00  0.80703717230E+02  0.12366632632E+03  0.93064164623E+02 0.  0.
         13    1    3    3    0    0  0.12835473860E+02 -0.17036577837E+02  0.44801116139E+02  0.49619899042E+02  0.00000000000E+00 0. -1.
        -14    1    3    3    0    0 -0.21254476703E+02  0.37028152452E+02  0.16534333796E+03  0.17076667199E+03  0.00000000000E+00 0.  1.
        -13    1    4    4    0    0 -0.46441856723E+02 -0.12115243741E+02  0.19532838250E+02  0.51818500142E+02  0.00000000000E+00 0.  1.
         13    1    4    4    0    0  0.35527473641E+02  0.12571090178E+02  0.61170878980E+02  0.71847826180E+02  0.00000000000E+00 0. -1.
          2    1    1    2  501    0  0.19333385925E+02 -0.20447421052E+02  0.98426619865E+01  0.29811991446E+02  0.00000000000E+00 0. -1.
<scales pt_clust_5="13000.00000" pt_clust_6="13000.00000" pt_clust_7="13000.00000" pt_clust_8="13000.00000" pt_clust_9="28.14031"></scales>
<clustering>
<clus scale="   28.140">  2  9  1 -1</clus>
<clus scale="   62.762">  5  6 -1 -1</clus>
<clus scale="   64.953">  1  5  2 -1</clus>
<clus scale="   93.064">  7  8 -1 -1</clus>
<clus scale="   28.140">  2  5  1 -1</clus>
</clustering>
</event>
<event>
 9    1  0.8429841E-005  0.2160459E+03  0.7546771E-02  0.1169344E+00
         21   -1    0    0  501  502  0.00000000000E+00  0.00000000000E+00  0.70212395266E+02  0.70212395266E+02  0.00000000000E+00 0. -1.
          1   -1    0    0  502    0 -0.00000000000E+00 -0.00000000000E+00 -0.10673190897E+04  0.10673190897E+04  0.00000000000E+00 0. -1.
         23    2    1    2    0    0 -0.38530199003E+02 -0.17275008116E+02 -0.98819579744E+02  0.14093570493E+03  0.91184217072E+02 0.  0.
        -24    2    1    2    0    0  0.48899523226E+02 -0.19059378468E+03 -0.34376559091E+03  0.40430271218E+03  0.81047809648E+02 0.  0.
         13    1    4    4    0    0  0.31012526725E+02 -0.18621098818E+03 -0.27821332581E+03  0.33621267613E+03  0.00000000000E+00 0. -1.
        -14    1    4    4    0    0  0.17886996500E+02 -0.43827965008E+01 -0.65552265100E+02  0.68090036046E+02  0.00000000000E+00 0.  1.
        -13    1    3    3    0    0  0.27748215614E+02  0.82225038725E+01 -0.35408377700E+02  0.45731020664E+02  0.00000000000E+00 0.  1.
         13    1    3    3    0    0 -0.66278414616E+02 -0.25497511989E+02 -0.63411202044E+02  0.95204684267E+02  0.00000000000E+00 0. -1.
          2    1    1    2  501    0 -0.10369324223E+02  0.20786879279E+03 -0.55452152381E+03  0.59229306789E+03  0.00000000000E+00 0. -1.
<scales pt_clust_5="13000.00000" pt_clust_6="13000.00000" pt_clust_7="13000.00000" pt_clust_8="13000.00000" pt_clust_9="200.26759"></scales>
<clustering>
<clus scale="   81.048">  5  6 -1 -1</clus>
<clus scale="   91.184">  7  8 -1 -1</clus>
<clus scale="  100.487">  2  7  1 -1</clus>
<clus scale="  200.268">  1  9  2 -1</clus>
<clus scale="  200.268">  1  5  2 -1</clus>
</clustering>
</event>
<event>
 9    1  0.8429841E-005  0.1911355E+03  0.7546771E-02  0.1157858E+00
         21   -1    0    0  501  502  0.00000000000E+00  0.00000000000E+00  0.26744568874E+03  0.26744568874E+03  0.00000000000E+00 0.  1.
          1   -1    0    0  502    0 -0.00000000000E+00 -0.00000000000E+00 -0.34242723399E+03  0.34242723399E+03  0.00000000000E+00 0. -1.
        -24    2    1    2    0    0  0.10934835514E+03 -0.12109997054E+03 -0.83271997547E+02  0.20250591018E+03  0.86325850378E+02 0.  0.
         23    2    1    2    0    0  0.19835389167E+02  0.22383967741E+03  0.76678475422E+01  0.24230861440E+03  0.90316249267E+02 0.  0.
         13    1    3    3    0    0  0.41926395057E+02 -0.57864076995E+01 -0.48711479815E+02  0.64529941750E+02  0.00000000000E+00 0. -1.
        -14    1    3    3    0    0  0.67421960086E+02 -0.11531356285E+03 -0.34560517732E+02  0.13797596843E+03  0.00000000000E+00 0.  1.
        -11    1    4    4    0    0 -0.33004762362E+02  0.61647904542E+02 -0.10698484404E+02  0.70740625114E+02  0.00000000000E+00 0. -1.
         11    1    4    4    0    0  0.52840151529E+02  0.16219177287E+03  0.18366331946E+02  0.17156798929E+03  0.00000000000E+00 0.  1.
          2    1    1    2  501    0 -0.12918374431E+03 -0.10273970687E+03  0.62260475106E+00  0.16505839814E+03  0.00000000000E+00 0. -1.
<scales pt_clust_5="13000.00000" pt_clust_6="13000.00000" pt_clust_7="13000.00000" pt_clust_8="13000.00000" pt_clust_9="165.05722"></scales>
<clustering>
<clus scale="   86.326">  5  6 -1 -1</clus>
<clus scale="   90.316">  7  8 -1 -1</clus>
<clus scale="  165.057">  1  9  2 -1</clus>
<clus scale="  189.283">  2  5  1 -1</clus>
<clus scale="  165.057">  1  5  2 -1</clus>
</clustering>
</event>
<event>
 9    1  0.8429841E-005  0.2382853E+03  0.7546771E-02  0.1152415E+00
          1   -1    0    0  502    0 -0.00000000000E+00  0.00000000000E+00  0.28717328527E+03  0.28717328527E+03  0.00000000000E+00 0. -1.
         21   -1    0    0  501  502  0.00000000000E+00 -0.00000000000E+00 -0.43562616686E+03  0.43562616686E+03  0.00000000000E+00 0. -1.
        -24    2    1    2    0    0 -0.45957158375E+02  0.61045934424E+02 -0.22597140861E+03  0.25176435881E+03  0.80520484009E+02 0.  0.
         23    2    1    2    0    0 -0.46289495430E+02 -0.24056521653E+03  0.26939826684E+02  0.26296101345E+03  0.91697325702E+02 0.  0.
         13    1    3    3    0    0 -0.17870739127E+02  0.74624121752E+02 -0.13121775897E+03  0.15200731277E+03  0.00000000000E+00 0. -1.
        -14    1    3    3    0    0 -0.28086419248E+02 -0.13578187327E+02 -0.94753649634E+02  0.99757046048E+02  0.00000000000E+00 0.  1.
        -13    1    4    4    0    0 -0.21185757919E+02 -0.13928392287E+03  0.60534385273E+02  0.15334033816E+03  0.00000000000E+00 0.  1.
         13    1    4    4    0    0 -0.25103737512E+02 -0.10128129366E+03 -0.33594558589E+02  0.10962067529E+03  0.00000000000E+00 0. -1.
          2    1    1    2  501    0  0.92246653805E+02  0.17951928211E+03  0.50578700336E+02  0.20807407987E+03  0.00000000000E+00 0. -1.
<scales pt_clust_5="13000.00000" pt_clust_6="13000.00000" pt_clust_7="13000.00000" pt_clust_8="13000.00000" pt_clust_9="219.93516"></scales>
<clustering>
<clus scale="   80.520">  5  6 -1 -1</clus>
<clus scale="   91.697">  7  8 -1 -1</clus>
<clus scale="  111.006">  1  5  2 -1</clus>
<clus scale="  219.935">  2  9  1 -1</clus>
<clus scale="  219.935">  2  5  1 -1</clus>
</clustering>
</event>
<event>
 9    1  0.8429841E-005  0.9419023E+02  0.7546771E-02  0.1294016E+00
         21   -1    0    0  501  502  0.00000000000E+00  0.00000000000E+00  0.38381586793E+02  0.38381586793E+02  0.00000000000E+00 0. -1.
          1   -1    0    0  502    0 -0.00000000000E+00 -0.00000000000E+00 -0.52620805470E+03  0.52620805470E+03  0.00000000000E+00 0. -1.
        -24    2    1    2    0    0  0.50714145704E+01  0.42212229810E+02 -0.26744111741E+03  0.28252146149E+03  0.80535913296E+02 0.  0.
         23    2    1    2    0    0  0.51264660518E+02 -0.64658060987E+02 -0.12557311391E+03  0.16952072823E+03  0.78485285843E+02 0.  0.
         13    1    3    3    0    0  0.13906890096E+02 -0.21625091293E+02 -0.59360149238E+02  0.64689052266E+02  0.00000000000E+00 0. -1.
        -14    1    3    3    0    0 -0.88354755254E+01  0.63837321103E+02 -0.20808096817E+03  0.21783240922E+03  0.00000000000E+00 0.  1.
        -11    1    4    4    0    0  0.24945724532E+02 -0.43955515561E+02 -0.13159713416E+02  0.52225995230E+02  0.00000000000E+00 0. -1.
         11    1    4    4    0    0  0.26318935987E+02 -0.20702545426E+02 -0.11241340050E+03  0.11729473300E+03  0.00000000000E+00 0.  1.
          2    1    1    2  501    0 -0.56336075089E+02  0.22445831176E+02 -0.94812236584E+02  0.11254745177E+03  0.00000000000E+00 0. -1.
<scales pt_clust_5="13000.00000" pt_clust_6="13000.00000" pt_clust_7="13000.00000" pt_clust_8="13000.00000" pt_clust_9="60.64296"></scales>
<clustering>
<clus scale="   60.643">  1  9  2 -1</clus>
<clus scale="   78.485">  7  8 -1 -1</clus>
<clus scale="   80.536">  5  6 -1 -1</clus>
<clus scale="   92.443">  1  7  2 -1</clus>
<clus scale="   60.643">  1  5  2 -1</clus>
</clustering>
</event>
<event>
 9    1  0.8429841E-005  0.1104935E+03  0.7546771E-02  0.1265020E+00
         -2   -1    0    0    0  501 -0.00000000000E+00  0.00000000000E+00  0.10341581766E+04  0.10341581766E+04  0.00000000000E+00 0.  1.
         21   -1    0    0  501  502  0.00000000000E+00 -0.00000000000E+00 -0.17961857718E+02  0.17961857718E+02  0.00000000000E+00 0.  1.
        -24    2    1    2    0    0  0.57174773302E+02 -0.52454111136E+02  0.56134399082E+03  0.57239114008E+03  0.80648327598E+02 0.  0.
         23    2    1    2    0    0 -0.31265899447E+02  0.18038848330E+02  0.38265634821E+03  0.39565785543E+03  0.93895160786E+02 0.  0.
         11    1    3    3    0    0  0.10066434020E+02  0.21112410484E+02  0.88096312480E+02  0.91148380363E+02  0.00000000000E+00 0. -1.
        -12    1    3    3    0    0  0.47108339282E+02 -0.73566521619E+02  0.47324767834E+03  0.48124275972E+03  0.00000000000E+00 0.  1.
        -13    1    4    4    0    0  0.87545467333E+00  0.52386520783E+02  0.17147863247E+03  0.17930430942E+03  0.00000000000E+00 0. -1.
         13    1    4    4    0    0 -0.32141354120E+02 -0.34347672453E+02  0.21117771574E+03  0.21635354601E+03  0.00000000000E+00 0.  1.
         -1    1    1    2    0  502 -0.25908873855E+02  0.34415262805E+02  0.72195979854E+02  0.84071038803E+02  0.00000000000E+00 0.  1.
<scales pt_clust_5="13000.00000" pt_clust_6="13000.00000" pt_clust_7="13000.00000" pt_clust_8="13000.00000" pt_clust_9="43.07761"></scales>
<clustering>
<clus scale="   43.078">  2  9  1 -1</clus>
<clus scale="   80.648">  5  6 -1 -1</clus>
<clus scale="   93.895">  7  8 -1 -1</clus>
<clus scale="   99.482">  1  5  2 -1</clus>
<clus scale="   43.078">  2  5  1 -1</clus>
</clustering>
</event>
<event>
 9    1  0.8429841E-005  0.9307839E+02  0.7546771E-02  0.1302155E+00
         -2   -1    0    0    0  501 -0.00000000000E+00  0.00000000000E+00  0.11547411144E+03  0.11547411144E+03  0.00000000000E+00 0.  1.
         21   -1    0    0  501  502  0.00000000000E+00 -0.00000000000E+00 -0.33954537667E+03  0.33954537667E+03  0.00000000000E+00 0. -1.
        -24    2    1    2    0    0  0.22474629141E+02 -0.49262977272E+01 -0.22121587417E+02  0.86468181983E+02  0.80361710418E+02 0.  0.
         23    2    1    2    0    0  0.41389269416E+01 -0.39437854885E+02 -0.26728784548E+03  0.28521142636E+03  0.91270423840E+02 0.  0.
         11    1    3    3    0    0  0.38257357284E+02 -0.32519379576E+02 -0.21642538995E+02  0.54676639697E+02  0.00000000000E+00 0. -1.
        -12    1    3    3    0    0 -0.15782728143E+02  0.27593081849E+02 -0.47904842222E+00  0.31791542287E+02  0.00000000000E+00 0.  1.
        -13    1    4    4    0    0  0.41007757634E+02 -0.19796074663E+01 -0.16715293878E+03  0.17212106197E+03  0.00000000000E+00 0. -1.
         13    1    4    4    0    0 -0.36868830692E+02 -0.37458247419E+02 -0.10013490671E+03  0.11309036439E+03  0.00000000000E+00 0.  1.
         -1    1    1    2    0  502 -0.26613556082E+02  0.44364152612E+02  0.65338167673E+02  0.83339879765E+02  0.00000000000E+00 0.  1.
<scales pt_clust_5="13000.00000" pt_clust_6="13000.00000" pt_clust_7="13000.00000" pt_clust_8="13000.00000" pt_clust_9="51.73453"></scales>
<clustering>
<clus scale="   51.735">  2  9  1 -1</clus>
<clus scale="   80.362">  5  6 -1 -1</clus>
<clus scale="   82.409">  1  5  2 -1</clus>
<clus scale="   91.270">  7  8 -1 -1</clus>
<clus scale="   51.735">  2  5  1 -1</clus>
</clustering>
</event>
<event>
 9    1  0.8429841E-005  0.4568093E+03  0.7546771E-02  0.1025711E+00
          1   -1    0    0  502    0 -0.00000000000E+00  0.00000000000E+00  0.86199486095E+03  0.86199486095E+03  0.00000000000E+00 0. -1.
         21   -1    0    0  501  502  0.00000000000E+00 -0.00000000000E+00 -0.21392927007E+03  0.21392927007E+03  0.00000000000E+00 0. -1.
        -24    2    1    2    0    0 -0.17737334511E+03 -0.23086649730E+03  0.17710704803E+03  0.34979116475E+03  0.78906966384E+02 0.  0.
         23    2    1    2    0    0 -0.72615604583E+02 -0.82788992987E+02  0.19316224548E+03  0.23823438624E+03  0.85539033902E+02 0.  0.
         11    1    3    3    0    0 -0.12737811755E+03 -0.18371643731E+03  0.95489432301E+02  0.24309493177E+03  0.00000000000E+00 0. -1.
        -12    1    3    3    0    0 -0.49995227556E+02 -0.47150059987E+02  0.81617615726E+02  0.10669623298E+03  0.00000000000E+00 0.  1.
        -13    1    4    4    0    0 -0.88700989800E+02 -0.49796675560E+02  0.15397170585E+03  0.18453959112E+03  0.00000000000E+00 0.  1.
         13    1    4    4    0    0  0.16085385217E+02 -0.32992317427E+02  0.39190539628E+02  0.53694795121E+02  0.00000000000E+00 0. -1.
          2    1    1    2  501    0  0.24998894969E+03  0.31365549029E+03  0.27779629738E+03  0.48789858003E+03  0.00000000000E+00 0. -1.
<scales pt_clust_5="13000.00000" pt_clust_6="13000.00000" pt_clust_7="13000.00000" pt_clust_8="13000.00000" pt_clust_9="401.09131"></scales>
<clustering>
<clus scale="   78.907">  5  6 -1 -1</clus>
<clus scale="   85.539">  7  8 -1 -1</clus>
<clus scale="  115.070">  5  7 -1 -1</clus>
<clus scale="  401.091">  2  9  1 -1</clus>
<clus scale="  401.091">  2  5  1 -1</clus>
</clustering>
</event>
<event>
 9    1  0.8429841E-005  0.1081678E+03  0.7546771E-02  0.1269787E+00
         -2   -1    0    0    0  501 -0.00000000000E+00  0.00000000000E+00  0.48160898030E+02  0.48160898030E+02  0.00000000000E+00 0.  1.
         21   -1    0    0  501  502  0.00000000000E+00 -0.00000000000E+00 -0.37060965264E+03  0.37060965264E+03  0.00000000000E+00 0. -1.
        -24    2    1    2    0    0  0.51751249830E+02 -0.68076748826E+00 -0.45201316246E+02  0.10532222130E+03  0.79818268625E+02 0.  0.
         23    2    1    2    0    0 -0.60060032750E+02  0.28953480600E+02 -0.19747128632E+03  0.22840353755E+03  0.93422456998E+02 0.  0.
         11    1    3    3    0    0 -0.14272124342E+02  0.21208359016E+02 -0.12781822810E+02  0.28580815589E+02  0.00000000000E+00 0. -1.
        -12    1    3    3    0    0  0.66023374173E+02 -0.21889126504E+02 -0.32419493436E+02  0.76741405713E+02  0.00000000000E+00 0.  1.
        -13    1    4    4    0    0  0.22526573756E+02  0.17485005828E+02 -0.75052145490E+02  0.80286963429E+02  0.00000000000E+00 0.  1.
         13    1    4    4    0    0 -0.82586606506E+02  0.11468474772E+02 -0.12241914083E+03  0.14811657412E+03  0.00000000000E+00 0. -1.
         -1    1    1    2    0  502  0.83087829196E+01 -0.28272713112E+02 -0.79776152044E+02  0.85044791818E+02  0.00000000000E+00 0.  1.
<scales pt_clust_5="13000.00000" pt_clust_6="13000.00000" pt_clust_7="13000.00000" pt_clust_8="13000.00000" pt_clust_9="29.46833"></scales>
<clustering>
<clus scale="   29.468">  2  9  1 -1</clus>
<clus scale="   79.818">  5  6 -1 -1</clus>
<clus scale="   93.422">  7  8 -1 -1</clus>
<clus scale="   96.662">  1  5  2 -1</clus>
<clus scale="   29.468">  2  5  1 -1</clus>
</clustering>
</event>
<event>
 9    1  0.8429841E-005  0.9460238E+02  0.7546771E-02  0.1296042E+00
          1   -1    0    0  502    0 -0.00000000000E+00  0.00000000000E+00  0.22409123207E+03  0.22409123207E+03  0.00000000000E+00 0. -1.
         21   -1    0    0  501  502  0.00000000000E+00 -0.00000000000E+00 -0.85275067202E+02  0.85275067202E+02  0.00000000000E+00 0. -1.
         23    2    1    2    0    0  0.34699351981E+02 -0.25049257943E+01  0.12218966082E+03  0.15591217184E+03  0.90376835718E+02 0.  0.
        -24    2    1    2    0    0 -0.26214585737E+01 -0.35262592791E+02 -0.18943752952E+02  0.92457243185E+02  0.83301581895E+02 0.  0.
         13    1    4    4    0    0 -0.33524629492E+02 -0.21265703907E+02 -0.36788506698E+02  0.54125088178E+02  0.00000000000E+00 0. -1.
        -14    1    4    4    0    0  0.30903170919E+02 -0.13996888883E+02  0.17844753746E+02  0.38332155007E+02  0.00000000000E+00 0.  1.
        -11    1    3    3    0    0  0.56298422622E+02  0.20747731321E+02  0.10187510755E+03  0.11823078399E+03  0.00000000000E+00 0. -1.
         11    1    3    3    0    0 -0.21599070641E+02 -0.23252657115E+02  0.20314553271E+02  0.37681387847E+02  0.00000000000E+00 0.  1.
          2    1    1    2  501    0 -0.32077893407E+02  0.37767518585E+02  0.35570257006E+02  0.60996884256E+02  0.00000000000E+00 0. -1.
<scales pt_clust_5="13000.00000" pt_clust_6="13000.00000" pt_clust_7="13000.00000" pt_clust_8="13000.00000" pt_clust_9="49.55178"></scales>
<clustering>
<clus scale="   49.552">  2  9  1 -1</clus>
<clus scale="   83.302">  5  6 -1 -1</clus>
<clus scale="   87.868">  2  5  1 -1</clus>
<clus scale="   90.377">  7  8 -1 -1</clus>
<clus scale="   49.552">  2  5  1 -1</clus>
</clustering>
</event>
<event>
 9    1  0.8429841E-005  0.9349101E+02  0.7546771E-02  0.1299786E+00
          1   -1    0    0  502    0 -0.00000000000E+00  0.00000000000E+00  0.22560093991E+03  0.22560093991E+03  0.00000000000E+00 0. -1.
         21   -1    0    0  501  502  0.00000000000E+00 -0.00000000000E+00 -0.83268702371E+02  0.83268702371E+02  0.00000000000E+00 0. -1.
         23    2    1    2    0    0 -0.49804846119E+01  0.16527280078E+02  0.14956541161E+03  0.17561593988E+03  0.90405695477E+02 0.  0.
        -24    2    1    2    0    0  0.34306431410E+02 -0.38254365920E+02 -0.21559711053E+01  0.96404612797E+02  0.81540624287E+02 0.  0.
         11    1    4    4    0    0  0.46938781199E+02  0.28878075564E+01  0.16026763376E+02  0.49683455568E+02  0.00000000000E+00 0. -1.
        -12    1    4    4    0    0 -0.12632349789E+02 -0.41142173476E+02 -0.18182734482E+02  0.46721157229E+02  0.00000000000E+00 0.  1.
        -11    1    3    3    0    0 -0.31103117464E+02 -0.21723597964E+02  0.33361059199E+02  0.50520084079E+02  0.00000000000E+00 0.  1.
         11    1    3    3    0    0  0.26122632852E+02  0.38250878042E+02  0.11620435242E+03  0.12509585580E+03  0.00000000000E+00 0. -1.
          2    1    1    2  501    0 -0.29325946798E+02  0.21727085842E+02 -0.50772029691E+01  0.36849089606E+02  0.00000000000E+00 0. -1.
<scales pt_clust_5="13000.00000" pt_clust_6="13000.00000" pt_clust_7="13000.00000" pt_clust_8="13000.00000" pt_clust_9="36.49764"></scales>
<clustering>
<clus scale="   36.498">  2  9  1 -1</clus>
<clus scale="   81.541">  5  6 -1 -1</clus>
<clus scale="   84.949">  2  5  1 -1</clus>
<clus scale="   90.406">  7  8 -1 -1</clus>
<clus scale="   36.498">  2  5  1 -1</clus>
</clustering>
</event>
<event>
 9    1  0.8429841E-005  0.1593722E+03  0.7546771E-02  0.1189414E+00
         21   -1    0    0  501  502  0.00000000000E+00  0.00000000000E+00  0.10587269135E+03  0.10587269135E+03  0.00000000000E+00 0.  1.
          3   -1    0    0  502    0 -0.00000000000E+00 -0.00000000000E+00 -0.75184012704E+03  0.75184012704E+03  0.00000000000E+00 0. -1.
         23    2    1    2    0    0 -0.91714886013E+02 -0.95249262186E+02 -0.58715574953E+03  0.60886979904E+03  0.92122286712E+02 0.  0.
        -24    2    1    2    0    0  0.29593574150E+02  0.13223207728E+03 -0.65065130878E+02  0.17627655623E+03  0.92080677279E+02 0.  0.
         11    1    4    4    0    0  0.89648700602E+01  0.13279863491E+03 -0.75635844221E+02  0.15309025854E+03  0.00000000000E+00 0. -1.
        -12    1    4    4    0    0  0.20628704090E+02 -0.56655763210E+00  0.10570713343E+02  0.23186297690E+02  0.00000000000E+00 0.  1.
        -13    1    3    3    0    0 -0.58224640985E+02 -0.83116216642E+02 -0.54168152906E+03  0.55110551913E+03  0.00000000000E+00 0. -1.
         13    1    3    3    0    0 -0.33490245028E+02 -0.12133045544E+02 -0.45474220472E+02  0.57764279912E+02  0.00000000000E+00 0.  1.
          4    1    1    2  501    0  0.62121311863E+02 -0.36982815091E+02  0.62534447164E+01  0.72566463125E+02  0.00000000000E+00 0. -1.
<scales pt_clust_5="13000.00000" pt_clust_6="13000.00000" pt_clust_7="13000.00000" pt_clust_8="13000.00000" pt_clust_9="72.29651"></scales>
<clustering>
<clus scale="   72.297">  1  9  2 -1</clus>
<clus scale="   92.081">  5  6 -1 -1</clus>
<clus scale="   92.122">  7  8 -1 -1</clus>
<clus scale="  159.348">  1  5  2 -1</clus>
<clus scale="   72.297">  1  5  2 -1</clus>
</clustering>
</event>
<event>
 9    1  0.8429841E-005  0.2672964E+03  0.7546771E-02  0.1118743E+00
         21   -1    0    0  501  502  0.00000000000E+00  0.00000000000E+00  0.71724822063E+02  0.71724822063E+02  0.00000000000E+00 0. -1.
          1   -1    0    0  502    0 -0.00000000000E+00 -0.00000000000E+00 -0.19786363828E+04  0.19786363828E+04  0.00000000000E+00 0. -1.
        -24    2    1    2    0    0 -0.26537207113E+02  0.15836962122E+03 -0.25974468472E+03  0.31508435891E+03  0.77625329009E+02 0.  0.
         23    2    1    2    0    0 -0.23186048028E+03 -0.40731418125E+02 -0.94122729403E+03  0.97438342038E+03  0.89977220124E+02 0.  0.
         11    1    3    3    0    0 -0.17410186051E+02  0.14254312225E+03 -0.25976393410E+03  0.29681468586E+03  0.00000000000E+00 0. -1.
        -12    1    3    3    0    0 -0.91270210618E+01  0.15826498961E+02  0.19249384131E-01  0.18269673050E+02  0.00000000000E+00 0.  1.
        -11    1    4    4    0    0 -0.20415814025E+02 -0.24571868040E+02 -0.59724566456E+02  0.67731868420E+02  0.00000000000E+00 0.  1.
         11    1    4    4    0    0 -0.21144466625E+03 -0.16159550085E+02 -0.88150272757E+03  0.90665155196E+03  0.00000000000E+00 0. -1.
          2    1    1    2  501    0  0.25839768739E+03 -0.11763820309E+03 -0.70593958203E+03  0.76089342562E+03  0.00000000000E+00 0. -1.
<scales pt_clust_5="13000.00000" pt_clust_6="13000.00000" pt_clust_7="13000.00000" pt_clust_8="13000.00000" pt_clust_9="251.69720"></scales>
<clustering>
<clus scale="   77.625">  5  6 -1 -1</clus>
<clus scale="   89.977">  7  8 -1 -1</clus>
<clus scale="  178.356">  2  5  1 -1</clus>
<clus scale="  251.697">  1  9  2 -1</clus>
<clus scale="  251.697">  1  5  2 -1</clus>
</clustering>
</event>
<event>
 9    1  0.8429841E-005  0.1581839E+03  0.7546771E-02  0.1193805E+00
         21   -1    0    0  501  502  0.00000000000E+00  0.00000000000E+00  0.62516291712E+02  0.62516291712E+02  0.00000000000E+00 0. -1.
          1   -1    0    0  502    0 -0.00000000000E+00 -0.00000000000E+00 -0.12038298170E+04  0.12038298170E+04  0.00000000000E+00 0. -1.
        -24    2    1    2    0    0  0.36793000441E+02 -0.13556612602E+03 -0.62059484975E+03  0.64102174578E+03  0.77711077855E+02 0.  0.
         23    2    1    2    0    0  0.11789894569E+03  0.10251254571E+03 -0.33553639656E+03  0.38177844567E+03  0.93600879987E+02 0.  0.
         13    1    3    3    0    0  0.29611916229E+02 -0.14042902505E+03 -0.61273227482E+03  0.62931551488E+03  0.00000000000E+00 0. -1.
        -14    1    3    3    0    0  0.71810842119E+01  0.48628990277E+01 -0.78625749271E+01  0.11706230901E+02  0.00000000000E+00 0.  1.
        -11    1    4    4    0    0  0.89742920824E+01  0.23674265051E+02 -0.15290634911E+03  0.15498825872E+03  0.00000000000E+00 0.  1.
         11    1    4    4    0    0  0.10892465361E+03  0.78838280654E+02 -0.18263004745E+03  0.22679018694E+03  0.00000000000E+00 0. -1.
          2    1    1    2  501    0 -0.15469194613E+03  0.33053580313E+02 -0.18518227897E+03  0.24354591726E+03  0.00000000000E+00 0. -1.
<scales pt_clust_5="13000.00000" pt_clust_6="13000.00000" pt_clust_7="13000.00000" pt_clust_8="13000.00000" pt_clust_9="158.18387"></scales>
<clustering>
<clus scale="   77.711">  5  6 -1 -1</clus>
<clus scale="   93.601">  7  8 -1 -1</clus>
<clus scale="  158.184">  1  9  2 -1</clus>
<clus scale="  147.940">  2  5  1 -1</clus>
<clus scale="  158.184">  1  5  2 -1</clus>
</clustering>
</event>
<event>
 9    1  0.8429841E-005  0.2342616E+03  0.7546771E-02  0.1124929E+00
          1   -1    0    0  502    0 -0.00000000000E+00  0.00000000000E+00  0.15293742991E+04  0.15293742991E+04  0.00000000000E+00 0. -1.
         21   -1    0    0  501  502  0.00000000000E+00 -0.00000000000E+00 -0.40929864265E+02  0.40929864265E+02  0.00000000000E+00 0. -1.
        -24    2    1    2    0    0 -0.20283897904E+03  0.99351657837E+02  0.78577481410E+03  0.82161688712E+03  0.81227134594E+02 0.  0.
         23    2    1    2    0    0  0.18575083332E+03 -0.66424245733E+02  0.58673339383E+03  0.62696041849E+03  0.99537623093E+02 0.  0.
         11    1    3    3    0    0 -0.10573134774E+03  0.90608415544E+02  0.39362485000E+03  0.41752787380E+03  0.00000000000E+00 0. -1.
        -12    1    3    3    0    0 -0.97107631294E+02  0.87432422922E+01  0.39214996410E+03  0.40408901332E+03  0.00000000000E+00 0.  1.
        -13    1    4    4    0    0  0.92267615212E+01  0.20692952531E+02  0.41533856982E+02  0.47311654889E+02  0.00000000000E+00 0.  1.
         13    1    4    4    0    0  0.17652407180E+03 -0.87117198264E+02  0.54519953685E+03  0.57964876360E+03  0.00000000000E+00 0. -1.
          2    1    1    2  501    0  0.17088145717E+02 -0.32927412103E+02  0.11593622694E+03  0.12172685779E+03  0.00000000000E+00 0. -1.
<scales pt_clust_5="13000.00000" pt_clust_6="13000.00000" pt_clust_7="13000.00000" pt_clust_8="13000.00000" pt_clust_9="37.09745"></scales>
<clustering>
<clus scale="   37.097">  2  9  1 -1</clus>
<clus scale="   81.227">  5  6 -1 -1</clus>
<clus scale="   99.538">  7  8 -1 -1</clus>
<clus scale="  227.087">  1  5  2 -1</clus>
<clus scale="   37.097">  2  5  1 -1</clus>
</clustering>
</event>
<event>
 9    1  0.8429841E-005  0.1210443E+03  0.7546771E-02  0.1244193E+00
          1   -1    0    0  502    0 -0.00000000000E+00  0.00000000000E+00  0.42068703705E+03  0.42068703705E+03  0.00000000000E+00 0. -1.
         21   -1    0    0  501  502  0.00000000000E+00 -0.00000000000E+00 -0.51573817653E+02  0.51573817653E+02  0.00000000000E+00 0. -1.
         23    2    1    2    0    0  0.56933883800E+02  0.80000681848E+02  0.17790456243E+03  0.22266565795E+03  0.91040571596E+02 0.  0.
        -24    2    1    2    0    0 -0.28488751646E+02 -0.51358332349E+02  0.72420402579E+02  0.12413540595E+03  0.81948746350E+02 0.  0.
         13    1    4    4    0    0 -0.53172354720E+02 -0.31914059210E+02  0.68609598941E+02  0.92482882463E+02  0.00000000000E+00 0. -1.
        -14    1    4    4    0    0  0.24683603074E+02 -0.19444273139E+02  0.38108036377E+01  0.31652523486E+02  0.00000000000E+00 0.  1.
        -13    1    3    3    0    0  0.25287798745E+02  0.65893553750E+02  0.41384662292E+02  0.81817623189E+02  0.00000000000E+00 0.  1.
         13    1    3    3    0    0  0.31646085055E+02  0.14107128098E+02  0.13651990014E+03  0.14084803476E+03  0.00000000000E+00 0. -1.
          2    1    1    2  501    0 -0.28445132154E+02 -0.28642349499E+02  0.11878825439E+03  0.12545979080E+03  0.00000000000E+00 0. -1.
<scales pt_clust_5="13000.00000" pt_clust_6="13000.00000" pt_clust_7="13000.00000" pt_clust_8="13000.00000" pt_clust_9="40.36721"></scales>
<clustering>
<clus scale="   40.367">  2  9  1 -1</clus>
<clus scale="   81.949">  5  6 -1 -1</clus>
<clus scale="   91.041">  7  8 -1 -1</clus>
<clus scale="  114.363">  2  5  1 -1</clus>
<clus scale="   40.367">  2  5  1 -1</clus>
</clustering>
</event>
<event>
 9    1  0.8429841E-005  0.3949986E+03  0.7546771E-02  0.1045525E+00
          1   -1    0    0  502    0 -0.00000000000E+00  0.00000000000E+00  0.14758271886E+04  0.14758271886E+04  0.00000000000E+00 0. -1.
         21   -1    0    0  501  502  0.00000000000E+00 -0.00000000000E+00 -0.86791373047E+02  0.86791373047E+02  0.00000000000E+00 0. -1.
        -24    2    1    2    0    0  0.18853300898E+03 -0.34291247953E+02  0.59332126864E+03  0.62877421193E+03  0.81279127744E+02 0.  0.
         23    2    1    2    0    0  0.13168714824E+03  0.22909913725E+02  0.19849080683E+03  0.25609315674E+03  0.91207101566E+02 0.  0.
         11    1    3    3    0    0  0.14384788960E+03  0.83785962991E+01  0.45524766219E+03  0.47750691110E+03  0.00000000000E+00 0. -1.
        -12    1    3    3    0    0  0.44685119386E+02 -0.42669844252E+02  0.13807360644E+03  0.15126730083E+03  0.00000000000E+00 0.  1.
        -13    1    4    4    0    0  0.13263254079E+03  0.44734200196E+02  0.17173367691E+03  0.22155133791E+03  0.00000000000E+00 0. -1.
         13    1    4    4    0    0 -0.94539254619E+00 -0.21824286471E+02  0.26757129915E+02  0.34541818834E+02  0.00000000000E+00 0.  1.
          2    1    1    2  501    0 -0.32022015723E+03  0.11381334228E+02  0.59722374012E+03  0.67775119301E+03  0.00000000000E+00 0. -1.
<scales pt_clust_5="13000.00000" pt_clust_6="13000.00000" pt_clust_7="13000.00000" pt_clust_8="13000.00000" pt_clust_9="320.42235"></scales>
<clustering>
<clus scale="   81.279">  5  6 -1 -1</clus>
<clus scale="   91.207">  7  8 -1 -1</clus>
<clus scale="  154.765">  5  7 -1 -1</clus>
<clus scale="  320.422">  2  9  1 -1</clus>
<clus scale="  320.422">  2  5  1 -1</clus>
</clustering>
</event>
<event>
 9    1  0.8429841E-005  0.9251412E+02  0.7546771E-02  0.1302954E+00
          1   -1    0    0  502    0 -0.00000000000E+00  0.00000000000E+00  0.12763862890E+03  0.12763862890E+03  0.00000000000E+00 0. -1.
         21   -1    0    0  501  502  0.00000000000E+00 -0.00000000000E+00 -0.43111320820E+03  0.43111320820E+03  0.00000000000E+00 0. -1.
        -24    2    1    2    0    0 -0.21424847429E+02  0.11167109900E+02  0.77030898362E+02  0.11340703262E+03  0.79647142540E+02 0.  0.
         23    2    1    2    0    0 -0.35084728766E+02 -0.57955742284E+02 -0.85323842562E+02  0.14118250236E+03  0.89791617695E+02 0.  0.
         13    1    3    3    0    0 -0.12778973780E+02  0.30737664220E+02  0.84440446979E+02  0.90765055273E+02  0.00000000000E+00 0. -1.
        -14    1    3    3    0    0 -0.86458736492E+01 -0.19570554321E+02 -0.74095486169E+01  0.22641977349E+02  0.00000000000E+00 0.  1.
        -13    1    4    4    0    0  0.20030944817E+02 -0.92921975745E+01  0.69950449823E+01  0.23162779202E+02  0.00000000000E+00 0.  1.
         13    1    4    4    0    0 -0.55115673583E+02 -0.48663544710E+02 -0.92318887544E+02  0.11801972316E+03  0.00000000000E+00 0. -1.
          2    1    1    2  501    0  0.56509576195E+02  0.46788632385E+02 -0.29518163510E+03  0.30416230211E+03  0.00000000000E+00 0. -1.
<scales pt_clust_5="13000.00000" pt_clust_6="13000.00000" pt_clust_7="13000.00000" pt_clust_8="13000.00000" pt_clust_9="73.36558"></scales>
<clustering>
<clus scale="   73.366">  2  9  1 -1</clus>
<clus scale="   79.647">  5  6 -1 -1</clus>
<clus scale="   82.704">  1  5  2 -1</clus>
<clus scale="   89.792">  7  8 -1 -1</clus>
<clus scale="   73.366">  2  5  1 -1</clus>
</clustering>
</event>
<event>
 9    1  0.8429841E-005  0.8803755E+02  0.7546771E-02  0.1313005E+00
          1   -1    0    0  502    0 -0.00000000000E+00  0.00000000000E+00  0.35816912627E+03  0.35816912627E+03  0.00000000000E+00 0. -1.
         21   -1    0    0  501  502  0.00000000000E+00 -0.00000000000E+00 -0.34045356056E+02  0.34045356056E+02  0.00000000000E+00 0. -1.
         23    2    1    2    0    0 -0.18819678793E+02 -0.26689715130E+02  0.14342532671E+03  0.16409205126E+03  0.72724519535E+02 0.  0.
        -24    2    1    2    0    0  0.44284625362E+02  0.30326094370E+01  0.83426601719E+02  0.12482706158E+03  0.81556561133E+02 0.  0.
         13    1    4    4    0    0  0.23247287486E+02 -0.37386229733E+02  0.24646846079E+02  0.50454272077E+02  0.00000000000E+00 0. -1.
        -14    1    4    4    0    0  0.21037337876E+02  0.40418839170E+02  0.58779755640E+02  0.74372789499E+02  0.00000000000E+00 0.  1.
        -11    1    3    3    0    0  0.21841707697E+02  0.10485686051E+02  0.51637859462E+02  0.57039270129E+02  0.00000000000E+00 0.  1.
         11    1    3    3    0    0 -0.40661386490E+02 -0.37175401181E+02  0.91787467247E+02  0.10705278113E+03  0.00000000000E+00 0. -1.
          2    1    1    2  501    0 -0.25464946569E+02  0.23657105693E+02  0.97271841783E+02  0.10329536949E+03  0.00000000000E+00 0. -1.
<scales pt_clust_5="13000.00000" pt_clust_6="13000.00000" pt_clust_7="13000.00000" pt_clust_8="13000.00000" pt_clust_9="34.75807"></scales>
<clustering>
<clus scale="   34.758">  2  9  1 -1</clus>
<clus scale="   72.725">  7  8 -1 -1</clus>
<clus scale="   79.925">  1  7  2 -1</clus>
<clus scale="   81.557">  5  6 -1 -1</clus>
<clus scale="   34.758">  2  5  1 -1</clus>
</clustering>
</event>
<event>
 9    1  0.8429841E-005  0.9617878E+02  0.7546771E-02  0.1294932E+00
         21   -1    0    0  501  502  0.00000000000E+00  0.00000000000E+00  0.27401756333E+03  0.27401756333E+03  0.00000000000E+00 0. -1.
          1   -1    0    0  502    0 -0.00000000000E+00 -0.00000000000E+00 -0.16095192521E+03  0.16095192521E+03  0.00000000000E+00 0. -1.
         23    2    1    2    0    0  0.18399043392E+01 -0.81756643566E+01 -0.58850240840E+02  0.10878515854E+03  0.91107810505E+02 0.  0.
        -24    2    1    2    0    0 -0.75026696181E+02  0.17899262768E+02 -0.26937038089E+02  0.11406799993E+03  0.79602235139E+02 0.  0.
         13    1    4    4    0    0 -0.57058767457E+02  0.48225860830E+02 -0.11511095192E+02  0.75590620510E+02  0.00000000000E+00 0. -1.
        -14    1    4    4    0    0 -0.17967928724E+02 -0.30326598062E+02 -0.15425942897E+02  0.38477379418E+02  0.00000000000E+00 0.  1.
        -13    1    3    3    0    0 -0.23949696857E+02 -0.82197020994E+01 -0.74454371761E+02  0.78642259355E+02  0.00000000000E+00 0. -1.
         13    1    3    3    0    0  0.25789601196E+02  0.44037742871E-01  0.15604130922E+02  0.30142899180E+02  0.00000000000E+00 0.  1.
          2    1    1    2  501    0  0.73186791842E+02 -0.97235984111E+01  0.19885291705E+03  0.21211633007E+03  0.00000000000E+00 0. -1.
<scales pt_clust_5="13000.00000" pt_clust_6="13000.00000" pt_clust_7="13000.00000" pt_clust_8="13000.00000" pt_clust_9="73.82990"></scales>
<clustering>
<clus scale="   73.830">  1  9  2 -1</clus>
<clus scale="   79.602">  5  6 -1 -1</clus>
<clus scale="   85.359">  1  5  2 -1</clus>
<clus scale="   91.108">  7  8 -1 -1</clus>
<clus scale="   73.830">  1  5  2 -1</clus>
</clustering>
</event>
<event>
 9    1  0.8429841E-005  0.9960451E+02  0.7546771E-02  0.1284695E+00
         21   -1    0    0  501  502  0.00000000000E+00  0.00000000000E+00  0.21789710608E+02  0.21789710608E+02  0.00000000000E+00 0. -1.
          1   -1    0    0  502    0 -0.00000000000E+00 -0.00000000000E+00 -0.57447135726E+03  0.57447135726E+03  0.00000000000E+00 0. -1.
         23    2    1    2    0    0 -0.15294801971E+01  0.46126360061E+02 -0.30384549031E+03  0.32078849110E+03  0.91941251009E+02 0.  0.
        -24    2    1    2    0    0 -0.74016979987E+01 -0.26934349307E+02 -0.15162880448E+03  0.17598705784E+03  0.84852259092E+02 0.  0.
         13    1    4    4    0    0  0.21650525066E+02  0.18072707070E+02 -0.22138753619E+02  0.35853763935E+02  0.00000000000E+00 0. -1.
        -14    1    4    4    0    0 -0.29052223065E+02 -0.45007056377E+02 -0.12949005086E+03  0.14013329390E+03  0.00000000000E+00 0.  1.
        -13    1    3    3    0    0 -0.42430641232E+02  0.94563784751E+01 -0.89256053534E+02  0.99279532138E+02  0.00000000000E+00 0.  1.
         13    1    3    3    0    0  0.40901161035E+02  0.36669981586E+02 -0.21458943677E+03  0.22150895896E+03  0.00000000000E+00 0. -1.
          2    1    1    2  501    0  0.89311781958E+01 -0.19192010753E+02 -0.97207351867E+02  0.99485518935E+02  0.00000000000E+00 0. -1.
<scales pt_clust_5="13000.00000" pt_clust_6="13000.00000" pt_clust_7="13000.00000" pt_clust_8="13000.00000" pt_clust_9="21.16836"></scales>
<clustering>
<clus scale="   21.168">  1  9  2 -1</clus>
<clus scale="   84.852">  5  6 -1 -1</clus>
<clus scale="   91.941">  7  8 -1 -1</clus>
<clus scale="   93.101">  1  5  2 -1</clus>
<clus scale="   21.168">  1  5  2 -1</clus>
</clustering>
</event>
<event>
 9    1  0.8429841E-005  0.1008053E+03  0.7546771E-02  0.1284775E+00
          1   -1    0    0  502    0 -0.00000000000E+00  0.00000000000E+00  0.12910375667E+03  0.12910375667E+03  0.00000000000E+00 0. -1.
         21   -1    0    0  501  502  0.00000000000E+00 -0.00000000000E+00 -0.16740138851E+03  0.16740138851E+03  0.00000000000E+00 0. -1.
        -24    2    1    2    0    0  0.12536337021E+01  0.40934463201E+02  0.43856227811E+02  0.99367387203E+02  0.79204211042E+02 0.  0.
         23    2    1    2    0    0  0.23144037963E+02 -0.42054311929E+02  0.79982858112E+01  0.10373588553E+03  0.91613043431E+02 0.  0.
         11    1    3    3    0    0  0.11085515514E+02  0.39116763975E+02  0.64605927544E+02  0.76334368091E+02  0.00000000000E+00 0. -1.
        -12    1    3    3    0    0 -0.98318818119E+01  0.18176992263E+01 -0.20749699732E+02  0.23033019112E+02  0.00000000000E+00 0.  1.
        -13    1    4    4    0    0  0.42007927506E+02 -0.33080661585E+02 -0.29311098496E+02  0.60976525313E+02  0.00000000000E+00 0.  1.
         13    1    4    4    0    0 -0.18863889543E+02 -0.89736503441E+01  0.37309384307E+02  0.42759360222E+02  0.00000000000E+00 0. -1.
          2    1    1    2  501    0 -0.24397671665E+02  0.11198487276E+01 -0.90152145465E+02  0.93401872443E+02  0.00000000000E+00 0. -1.
<scales pt_clust_5="13000.00000" pt_clust_6="13000.00000" pt_clust_7="13000.00000" pt_clust_8="13000.00000" pt_clust_9="24.42336"></scales>
<clustering>
<clus scale="   24.423">  2  9  1 -1</clus>
<clus scale="   79.204">  5  6 -1 -1</clus>
<clus scale="   89.678">  1  5  2 -1</clus>
<clus scale="   91.613">  7  8 -1 -1</clus>
<clus scale="   24.423">  2  5  1 -1</clus>
</clustering>
</event>
<event>
 9    1  0.8429841E-005  0.2778373E+03  0.7546771E-02  0.1122323E+00
         -4   -1    0    0    0  501 -0.00000000000E+00  0.00000000000E+00  0.80247238638E+03  0.80247238638E+03  0.00000000000E+00 0.  1.
         21   -1    0    0  501  502  0.00000000000E+00 -0.00000000000E+00 -0.15900724431E+03  0.15900724431E+03  0.00000000000E+00 0.  1.
        -24    2    1    2    0    0  0.45536490657E+02  0.11181449330E+03  0.23480027280E+03  0.27608265010E+03  0.80711886896E+02 0.  0.
         23    2    1    2    0    0 -0.28182442906E+03 -0.61003802893E+02  0.24025368744E+03  0.39081924508E+03  0.10895584065E+03 0.  0.
         13    1    3    3    0    0  0.57432464365E+02  0.76214707294E+02  0.10934487273E+03  0.14513259718E+03  0.00000000000E+00 0. -1.
        -14    1    3    3    0    0 -0.11895973708E+02  0.35599786005E+02  0.12545540007E+03  0.13095005292E+03  0.00000000000E+00 0.  1.
        -13    1    4    4    0    0 -0.84359238821E+01  0.20177370144E+02  0.89791819690E+01  0.23641420992E+02  0.00000000000E+00 0. -1.
         13    1    4    4    0    0 -0.27338850517E+03 -0.81181173037E+02  0.23127450548E+03  0.36717782409E+03  0.00000000000E+00 0.  1.
         -3    1    1    2    0  502  0.23628793840E+03 -0.50810690406E+02  0.16841118183E+03  0.29457773551E+03  0.00000000000E+00 0.  1.
<scales pt_clust_5="13000.00000" pt_clust_6="13000.00000" pt_clust_7="13000.00000" pt_clust_8="13000.00000" pt_clust_9="255.58210"></scales>
<clustering>
<clus scale="   80.712">  5  6 -1 -1</clus>
<clus scale="  108.956">  7  8 -1 -1</clus>
<clus scale="  145.226">  1  5  2 -1</clus>
<clus scale="  255.582">  2  9  1 -1</clus>
<clus scale="  255.582">  2  5  1 -1</clus>
</clustering>
</event>
<event>
 9    1  0.8429841E-005  0.1119899E+03  0.7546771E-02  0.1260871E+00
         21   -1    0    0  501  502  0.00000000000E+00  0.00000000000E+00  0.73710848646E+02  0.73710848646E+02  0.00000000000E+00 0.  1.
         -2   -1    0    0    0  501 -0.00000000000E+00 -0.00000000000E+00 -0.29245703790E+03  0.29245703790E+03  0.00000000000E+00 0.  1.
        -24    2    1    2    0    0 -0.77782535208E+02 -0.10958737107E+02 -0.12642469902E+03  0.16957227974E+03  0.81248611249E+02 0.  0.
         23    2    1    2    0    0  0.36319378263E+02 -0.18580120954E+02 -0.11397615197E+02  0.10099010974E+03  0.91677579052E+02 0.  0.
         13    1    3    3    0    0 -0.40010526332E+01 -0.34141622205E+02 -0.27605487687E+02  0.44087659718E+02  0.00000000000E+00 0. -1.
        -14    1    3    3    0    0 -0.73781482575E+02  0.23182885098E+02 -0.98819211336E+02  0.12548462002E+03  0.00000000000E+00 0.  1.
        -13    1    4    4    0    0  0.16072862985E+02  0.22042436207E+02  0.29295758481E+02  0.40030580603E+02  0.00000000000E+00 0.  1.
         13    1    4    4    0    0  0.20246515278E+02 -0.40622557161E+02 -0.40693373677E+02  0.60959529136E+02  0.00000000000E+00 0. -1.
         -1    1    1    2    0  502  0.41463156945E+02  0.29538858061E+02 -0.80923875032E+02  0.95605497068E+02  0.00000000000E+00 0.  1.
<scales pt_clust_5="13000.00000" pt_clust_6="13000.00000" pt_clust_7="13000.00000" pt_clust_8="13000.00000" pt_clust_9="50.90914"></scales>
<clustering>
<clus scale="   50.909">  1  9  2 -1</clus>
<clus scale="   81.249">  5  6 -1 -1</clus>
<clus scale="   91.678">  7  8 -1 -1</clus>
<clus scale="  103.626">  2  5  1 -1</clus>
<clus scale="   50.909">  1  5  2 -1</clus>
</clustering>
</event>
<event>
 9    1  0.8429841E-005  0.1037634E+03  0.7546771E-02  0.1275135E+00
         21   -1    0    0  501  502  0.00000000000E+00  0.00000000000E+00  0.23069223215E+03  0.23069223215E+03  0.00000000000E+00 0.  1.
          1   -1    0    0  502    0 -0.00000000000E+00 -0.00000000000E+00 -0.17595803104E+03  0.17595803104E+03  0.00000000000E+00 0. -1.
        -24    2    1    2    0    0 -0.39780412774E+02 -0.46689144033E+02 -0.65251457539E+02  0.12028796948E+03  0.80306198264E+02 0.  0.
         23    2    1    2    0    0 -0.14988420962E+02  0.50518048549E+02  0.17909251799E+03  0.20569069723E+03  0.86358595014E+02 0.  0.
         11    1    3    3    0    0 -0.61714207557E+02 -0.17806085372E+02 -0.35568450127E+02  0.73422167873E+02  0.00000000000E+00 0. -1.
        -12    1    3    3    0    0  0.21933794784E+02 -0.28883058661E+02 -0.29683007412E+02  0.46865801607E+02  0.00000000000E+00 0.  1.
        -13    1    4    4    0    0  0.23275846785E+02  0.37136298629E+02  0.14870397378E+03  0.15502819594E+03  0.00000000000E+00 0. -1.
         13    1    4    4    0    0 -0.38264267747E+02  0.13381749920E+02  0.30388544215E+02  0.50662501286E+02  0.00000000000E+00 0.  1.
          2    1    1    2  501    0  0.54768833735E+02 -0.38289045160E+01 -0.59106859335E+02  0.80671596482E+02  0.00000000000E+00 0. -1.
<scales pt_clust_5="13000.00000" pt_clust_6="13000.00000" pt_clust_7="13000.00000" pt_clust_8="13000.00000" pt_clust_9="54.90254"></scales>
<clustering>
<clus scale="   54.903">  1  9  2 -1</clus>
<clus scale="   80.306">  5  6 -1 -1</clus>
<clus scale="   86.359">  7  8 -1 -1</clus>
<clus scale="   98.783">  2  5  1 -1</clus>
<clus scale="   54.903">  1  5  2 -1</clus>
</clustering>
</event>
<event>
 9    1  0.8429841E-005  0.1077454E+03  0.7546771E-02  0.1268797E+00
         21   -1    0    0  501  502  0.00000000000E+00  0.00000000000E+00  0.67668784304E+02  0.67668784304E+02  0.00000000000E+00 0. -1.
          1   -1    0    0  502    0 -0.00000000000E+00 -0.00000000000E+00 -0.53269052749E+03  0.53269052749E+03  0.00000000000E+00 0. -1.
        -24    2    1    2    0    0 -0.35651720852E+02 -0.37764621931E+02 -0.33246161584E+03  0.34630951344E+03  0.81867827762E+02 0.  0.
         23    2    1    2    0    0  0.72396594249E+02  0.24870024615E+02 -0.16483232418E+03  0.20347360782E+03  0.91498792343E+02 0.  0.
         13    1    3    3    0    0 -0.61409951924E+02 -0.23378848300E+02 -0.19691407232E+03  0.20758830560E+03  0.00000000000E+00 0. -1.
        -14    1    3    3    0    0  0.25758231072E+02 -0.14385773631E+02 -0.13554754351E+03  0.13872120784E+03  0.00000000000E+00 0.  1.
        -11    1    4    4    0    0  0.40994102985E+01  0.38567616969E+02 -0.10398602323E+03  0.11098359911E+03  0.00000000000E+00 0. -1.
         11    1    4    4    0    0  0.68297183950E+02 -0.13697592353E+02 -0.60846300947E+02  0.92490008708E+02  0.00000000000E+00 0.  1.
          2    1    1    2  501    0 -0.36744873397E+02  0.12894597316E+02  0.32272196834E+02  0.50576190538E+02  0.00000000000E+00 0. -1.
<scales pt_clust_5="13000.00000" pt_clust_6="13000.00000" pt_clust_7="13000.00000" pt_clust_8="13000.00000" pt_clust_9="38.94170"></scales>
<clustering>
<clus scale="   38.942">  1  9  2 -1</clus>
<clus scale="   81.868">  5  6 -1 -1</clus>
<clus scale="   91.499">  7  8 -1 -1</clus>
<clus scale="   99.696">  2  5  1 -1</clus>
<clus scale="   38.942">  1  5  2 -1</clus>
</clustering>
</event>
<event>
 9    1  0.8429841E-005  0.1000122E+03  0.7546771E-02  0.1284426E+00
         21   -1    0    0  501  502  0.00000000000E+00  0.00000000000E+00  0.86778685753E+03  0.86778685753E+03  0.00000000000E+00 0.  1.
         -2   -1    0    0    0  501 -0.00000000000E+00 -0.00000000000E+00 -0.17722398554E+02  0.17722398554E+02  0.00000000000E+00 0.  1.
         23    2    1    2    0    0 -0.64583473441E+01  0.54442209895E+02  0.21370243692E+03  0.23806719870E+03  0.89451635455E+02 0.  0.
        -24    2    1    2    0    0  0.16408073871E+02 -0.22400769074E+02  0.44009263506E+03  0.44832570130E+03  0.80891208818E+02 0.  0.
         11    1    4    4    0    0 -0.24178561127E+02 -0.14388431212E+02  0.63332244304E+02  0.69300814855E+02  0.00000000000E+00 0. -1.
        -12    1    4    4    0    0  0.40586634997E+02 -0.80123378616E+01  0.37676039076E+03  0.37902488644E+03  0.00000000000E+00 0.  1.
        -11    1    3    3    0    0 -0.29038821021E+02  0.30776997637E+02  0.30986540462E+02  0.52446567091E+02  0.00000000000E+00 0.  1.
         11    1    3    3    0    0  0.22580473677E+02  0.23665212258E+02  0.18271589646E+03  0.18562063161E+03  0.00000000000E+00 0. -1.
         -1    1    1    2    0  502 -0.99497265267E+01 -0.32041440821E+02  0.19626938699E+03  0.19911635608E+03  0.00000000000E+00 0.  1.
<scales pt_clust_5="13000.00000" pt_clust_6="13000.00000" pt_clust_7="13000.00000" pt_clust_8="13000.00000" pt_clust_9="33.55072"></scales>
<clustering>
<clus scale="   33.551">  1  9  2 -1</clus>
<clus scale="   80.891">  5  6 -1 -1</clus>
<clus scale="   89.452">  7  8 -1 -1</clus>
<clus scale="   92.435">  1  5  2 -1</clus>
<clus scale="   33.551">  1  5  2 -1</clus>
</clustering>
</event>
<event>
 9    1  0.8429841E-005  0.1176560E+03  0.7546771E-02  0.1248417E+00
         21   -1    0    0  501  502  0.00000000000E+00  0.00000000000E+00  0.90907037877E+02  0.90907037877E+02  0.00000000000E+00 0. -1.
         -2   -1    0    0    0  501 -0.00000000000E+00 -0.00000000000E+00 -0.28595181291E+03  0.28595181291E+03  0.00000000000E+00 0.  1.
        -24    2    1    2    0    0 -0.35273092323E+01 -0.89573564368E+02 -0.16364190748E+03  0.20338888459E+03  0.80947508598E+02 0.  0.
         23    2    1    2    0    0 -0.38872029277E+02  0.61861955249E+02 -0.44832172367E+02  0.12106783442E+03  0.85495968824E+02 0.  0.
         11    1    3    3    0    0 -0.94770586141E+01 -0.66773999989E+02 -0.41924920211E+02  0.79412093848E+02  0.00000000000E+00 0. -1.
        -12    1    3    3    0    0  0.59497493818E+01 -0.22799564379E+02 -0.12171698727E+03  0.12397679075E+03  0.00000000000E+00 0.  1.
        -13    1    4    4    0    0 -0.65536329138E+02  0.41001274855E+02 -0.39444286484E+02  0.86786904040E+02  0.00000000000E+00 0. -1.
         13    1    4    4    0    0  0.26664299861E+02  0.20860680394E+02 -0.53878858831E+01  0.34280930382E+02  0.00000000000E+00 0.  1.
         -1    1    1    2    0  502  0.42399338510E+02  0.27711609119E+02  0.13429304818E+02  0.52402131769E+02  0.00000000000E+00 0.  1.
<scales pt_clust_5="13000.00000" pt_clust_6="13000.00000" pt_clust_7="13000.00000" pt_clust_8="13000.00000" pt_clust_9="50.65212"></scales>
<clustering>
<clus scale="   50.652">  1  9  2 -1</clus>
<clus scale="   80.948">  5  6 -1 -1</clus>
<clus scale="   85.496">  7  8 -1 -1</clus>
<clus scale="  114.393">  2  5  1 -1</clus>
<clus scale="   50.652">  1  5  2 -1</clus>
</clustering>
</event>
<event>
 9    1  0.8429841E-005  0.1142371E+03  0.7546771E-02  0.1255797E+00
          1   -1    0    0  502    0 -0.00000000000E+00  0.00000000000E+00  0.43759100634E+03  0.43759100634E+03  0.00000000000E+00 0. -1.
         21   -1    0    0  501  502  0.00000000000E+00 -0.00000000000E+00 -0.51661195563E+02  0.51661195563E+02  0.00000000000E+00 0. -1.
         23    2    1    2    0    0  0.73928972022E+02  0.53721846503E+02  0.14394308779E+03  0.19301042562E+03  0.90453757147E+02 0.  0.
        -24    2    1    2    0    0 -0.43874110472E+02 -0.21387397775E+02  0.69680893059E+02  0.11837072662E+03  0.82303363908E+02 0.  0.
         13    1    4    4    0    0 -0.18565258730E+02  0.30636137658E+02  0.15237324475E+02  0.38928367799E+02  0.00000000000E+00 0. -1.
        -14    1    4    4    0    0 -0.25308851742E+02 -0.52023535434E+02  0.54443568585E+02  0.79442358825E+02  0.00000000000E+00 0.  1.
        -11    1    3    3    0    0  0.20265035666E+02  0.11108961093E+02 -0.94805426359E+01  0.24979218878E+02  0.00000000000E+00 0. -1.
         11    1    3    3    0    0  0.53663936356E+02  0.42612885410E+02  0.15342363042E+03  0.16803120675E+03  0.00000000000E+00 0.  1.
          2    1    1    2  501    0 -0.30054861550E+02 -0.32334448728E+02  0.17230582993E+03  0.17787104966E+03  0.00000000000E+00 0. -1.
<scales pt_clust_5="13000.00000" pt_clust_6="13000.00000" pt_clust_7="13000.00000" pt_clust_8="13000.00000" pt_clust_9="44.14536"></scales>
<clustering>
<clus scale="   44.145">  2  9  1 -1</clus>
<clus scale="   82.303">  5  6 -1 -1</clus>
<clus scale="   90.454">  7  8 -1 -1</clus>
<clus scale="  107.898">  2  5  1 -1</clus>
<clus scale="   44.145">  2  5  1 -1</clus>
</clustering>
</event>
<event>
 9    1  0.8429841E-005  0.9697926E+02  0.7546771E-02  0.1291641E+00
          1   -1    0    0  502    0 -0.00000000000E+00  0.00000000000E+00  0.31505180267E+02  0.31505180267E+02  0.00000000000E+00 0. -1.
         21   -1    0    0  501  502  0.00000000000E+00 -0.00000000000E+00 -0.56206940037E+03  0.56206940037E+03  0.00000000000E+00 0.  1.
         23    2    1    2    0    0  0.59174825587E+00  0.31533813930E+02 -0.18338873312E+03  0.20704612038E+03  0.90785114100E+02 0.  0.
        -24    2    1    2    0    0 -0.44355305907E+02 -0.26385301399E+02 -0.32110184877E+03  0.33532698792E+03  0.81695864352E+02 0.  0.
         11    1    4    4    0    0 -0.69903138385E+01 -0.25222531406E+02 -0.22858349814E+02  0.34749744377E+02  0.00000000000E+00 0. -1.
        -12    1    4    4    0    0 -0.37364992069E+02 -0.11627699929E+01 -0.29824349896E+03  0.30057724355E+03  0.00000000000E+00 0.  1.
        -11    1    3    3    0    0  0.95540883491E+00 -0.30519284822E+02 -0.88945320729E+02  0.94040468053E+02  0.00000000000E+00 0.  1.
         11    1    3    3    0    0 -0.36366057905E+00  0.62053098752E+02 -0.94443412393E+02  0.11300565233E+03  0.00000000000E+00 0. -1.
          2    1    1    2  501    0  0.43763557652E+02 -0.51485125310E+01 -0.26073638210E+02  0.51201472333E+02  0.00000000000E+00 0. -1.
<scales pt_clust_5="13000.00000" pt_clust_6="13000.00000" pt_clust_7="13000.00000" pt_clust_8="13000.00000" pt_clust_9="44.06538"></scales>
<clustering>
<clus scale="   44.065">  2  9  1 -1</clus>
<clus scale="   81.696">  5  6 -1 -1</clus>
<clus scale="   88.528">  2  5  1 -1</clus>
<clus scale="   90.785">  7  8 -1 -1</clus>
<clus scale="   44.065">  2  5  1 -1</clus>
</clustering>
</event>
<event>
 9    1  0.8429841E-005  0.1680923E+03  0.7546771E-02  0.1181378E+00
         21   -1    0    0  501  502  0.00000000000E+00  0.00000000000E+00  0.28221153231E+02  0.28221153231E+02  0.00000000000E+00 0.  1.
          3   -1    0    0  502    0 -0.00000000000E+00 -0.00000000000E+00 -0.12561555022E+04  0.12561555022E+04  0.00000000000E+00 0. -1.
         23    2    1    2    0    0 -0.41664590683E+01 -0.15076037524E+03 -0.76199172643E+03  0.78208181473E+03  0.90964408762E+02 0.  0.
        -24    2    1    2    0    0  0.29333878090E+02  0.12544239513E+03 -0.36648689742E+03  0.39662630065E+03  0.80021906295E+02 0.  0.
         11    1    4    4    0    0  0.24741888036E+02  0.10458865001E+03 -0.35776642678E+03  0.37356092256E+03  0.00000000000E+00 0. -1.
        -12    1    4    4    0    0  0.45919900534E+01  0.20853745120E+02 -0.87204706411E+01  0.23065378089E+02  0.00000000000E+00 0.  1.
        -11    1    3    3    0    0 -0.65164768375E+01 -0.26869143473E+02 -0.34987612799E+02  0.44593142867E+02  0.00000000000E+00 0.  1.
         11    1    3    3    0    0  0.23500177692E+01 -0.12389123177E+03 -0.72700411363E+03  0.73748867187E+03  0.00000000000E+00 0. -1.
          4    1    1    2  501    0 -0.25167419021E+02  0.25317980110E+02 -0.99455725138E+02  0.10566854007E+03  0.00000000000E+00 0. -1.
<scales pt_clust_5="13000.00000" pt_clust_6="13000.00000" pt_clust_7="13000.00000" pt_clust_8="13000.00000" pt_clust_9="35.69873"></scales>
<clustering>
<clus scale="   35.699">  1  9  2 -1</clus>
<clus scale="   80.022">  5  6 -1 -1</clus>
<clus scale="   90.964">  7  8 -1 -1</clus>
<clus scale="  162.432">  1  5  2 -1</clus>
<clus scale="   35.699">  1  5  2 -1</clus>
</clustering>
</event>
<event>
 9    1  0.8429841E-005  0.1029982E+03  0.7546771E-02  0.1285715E+00
         21   -1    0    0  501  502  0.00000000000E+00  0.00000000000E+00  0.20244817520E+02  0.20244817520E+02  0.00000000000E+00 0. -1.
          1   -1    0    0  502    0 -0.00000000000E+00 -0.00000000000E+00 -0.89262404731E+03  0.89262404731E+03  0.00000000000E+00 0. -1.
        -24    2    1    2    0    0 -0.41434190601E+02  0.20199504301E+02 -0.23410681047E+03  0.24815869016E+03  0.68205019365E+02 0.  0.
         23    2    1    2    0    0 -0.48895331684E+01 -0.69403626150E+02 -0.34442807381E+03  0.36319494723E+03  0.91864578644E+02 0.  0.
         11    1    3    3    0    0 -0.40613834404E+02 -0.17522945393E+02 -0.13776170910E+03  0.14468871986E+03  0.00000000000E+00 0. -1.
        -12    1    3    3    0    0 -0.82035619648E+00  0.37722449694E+02 -0.96345101375E+02  0.10346997030E+03  0.00000000000E+00 0.  1.
        -11    1    4    4    0    0 -0.33452173384E+02  0.53548461737E+01 -0.12926095792E+03  0.13362678446E+03  0.00000000000E+00 0.  1.
         11    1    4    4    0    0  0.28562640215E+02 -0.74758472324E+02 -0.21516711589E+03  0.22956816277E+03  0.00000000000E+00 0. -1.
          2    1    1    2  501    0  0.46323723769E+02  0.49204121849E+02 -0.29384434551E+03  0.30151522744E+03  0.00000000000E+00 0. -1.
<scales pt_clust_5="13000.00000" pt_clust_6="13000.00000" pt_clust_7="13000.00000" pt_clust_8="13000.00000" pt_clust_9="67.57912"></scales>
<clustering>
<clus scale="   67.579">  1  9  2 -1</clus>
<clus scale="   68.205">  5  6 -1 -1</clus>
<clus scale="   82.592">  2  5  1 -1</clus>
<clus scale="   91.865">  7  8 -1 -1</clus>
<clus scale="   67.579">  1  5  2 -1</clus>
</clustering>
</event>
<event>
 9    1  0.8429841E-005  0.1271934E+03  0.7546771E-02  0.1234443E+00
          1   -1    0    0  502    0 -0.00000000000E+00  0.00000000000E+00  0.25563551889E+03  0.25563551889E+03  0.00000000000E+00 0. -1.
         21   -1    0    0  501  502  0.00000000000E+00 -0.00000000000E+00 -0.29214579331E+03  0.29214579331E+03  0.00000000000E+00 0. -1.
         23    2    1    2    0    0 -0.58972563156E+02  0.70808433866E+02  0.18248362316E+03  0.22363478671E+03  0.90667786951E+02 0.  0.
        -24    2    1    2    0    0  0.11223668993E+03  0.11953409650E+02 -0.10763063206E+03  0.17552496968E+03  0.80527656461E+02 0.  0.
         11    1    4    4    0    0  0.11990036676E+03  0.25958797962E+02 -0.95894090908E+02  0.15571009541E+03  0.00000000000E+00 0. -1.
        -12    1    4    4    0    0 -0.76636768277E+01 -0.14005388313E+02 -0.11736541154E+02  0.19814874276E+02  0.00000000000E+00 0.  1.
        -11    1    3    3    0    0 -0.26294331650E+02  0.71543088706E+02  0.17385309811E+03  0.18982809366E+03  0.00000000000E+00 0. -1.
         11    1    3    3    0    0 -0.32678231507E+02 -0.73465484001E+00  0.86305250491E+01  0.33806693047E+02  0.00000000000E+00 0.  1.
          2    1    1    2  501    0 -0.53264126775E+02 -0.82761843516E+02 -0.11136326552E+03  0.14862155581E+03  0.00000000000E+00 0. -1.
<scales pt_clust_5="13000.00000" pt_clust_6="13000.00000" pt_clust_7="13000.00000" pt_clust_8="13000.00000" pt_clust_9="98.42048"></scales>
<clustering>
<clus scale="   80.528">  5  6 -1 -1</clus>
<clus scale="   90.668">  7  8 -1 -1</clus>
<clus scale="   98.420">  2  9  1 -1</clus>
<clus scale="  120.176">  2  5  1 -1</clus>
<clus scale="   98.420">  2  5  1 -1</clus>
</clustering>
</event>
<event>
 9    1  0.8429841E-005  0.2304332E+03  0.7546771E-02  0.1126992E+00
         21   -1    0    0  501  502  0.00000000000E+00  0.00000000000E+00  0.44117621152E+03  0.44117621152E+03  0.00000000000E+00 0. -1.
         -4   -1    0    0    0  501 -0.00000000000E+00 -0.00000000000E+00 -0.18601492381E+03  0.18601492381E+03  0.00000000000E+00 0.  1.
         23    2    1    2    0    0 -0.19381088532E+03  0.74882112199E+02  0.10652118067E+03  0.25060917729E+03  0.91039594755E+02 0.  0.
        -24    2    1    2    0    0  0.22697710180E+03  0.23198754385E+02  0.11120011586E+03  0.26648378710E+03  0.81187166915E+02 0.  0.
         11    1    4    4    0    0  0.16706739979E+03  0.52329886176E+02  0.87991945242E+02  0.19594008137E+03  0.00000000000E+00 0. -1.
        -12    1    4    4    0    0  0.59909702012E+02 -0.29131131790E+02  0.23208170623E+02  0.70543705730E+02  0.00000000000E+00 0.  1.
        -13    1    3    3    0    0 -0.16386715403E+03  0.95879798787E+02  0.83595836567E+02  0.20744552026E+03  0.00000000000E+00 0.  1.
         13    1    3    3    0    0 -0.29943731294E+02 -0.20997686588E+02  0.22925344101E+02  0.43163657028E+02  0.00000000000E+00 0. -1.
         -3    1    1    2    0  502 -0.33166216477E+02 -0.98080866584E+02  0.37439991183E+02  0.11009817094E+03  0.00000000000E+00 0.  1.
<scales pt_clust_5="13000.00000" pt_clust_6="13000.00000" pt_clust_7="13000.00000" pt_clust_8="13000.00000" pt_clust_9="103.53678"></scales>
<clustering>
<clus scale="   81.187">  5  6 -1 -1</clus>
<clus scale="   91.040">  7  8 -1 -1</clus>
<clus scale="  103.537">  1  9  2 -1</clus>
<clus scale="  226.721">  1  5  2 -1</clus>
<clus scale="  103.537">  1  5  2 -1</clus>
</clustering>
</event>
<event>
 9    1  0.8429841E-005  0.1488247E+03  0.7546771E-02  0.1204045E+00
         21   -1    0    0  501  502  0.00000000000E+00  0.00000000000E+00  0.10081593491E+03  0.10081593491E+03  0.00000000000E+00 0. -1.
          1   -1    0    0  502    0 -0.00000000000E+00 -0.00000000000E+00 -0.11802004164E+04  0.11802004164E+04  0.00000000000E+00 0. -1.
        -24    2    1    2    0    0  0.11038149783E+03 -0.11690643416E+02 -0.98411119377E+03  0.99387109071E+03  0.83571269232E+02 0.  0.
         23    2    1    2    0    0 -0.16738517062E+03 -0.28468493605E+02 -0.97479941547E+02  0.21738105544E+03  0.94466574986E+02 0.  0.
         11    1    3    3    0    0  0.71158426865E+02 -0.45073221252E+02 -0.50216910675E+03  0.50918457240E+03  0.00000000000E+00 0. -1.
        -12    1    3    3    0    0  0.39223070960E+02  0.33382577836E+02 -0.48194208701E+03  0.48468651831E+03  0.00000000000E+00 0.  1.
        -11    1    4    4    0    0 -0.37347786352E+02 -0.27015340623E+02 -0.71026006093E+02  0.84672187381E+02  0.00000000000E+00 0.  1.
         11    1    4    4    0    0 -0.13003738427E+03 -0.14531529822E+01 -0.26453935454E+02  0.13270886806E+03  0.00000000000E+00 0. -1.
          2    1    1    2  501    0  0.57003672796E+02  0.40159137022E+02  0.22066538270E+01  0.69764205146E+02  0.00000000000E+00 0. -1.
<scales pt_clust_5="13000.00000" pt_clust_6="13000.00000" pt_clust_7="13000.00000" pt_clust_8="13000.00000" pt_clust_9="69.72930"></scales>
<clustering>
<clus scale="   69.729">  1  9  2 -1</clus>
<clus scale="   83.571">  5  6 -1 -1</clus>
<clus scale="   94.467">  7  8 -1 -1</clus>
<clus scale="  142.158">  2  5  1 -1</clus>
<clus scale="   69.729">  1  5  2 -1</clus>
</clustering>
</event>
<event>
 9    1  0.8429841E-005  0.3258492E+03  0.7546771E-02  0.1073510E+00
         21   -1    0    0  501  502  0.00000000000E+00  0.00000000000E+00  0.52566447391E+03  0.52566447391E+03  0.00000000000E+00 0. -1.
          1   -1    0    0  502    0 -0.00000000000E+00 -0.00000000000E+00 -0.87538912048E+03  0.87538912048E+03  0.00000000000E+00 0. -1.
         23    2    1    2    0    0  0.32189104553E+03 -0.50972544281E+02 -0.76804253828E+03  0.83968747712E+03  0.94729473601E+02 0.  0.
        -24    2    1    2    0    0 -0.22175099314E+03 -0.78494364348E+01  0.17919532241E+03  0.29553222429E+03  0.77415860214E+02 0.  0.
         11    1    4    4    0    0 -0.22613924480E+03 -0.12789559415E+02  0.17936979892E+03  0.28892223112E+03  0.00000000000E+00 0. -1.
        -12    1    4    4    0    0  0.43882516640E+01  0.49401229804E+01 -0.17447651098E+00  0.66099931756E+01  0.00000000000E+00 0.  1.
        -11    1    3    3    0    0  0.25384290584E+03 -0.42353781934E+01 -0.62394405784E+03  0.67361735918E+03  0.00000000000E+00 0. -1.
         11    1    3    3    0    0  0.68048139682E+02 -0.46737166088E+02 -0.14409848044E+03  0.16607011794E+03  0.00000000000E+00 0.  1.
          2    1    1    2  501    0 -0.10014005239E+03  0.58821980716E+02  0.23912256930E+03  0.26583389297E+03  0.00000000000E+00 0. -1.
<scales pt_clust_5="13000.00000" pt_clust_6="13000.00000" pt_clust_7="13000.00000" pt_clust_8="13000.00000" pt_clust_9="116.13809"></scales>
<clustering>
<clus scale="   77.416">  5  6 -1 -1</clus>
<clus scale="   94.729">  7  8 -1 -1</clus>
<clus scale="  116.138">  1  9  2 -1</clus>
<clus scale="  321.243">  1  5  2 -1</clus>
<clus scale="  116.138">  1  5  2 -1</clus>
</clustering>
</event>
<event>
 9    1  0.8429841E-005  0.9423883E+02  0.7546771E-02  0.1298536E+00
         21   -1    0    0  501  502  0.00000000000E+00  0.00000000000E+00  0.69233724020E+02  0.69233724020E+02  0.00000000000E+00 0. -1.
          1   -1    0    0  502    0 -0.00000000000E+00 -0.00000000000E+00 -0.30916375372E+03  0.30916375372E+03  0.00000000000E+00 0. -1.
         23    2    1    2    0    0 -0.22227565202E+02  0.27146449603E+01 -0.20065102698E+03  0.22129714603E+03  0.90609923647E+02 0.  0.
        -24    2    1    2    0    0  0.40635946740E+02 -0.25392467973E+02  0.15293390053E+02  0.95202850170E+02  0.80830917995E+02 0.  0.
         11    1    4    4    0    0  0.13810187795E+02 -0.48683366655E+02  0.27555544357E+02  0.57620304586E+02  0.00000000000E+00 0. -1.
        -12    1    4    4    0    0  0.26825758945E+02  0.23290898682E+02 -0.12262154304E+02  0.37582545584E+02  0.00000000000E+00 0.  1.
        -13    1    3    3    0    0 -0.12339609981E+02 -0.38535224098E+02 -0.14933130372E+03  0.15471608753E+03  0.00000000000E+00 0.  1.
         13    1    3    3    0    0 -0.98879552216E+01  0.41249869058E+02 -0.51319723256E+02  0.66581058499E+02  0.00000000000E+00 0. -1.
          2    1    1    2  501    0 -0.18408381538E+02  0.22677823012E+02 -0.54572392775E+02  0.61897481537E+02  0.00000000000E+00 0. -1.
<scales pt_clust_5="13000.00000" pt_clust_6="13000.00000" pt_clust_7="13000.00000" pt_clust_8="13000.00000" pt_clust_9="29.20878"></scales>
<clustering>
<clus scale="   29.209">  1  9  2 -1</clus>
<clus scale="   80.831">  5  6 -1 -1</clus>
<clus scale="   84.879">  1  5  2 -1</clus>
<clus scale="   90.610">  7  8 -1 -1</clus>
<clus scale="   29.209">  1  5  2 -1</clus>
</clustering>
</event>
<event>
 9    1  0.8429841E-005  0.1253314E+03  0.7546771E-02  0.1237803E+00
         21   -1    0    0  501  502  0.00000000000E+00  0.00000000000E+00  0.12623703104E+03  0.12623703104E+03  0.00000000000E+00 0. -1.
          1   -1    0    0  502    0 -0.00000000000E+00 -0.00000000000E+00 -0.22831008587E+03  0.22831008587E+03  0.00000000000E+00 0. -1.
        -24    2    1    2    0    0 -0.18165282454E+02  0.87635668237E+02 -0.16359844109E+03  0.20263738465E+03  0.79293580430E+02 0.  0.
         23    2    1    2    0    0  0.27343376075E+02 -0.67469441422E+02  0.55633537753E+02  0.12898315412E+03  0.90784237524E+02 0.  0.
         13    1    3    3    0    0  0.16173048802E+02  0.71412433382E+02 -0.68627838714E+02  0.10035478761E+03  0.00000000000E+00 0. -1.
        -14    1    3    3    0    0 -0.34338331256E+02  0.16223234854E+02 -0.94970602372E+02  0.10228259704E+03  0.00000000000E+00 0.  1.
        -13    1    4    4    0    0  0.38530471055E+01  0.20622611141E+02 -0.20780324730E+01  0.21082131800E+02  0.00000000000E+00 0.  1.
         13    1    4    4    0    0  0.23490328970E+02 -0.88092052563E+02  0.57711570226E+02  0.10790102232E+03  0.00000000000E+00 0. -1.
          2    1    1    2  501    0 -0.91780936208E+01 -0.20166226815E+02  0.58918485060E+01  0.22926578141E+02  0.00000000000E+00 0. -1.
<scales pt_clust_5="13000.00000" pt_clust_6="13000.00000" pt_clust_7="13000.00000" pt_clust_8="13000.00000" pt_clust_9="22.15658"></scales>
<clustering>
<clus scale="   22.157">  1  9  2 -1</clus>
<clus scale="   79.294">  5  6 -1 -1</clus>
<clus scale="   90.784">  7  8 -1 -1</clus>
<clus scale="  117.276">  2  5  1 -1</clus>
<clus scale="   22.157">  1  5  2 -1</clus>
</clustering>
</event>
<event>
 9    1  0.1166035E-004  0.1804482E+03  0.7546771E-02  0.1168786E+00
          1   -1    0    0  502    0 -0.00000000000E+00  0.00000000000E+00  0.75161842970E+03  0.75161842970E+03  0.00000000000E+00 0. -1.
         21   -1    0    0  501  502  0.00000000000E+00 -0.00000000000E+00 -0.71069405703E+03  0.71069405703E+03  0.00000000000E+00 0. -1.
        -24    2    1    2    0    0 -0.14005129042E+03  0.72396174596E+02  0.72248584077E+03  0.74390757216E+03  0.80976019691E+02 0.  0.
         23    2    1    2    0    0  0.79587818555E+02 -0.31543596245E+02 -0.24319220199E+03  0.27400376915E+03  0.92770680011E+02 0.  0.
         13    1    3    3    0    0 -0.93392256620E+02  0.72189069187E+02  0.62220858492E+03  0.63330632276E+03  0.00000000000E+00 0. -1.
        -14    1    3    3    0    0 -0.46659033798E+02  0.20710540819E+00  0.10027725586E+03  0.11060124940E+03  0.00000000000E+00 0.  1.
        -11    1    4    4    0    0  0.54086431186E+02 -0.63551435821E+02 -0.18402024542E+03  0.20205835236E+03  0.00000000000E+00 0.  1.
         11    1    4    4    0    0  0.25501387369E+02  0.32007839576E+02 -0.59171956569E+02  0.71945416784E+02  0.00000000000E+00 0. -1.
          2    1    1    2  501    0  0.60463471863E+02 -0.40852578350E+02 -0.43836926610E+03  0.44440114542E+03  0.00000000000E+00 0. -1.
<scales pt_clust_5="13000.00000" pt_clust_6="13000.00000" pt_clust_7="13000.00000" pt_clust_8="13000.00000" pt_clust_9="72.97098"></scales>
<clustering>
<clus scale="   72.971">  2  9  1 -1</clus>
<clus scale="   80.976">  5  6 -1 -1</clus>
<clus scale="   92.771">  7  8 -1 -1</clus>
<clus scale="  174.678">  1  5  2 -1</clus>
<clus scale="   72.971">  2  5  1 -1</clus>
</clustering>
</event>
<event>
 9    1  0.8429841E-005  0.2122014E+03  0.7546771E-02  0.1140477E+00
         21   -1    0    0  501  502  0.00000000000E+00  0.00000000000E+00  0.17990958763E+03  0.17990958763E+03  0.00000000000E+00 0. -1.
          1   -1    0    0  502    0 -0.00000000000E+00 -0.00000000000E+00 -0.10255335603E+04  0.10255335603E+04  0.00000000000E+00 0. -1.
         23    2    1    2    0    0 -0.37124896191E+02  0.19118330030E+03 -0.82056344258E+03  0.84806980827E+03  0.89267710630E+02 0.  0.
        -24    2    1    2    0    0  0.63959826388E+02 -0.17420084165E+03 -0.13467711149E+03  0.24324923057E+03  0.81212506348E+02 0.  0.
         13    1    4    4    0    0  0.74455662663E+02 -0.11846573311E+03 -0.12082158746E+03  0.18486652379E+03  0.00000000000E+00 0. -1.
        -14    1    4    4    0    0 -0.10495836276E+02 -0.55735108550E+02 -0.13855524031E+02  0.58382706775E+02  0.00000000000E+00 0.  1.
        -11    1    3    3    0    0  0.24553890436E+02  0.29066508223E+02 -0.10194106862E+03  0.10881055512E+03  0.00000000000E+00 0.  1.
         11    1    3    3    0    0 -0.61678786627E+02  0.16211679208E+03 -0.71862237396E+03  0.73925925314E+03  0.00000000000E+00 0. -1.
          2    1    1    2  501    0 -0.26834930197E+02 -0.16982458645E+02  0.10961658135E+03  0.11412410914E+03  0.00000000000E+00 0. -1.
<scales pt_clust_5="13000.00000" pt_clust_6="13000.00000" pt_clust_7="13000.00000" pt_clust_8="13000.00000" pt_clust_9="31.75716"></scales>
<clustering>
<clus scale="   31.757">  1  9  2 -1</clus>
<clus scale="   81.213">  5  6 -1 -1</clus>
<clus scale="   89.268">  7  8 -1 -1</clus>
<clus scale="  208.941">  1  5  2 -1</clus>
<clus scale="   31.757">  1  5  2 -1</clus>
</clustering>
</event>
<event>
 9    1  0.8429841E-005  0.9470918E+02  0.7546771E-02  0.1298540E+00
         21   -1    0    0  501  502  0.00000000000E+00  0.00000000000E+00  0.20394115705E+03  0.20394115705E+03  0.00000000000E+00 0. -1.
          1   -1    0    0  502    0 -0.00000000000E+00 -0.00000000000E+00 -0.85575607917E+02  0.85575607917E+02  0.00000000000E+00 0. -1.
         23    2    1    2    0    0 -0.29437394786E+02  0.82157827815E+01 -0.20999982448E+02  0.98985147633E+02  0.91776908264E+02 0.  0.
        -24    2    1    2    0    0 -0.10189606317E+02 -0.25519104718E+02  0.10678355635E+03  0.13639023504E+03  0.80277739914E+02 0.  0.
         13    1    4    4    0    0  0.18772474654E+02 -0.44661220286E+02  0.48503608365E+02  0.68553850559E+02  0.00000000000E+00 0. -1.
        -14    1    4    4    0    0 -0.28962080971E+02  0.19142115569E+02  0.58279947985E+02  0.67836384483E+02  0.00000000000E+00 0.  1.
        -13    1    3    3    0    0 -0.51950279042E+02 -0.98221942636E+01 -0.38356294387E+02  0.65318544930E+02  0.00000000000E+00 0.  1.
         13    1    3    3    0    0  0.22512884256E+02  0.18037977045E+02  0.17356311939E+02  0.33666602703E+02  0.00000000000E+00 0. -1.
          2    1    1    2  501    0  0.39627001103E+02  0.17303321936E+02  0.32581975231E+02  0.54141382291E+02  0.00000000000E+00 0. -1.
<scales pt_clust_5="13000.00000" pt_clust_6="13000.00000" pt_clust_7="13000.00000" pt_clust_8="13000.00000" pt_clust_9="43.24008"></scales>
<clustering>
<clus scale="   43.240">  1  9  2 -1</clus>
<clus scale="   80.278">  5  6 -1 -1</clus>
<clus scale="   83.614">  1  5  2 -1</clus>
<clus scale="   91.777">  7  8 -1 -1</clus>
<clus scale="   43.240">  1  5  2 -1</clus>
</clustering>
</event>
<event>
 9    1  0.8429841E-005  0.1419865E+03  0.7546771E-02  0.1235985E+00
         21   -1    0    0  501  502  0.00000000000E+00  0.00000000000E+00  0.74116385216E+03  0.74116385216E+03  0.00000000000E+00 0. -1.
          1   -1    0    0  502    0 -0.00000000000E+00 -0.00000000000E+00 -0.74978495212E+03  0.74978495212E+03  0.00000000000E+00 0. -1.
        -24    2    1    2    0    0  0.21538411941E+02  0.29715571833E+01 -0.47619755723E+03  0.48349884174E+03  0.80834912689E+02 0.  0.
         23    2    1    2    0    0  0.80737820396E+02  0.36537195481E+02 -0.25066634367E+03  0.28088675789E+03  0.90610113187E+02 0.  0.
         13    1    3    3    0    0 -0.19358535075E+02  0.28559429372E+02 -0.16338438748E+03  0.16698758025E+03  0.00000000000E+00 0. -1.
        -14    1    3    3    0    0  0.40896947016E+02 -0.25587872189E+02 -0.31281316975E+03  0.31651126148E+03  0.00000000000E+00 0.  1.
        -13    1    4    4    0    0  0.10092210931E+03  0.31599507507E+02 -0.21521765825E+03  0.23979666688E+03  0.00000000000E+00 0. -1.
         13    1    4    4    0    0 -0.20184288912E+02  0.49376879748E+01 -0.35448685420E+02  0.41090091012E+02  0.00000000000E+00 0.  1.
          2    1    1    2  501    0 -0.10227623234E+03 -0.39508752665E+02  0.71824280095E+03  0.72656320465E+03  0.00000000000E+00 0. -1.
<scales pt_clust_5="13000.00000" pt_clust_6="13000.00000" pt_clust_7="13000.00000" pt_clust_8="13000.00000" pt_clust_9="109.31588"></scales>
<clustering>
<clus scale="   80.835">  5  6 -1 -1</clus>
<clus scale="   83.708">  2  5  1 -1</clus>
<clus scale="   90.610">  7  8 -1 -1</clus>
<clus scale="  109.316">  1  9  2 -1</clus>
<clus scale="  109.316">  1  5  2 -1</clus>
</clustering>
</event>
<event>
 9    1  0.8429841E-005  0.9194196E+02  0.7546771E-02  0.1305654E+00
         -2   -1    0    0    0  501 -0.00000000000E+00  0.00000000000E+00  0.24363948687E+02  0.24363948687E+02  0.00000000000E+00 0.  1.
         21   -1    0    0  501  502  0.00000000000E+00 -0.00000000000E+00 -0.58971591167E+03  0.58971591167E+03  0.00000000000E+00 0.  1.
         23    2    1    2    0    0  0.13203659907E+02 -0.11882998650E+02 -0.95119869183E+02  0.13245830159E+03  0.90453689003E+02 0.  0.
        -24    2    1    2    0    0 -0.19724093867E+02 -0.78694761857E+01 -0.40746309202E+03  0.41549574001E+03  0.78482928593E+02 0.  0.
         13    1    4    4    0    0  0.10964860324E+02  0.30337414741E+02 -0.15531683026E+03  0.15863134828E+03  0.00000000000E+00 0. -1.
        -14    1    4    4    0    0 -0.30688954190E+02 -0.38206890926E+02 -0.25214626175E+03  0.25686439173E+03  0.00000000000E+00 0.  1.
        -13    1    3    3    0    0  0.41934248139E+02  0.10550822074E+02 -0.83784379182E+02  0.94284798395E+02  0.00000000000E+00 0. -1.
         13    1    3    3    0    0 -0.28730588233E+02 -0.22433820724E+02 -0.11335490001E+02  0.38173503193E+02  0.00000000000E+00 0.  1.
         -1    1    1    2    0  502  0.65204339601E+01  0.19752474836E+02 -0.62769001787E+02  0.66125818758E+02  0.00000000000E+00 0.  1.
<scales pt_clust_5="13000.00000" pt_clust_6="13000.00000" pt_clust_7="13000.00000" pt_clust_8="13000.00000" pt_clust_9="20.80087"></scales>
<clustering>
<clus scale="   20.801">  2  9  1 -1</clus>
<clus scale="   78.483">  5  6 -1 -1</clus>
<clus scale="   80.194">  2  5  1 -1</clus>
<clus scale="   90.454">  7  8 -1 -1</clus>
<clus scale="   20.801">  2  5  1 -1</clus>
</clustering>
</event>
<event>
 9    1  0.8429841E-005  0.1162804E+03  0.7546771E-02  0.1268394E+00
         21   -1    0    0  501  502  0.00000000000E+00  0.00000000000E+00  0.20037454453E+02  0.20037454453E+02  0.00000000000E+00 0. -1.
          1   -1    0    0  502    0 -0.00000000000E+00 -0.00000000000E+00 -0.82295735919E+03  0.82295735919E+03  0.00000000000E+00 0. -1.
         23    2    1    2    0    0  0.67062465501E+01  0.22329736856E+02 -0.41247262511E+03  0.42885995829E+03  0.11508086928E+03 0.  0.
        -24    2    1    2    0    0  0.28613061397E+02 -0.36135288886E+01 -0.16157382363E+03  0.18179715110E+03  0.78181447875E+02 0.  0.
         13    1    4    4    0    0  0.79335880781E+01  0.32612680098E+02 -0.34849136095E+02  0.48383788706E+02  0.00000000000E+00 0. -1.
        -14    1    4    4    0    0  0.20679473319E+02 -0.36226208987E+02 -0.12672468753E+03  0.13341336239E+03  0.00000000000E+00 0.  1.
        -11    1    3    3    0    0 -0.41816208753E+02 -0.17612997834E+02 -0.26021403963E+03  0.26414041612E+03  0.00000000000E+00 0.  1.
         11    1    3    3    0    0  0.48522455303E+02  0.39942734689E+02 -0.15225858548E+03  0.16471954218E+03  0.00000000000E+00 0. -1.
          2    1    1    2  501    0 -0.35319307947E+02 -0.18716207967E+02 -0.22887345600E+03  0.23233770425E+03  0.00000000000E+00 0. -1.
<scales pt_clust_5="13000.00000" pt_clust_6="13000.00000" pt_clust_7="13000.00000" pt_clust_8="13000.00000" pt_clust_9="39.97188"></scales>
<clustering>
<clus scale="   39.972">  1  9  2 -1</clus>
<clus scale="   78.181">  5  6 -1 -1</clus>
<clus scale="   79.937">  1  5  2 -1</clus>
<clus scale="  115.081">  7  8 -1 -1</clus>
<clus scale="   39.972">  1  5  2 -1</clus>
</clustering>
</event>
<event>
 9    1  0.8429841E-005  0.9952135E+02  0.7546771E-02  0.1285433E+00
         -4   -1    0    0    0  501 -0.00000000000E+00  0.00000000000E+00  0.41729525404E+03  0.41729525404E+03  0.00000000000E+00 0.  1.
         21   -1    0    0  501  502  0.00000000000E+00 -0.00000000000E+00 -0.57469924773E+02  0.57469924773E+02  0.00000000000E+00 0.  1.
        -24    2    1    2    0    0 -0.14589058570E+02 -0.45783674658E+02  0.24765757915E+03  0.26531785569E+03  0.82160224823E+02 0.  0.
         23    2    1    2    0    0 -0.28559387896E+02  0.33004918172E+02  0.12713472410E+03  0.16202269493E+03  0.90460777907E+02 0.  0.
         11    1    3    3    0    0  0.21581087060E+02 -0.20740689575E+02  0.26977091796E+02  0.40294950112E+02  0.00000000000E+00 0. -1.
        -12    1    3    3    0    0 -0.36170145630E+02 -0.25042985083E+02  0.22068048735E+03  0.22502290558E+03  0.00000000000E+00 0.  1.
        -11    1    4    4    0    0  0.74193129136E+00  0.38593617365E+02  0.82759302622E+01  0.39477953152E+02  0.00000000000E+00 0.  1.
         11    1    4    4    0    0 -0.29301319187E+02 -0.55886991929E+01  0.11885879383E+03  0.12254474177E+03  0.00000000000E+00 0. -1.
         -3    1    1    2    0  502  0.43148446466E+02  0.12778756486E+02 -0.14966973976E+02  0.47424628198E+02  0.00000000000E+00 0.  1.
<scales pt_clust_5="13000.00000" pt_clust_6="13000.00000" pt_clust_7="13000.00000" pt_clust_8="13000.00000" pt_clust_9="45.00094"></scales>
<clustering>
<clus scale="   45.001">  2  9  1 -1</clus>
<clus scale="   82.160">  5  6 -1 -1</clus>
<clus scale="   90.461">  7  8 -1 -1</clus>
<clus scale="   92.042">  1  5  2 -1</clus>
<clus scale="   45.001">  2  5  1 -1</clus>
</clustering>
</event>
<event>
 9    1  0.8429841E-005  0.1419725E+03  0.7546771E-02  0.1213487E+00
         21   -1    0    0  501  502  0.00000000000E+00  0.00000000000E+00  0.89395525166E+02  0.89395525166E+02  0.00000000000E+00 0. -1.
          1   -1    0    0  502    0 -0.00000000000E+00 -0.00000000000E+00 -0.10114813051E+04  0.10114813051E+04  0.00000000000E+00 0. -1.
        -24    2    1    2    0    0  0.20043895773E+02 -0.77315049836E+02 -0.52230348157E+02  0.12368559269E+03  0.78681267659E+02 0.  0.
         23    2    1    2    0    0  0.41349181352E+02  0.15166369850E+03 -0.11318425393E+03  0.21440155303E+03  0.91900589561E+02 0.  0.
         11    1    3    3    0    0 -0.22328695843E+02 -0.39430529831E+02  0.16823363799E+01  0.45344984248E+02  0.00000000000E+00 0. -1.
        -12    1    3    3    0    0  0.42372591616E+02 -0.37884520005E+02 -0.53912684537E+02  0.78340608437E+02  0.00000000000E+00 0.  1.
        -11    1    4    4    0    0 -0.18434960544E+02  0.34946884028E+02 -0.62228419226E+02  0.73712337047E+02  0.00000000000E+00 0.  1.
         11    1    4    4    0    0  0.59784141896E+02  0.11671681447E+03 -0.50955834702E+02  0.14068921598E+03  0.00000000000E+00 0. -1.
          2    1    1    2  501    0 -0.61393077125E+02 -0.74348648663E+02 -0.75667117789E+03  0.76278968460E+03  0.00000000000E+00 0. -1.
<scales pt_clust_5="13000.00000" pt_clust_6="13000.00000" pt_clust_7="13000.00000" pt_clust_8="13000.00000" pt_clust_9="96.42013"></scales>
<clustering>
<clus scale="   78.681">  5  6 -1 -1</clus>
<clus scale="   91.901">  7  8 -1 -1</clus>
<clus scale="   96.420">  1  9  2 -1</clus>
<clus scale="  133.795">  2  5  1 -1</clus>
<clus scale="   96.420">  1  5  2 -1</clus>
</clustering>
</event>
<event>
 9    1  0.8429841E-005  0.1329565E+03  0.7546771E-02  0.1226779E+00
         -4   -1    0    0    0  501 -0.00000000000E+00  0.00000000000E+00  0.18568323061E+03  0.18568323061E+03  0.00000000000E+00 0.  1.
         21   -1    0    0  501  502  0.00000000000E+00 -0.00000000000E+00 -0.22415303840E+03  0.22415303840E+03  0.00000000000E+00 0.  1.
        -24    2    1    2    0    0  0.81517695078E+02 -0.51079707080E+02  0.29116559973E+02  0.12441676605E+03  0.73331347485E+02 0.  0.
         23    2    1    2    0    0 -0.12308398854E+03 -0.14517343672E+01 -0.12547519230E+03  0.19688462226E+03  0.88700365458E+02 0.  0.
         11    1    3    3    0    0  0.50756748958E+01 -0.43750275052E+02  0.13347973622E+02  0.46021923500E+02  0.00000000000E+00 0. -1.
        -12    1    3    3    0    0  0.76442020182E+02 -0.73294320282E+01  0.15768586351E+02  0.78394842553E+02  0.00000000000E+00 0.  1.
        -11    1    4    4    0    0 -0.95287132045E+02 -0.37652197448E+02 -0.10550095766E+03  0.14706385543E+03  0.00000000000E+00 0.  1.
         11    1    4    4    0    0 -0.27796856495E+02  0.36200463081E+02 -0.19974234638E+02  0.49820766831E+02  0.00000000000E+00 0. -1.
         -3    1    1    2    0  502  0.41566293462E+02  0.52531441448E+02  0.57888824545E+02  0.88534880696E+02  0.00000000000E+00 0.  1.
<scales pt_clust_5="13000.00000" pt_clust_6="13000.00000" pt_clust_7="13000.00000" pt_clust_8="13000.00000" pt_clust_9="66.98741"></scales>
<clustering>
<clus scale="   66.987">  2  9  1 -1</clus>
<clus scale="   73.331">  5  6 -1 -1</clus>
<clus scale="   88.700">  7  8 -1 -1</clus>
<clus scale="  123.236">  1  5  2 -1</clus>
<clus scale="   66.987">  2  5  1 -1</clus>
</clustering>
</event>
<event>
 9    1  0.8429841E-005  0.2557177E+03  0.7546771E-02  0.1109744E+00
          3   -1    0    0  502    0 -0.00000000000E+00  0.00000000000E+00  0.32393317755E+03  0.32393317755E+03  0.00000000000E+00 0. -1.
         21   -1    0    0  501  502  0.00000000000E+00 -0.00000000000E+00 -0.22825613762E+03  0.22825613762E+03  0.00000000000E+00 0. -1.
        -24    2    1    2    0    0  0.57143693532E+02 -0.82523761452E+02  0.64701262362E+02  0.13894169124E+03  0.71013852864E+02 0.  0.
         23    2    1    2    0    0  0.89221496204E+02 -0.69479470038E+02  0.12774538519E+03  0.18110088562E+03  0.60751750548E+02 0.  0.
         11    1    3    3    0    0  0.70968913563E+02 -0.81061958947E+02  0.63326759153E+02  0.12497162200E+03  0.00000000000E+00 0. -1.
        -12    1    3    3    0    0 -0.13825220031E+02 -0.14618025050E+01  0.13745032089E+01  0.13970069239E+02  0.00000000000E+00 0.  1.
        -13    1    4    4    0    0  0.12515623564E+02 -0.17382159358E+02 -0.21265307592E+01  0.21524461207E+02  0.00000000000E+00 0. -1.
         13    1    4    4    0    0  0.76705872640E+02 -0.52097310680E+02  0.12987191595E+03  0.15957642441E+03  0.00000000000E+00 0.  1.
          4    1    1    2  501    0 -0.14636518974E+03  0.15200323149E+03 -0.96769607620E+02  0.23214673831E+03  0.00000000000E+00 0. -1.
<scales pt_clust_5="13000.00000" pt_clust_6="13000.00000" pt_clust_7="13000.00000" pt_clust_8="13000.00000" pt_clust_9="211.01600"></scales>
<clustering>
<clus scale="   60.752">  7  8 -1 -1</clus>
<clus scale="   71.014">  5  6 -1 -1</clus>
<clus scale="   86.355">  5  7 -1 -1</clus>
<clus scale="  211.016">  2  9  1 -1</clus>
<clus scale="  211.016">  2  5  1 -1</clus>
</clustering>
</event>
<event>
 9    1  0.8429841E-005  0.1048131E+03  0.7546771E-02  0.1278618E+00
          1   -1    0    0  502    0 -0.00000000000E+00  0.00000000000E+00  0.76468144780E+03  0.76468144780E+03  0.00000000000E+00 0. -1.
         21   -1    0    0  501  502  0.00000000000E+00 -0.00000000000E+00 -0.26041846879E+02  0.26041846879E+02  0.00000000000E+00 0. -1.
        -24    2    1    2    0    0 -0.13584299913E+02 -0.46934252540E+02  0.25061972327E+03  0.26659759958E+03  0.76659488267E+02 0.  0.
         23    2    1    2    0    0 -0.57286493697E+02  0.40407291691E+02  0.25860245110E+03  0.28392239327E+03  0.93926599564E+02 0.  0.
         13    1    3    3    0    0  0.21505643496E+02 -0.47812668145E+02  0.18365083626E+03  0.19098736502E+03  0.00000000000E+00 0. -1.
        -14    1    3    3    0    0 -0.35089943409E+02  0.87841560538E+00  0.66968887011E+02  0.75610234558E+02  0.00000000000E+00 0.  1.
        -11    1    4    4    0    0  0.17946975545E+02  0.35626992019E+02  0.11521737935E+03  0.12192793361E+03  0.00000000000E+00 0.  1.
         11    1    4    4    0    0 -0.75233469242E+02  0.47802996717E+01  0.14338507175E+03  0.16199445966E+03  0.00000000000E+00 0. -1.
          2    1    1    2  501    0  0.70870793610E+02  0.65269608487E+01  0.22941742655E+03  0.24020330183E+03  0.00000000000E+00 0. -1.
<scales pt_clust_5="13000.00000" pt_clust_6="13000.00000" pt_clust_7="13000.00000" pt_clust_8="13000.00000" pt_clust_9="71.17075"></scales>
<clustering>
<clus scale="   71.171">  2  9  1 -1</clus>
<clus scale="   76.659">  5  6 -1 -1</clus>
<clus scale="   89.667">  1  5  2 -1</clus>
<clus scale="   93.927">  7  8 -1 -1</clus>
<clus scale="   71.171">  2  5  1 -1</clus>
</clustering>
</event>
<event>
 9    1  0.8429841E-005  0.1410181E+03  0.7546771E-02  0.1232837E+00
         -2   -1    0    0    0  501 -0.00000000000E+00  0.00000000000E+00  0.31871259906E+03  0.31871259906E+03  0.00000000000E+00 0.  1.
         21   -1    0    0  501  502  0.00000000000E+00 -0.00000000000E+00 -0.16889711157E+03  0.16889711157E+03  0.00000000000E+00 0. -1.
        -24    2    1    2    0    0 -0.31012426250E+02 -0.30574815897E+02  0.28578719079E+02  0.95514167282E+02  0.80060121273E+02 0.  0.
         23    2    1    2    0    0  0.10510943060E+03 -0.32457814972E+02 -0.83125217647E+02  0.16576105646E+03  0.92007738125E+02 0.  0.
         11    1    3    3    0    0  0.18589656237E+02  0.13246615522E+02  0.16667921953E+02  0.28264248867E+02  0.00000000000E+00 0. -1.
        -12    1    3    3    0    0 -0.49602082487E+02 -0.43821431418E+02  0.11910797126E+02  0.67249918415E+02  0.00000000000E+00 0.  1.
        -13    1    4    4    0    0  0.29509069583E+02 -0.49947962847E+01  0.19236907339E+02  0.35577967643E+02  0.00000000000E+00 0.  1.
         13    1    4    4    0    0  0.75600361017E+02 -0.27463018687E+02 -0.10236212499E+03  0.13018308881E+03  0.00000000000E+00 0. -1.
         -1    1    1    2    0  502 -0.74097004351E+02  0.63032630869E+02  0.20436198607E+03  0.22633448689E+03  0.00000000000E+00 0.  1.
<scales pt_clust_5="13000.00000" pt_clust_6="13000.00000" pt_clust_7="13000.00000" pt_clust_8="13000.00000" pt_clust_9="106.86760"></scales>
<clustering>
<clus scale="   80.060">  5  6 -1 -1</clus>
<clus scale="   91.138">  1  5  2 -1</clus>
<clus scale="   92.008">  7  8 -1 -1</clus>
<clus scale="  106.868">  2  9  1 -1</clus>
<clus scale="  106.868">  2  5  1 -1</clus>
</clustering>
</event>
<event>
 9    1  0.8429841E-005  0.1519811E+03  0.7546771E-02  0.1200427E+00
         -4   -1    0    0    0  501 -0.00000000000E+00  0.00000000000E+00  0.16974062556E+03  0.16974062556E+03  0.00000000000E+00 0.  1.
         21   -1    0    0  501  502  0.00000000000E+00 -0.00000000000E+00 -0.29718455918E+03  0.29718455918E+03  0.00000000000E+00 0.  1.
        -24    2    1    2    0    0  0.25591798603E+01  0.13102473875E+03 -0.50692592738E+02  0.16135302667E+03  0.79316005265E+02 0.  0.
         23    2    1    2    0    0 -0.11760078129E+03 -0.78579140001E+02 -0.51341401254E+02  0.17661179238E+03  0.92472486289E+02 0.  0.
         11    1    3    3    0    0  0.33081686797E+02  0.71176131339E+02 -0.52011751527E+02  0.94157644249E+02  0.00000000000E+00 0. -1.
        -12    1    3    3    0    0 -0.30522506937E+02  0.59848607413E+02  0.13191587884E+01  0.67195382422E+02  0.00000000000E+00 0.  1.
        -13    1    4    4    0    0  0.12033988454E+02 -0.26822686961E+02 -0.86707116746E+01  0.30650524545E+02  0.00000000000E+00 0. -1.
         13    1    4    4    0    0 -0.12963476975E+03 -0.51756453039E+02 -0.42670689580E+02  0.14596126783E+03  0.00000000000E+00 0.  1.
         -3    1    1    2    0  502  0.11504160143E+03 -0.52445598751E+02 -0.25409939620E+02  0.12896036569E+03  0.00000000000E+00 0.  1.
<scales pt_clust_5="13000.00000" pt_clust_6="13000.00000" pt_clust_7="13000.00000" pt_clust_8="13000.00000" pt_clust_9="126.43230"></scales>
<clustering>
<clus scale="   79.316">  5  6 -1 -1</clus>
<clus scale="   92.472">  7  8 -1 -1</clus>
<clus scale="  126.432">  2  9  1 -1</clus>
<clus scale="  144.354">  1  5  2 -1</clus>
<clus scale="  126.432">  2  5  1 -1</clus>
</clustering>
</event>
<event>
 9    1  0.8429841E-005  0.1193911E+03  0.7546771E-02  0.1247333E+00
         21   -1    0    0  501  502  0.00000000000E+00  0.00000000000E+00  0.22299797231E+03  0.22299797231E+03  0.00000000000E+00 0. -1.
          1   -1    0    0  502    0 -0.00000000000E+00 -0.00000000000E+00 -0.18349683344E+03  0.18349683344E+03  0.00000000000E+00 0. -1.
         23    2    1    2    0    0 -0.85111381004E+02  0.56971620472E+02 -0.67773145363E+02  0.15252390836E+03  0.90446838937E+02 0.  0.
        -24    2    1    2    0    0  0.61178543104E+02  0.51558236260E+02  0.25985424232E+02  0.11627779919E+03  0.80275889588E+02 0.  0.
         13    1    4    4    0    0  0.64106353445E+02  0.69851745559E+02  0.21560974009E+02  0.97230481382E+02  0.00000000000E+00 0. -1.
        -14    1    4    4    0    0 -0.29278103403E+01 -0.18293509299E+02  0.44244502223E+01  0.19047317807E+02  0.00000000000E+00 0.  1.
        -11    1    3    3    0    0 -0.52368445200E+02  0.76102607152E+02 -0.25711957309E+02  0.95891426190E+02  0.00000000000E+00 0.  1.
         11    1    3    3    0    0 -0.32742935804E+02 -0.19130986680E+02 -0.42061188054E+02  0.56632482172E+02  0.00000000000E+00 0. -1.
          2    1    1    2  501    0  0.23932837900E+02 -0.10852985673E+03  0.81288859995E+02  0.13769309820E+03  0.00000000000E+00 0. -1.
<scales pt_clust_5="13000.00000" pt_clust_6="13000.00000" pt_clust_7="13000.00000" pt_clust_8="13000.00000" pt_clust_9="111.13735"></scales>
<clustering>
<clus scale="   80.276">  5  6 -1 -1</clus>
<clus scale="   90.447">  7  8 -1 -1</clus>
<clus scale="  111.137">  1  9  2 -1</clus>
<clus scale="  111.883">  1  5  2 -1</clus>
<clus scale="  111.137">  1  5  2 -1</clus>
</clustering>
</event>
<event>
 9    1  0.8429841E-005  0.4790858E+03  0.7546771E-02  0.1079597E+00
          1   -1    0    0  502    0 -0.00000000000E+00  0.00000000000E+00  0.10407423418E+04  0.10407423418E+04  0.00000000000E+00 0. -1.
         21   -1    0    0  501  502  0.00000000000E+00 -0.00000000000E+00 -0.90925721957E+03  0.90925721957E+03  0.00000000000E+00 0. -1.
        -24    2    1    2    0    0 -0.26035623152E+02 -0.40915932939E+01  0.43535999053E+01  0.85807255162E+02  0.81543463243E+02 0.  0.
         23    2    1    2    0    0 -0.43043979803E+03  0.12358590533E+03  0.87077257496E+03  0.98348195885E+03  0.91869420217E+02 0.  0.
         13    1    3    3    0    0 -0.15350349368E+02  0.28894558980E+02 -0.24357257132E+02  0.40789762679E+02  0.00000000000E+00 0. -1.
        -14    1    3    3    0    0 -0.10685273784E+02 -0.32986152274E+02  0.28710857037E+02  0.45017492483E+02  0.00000000000E+00 0.  1.
        -13    1    4    4    0    0 -0.27829810859E+03  0.11961743733E+03  0.53440767120E+03  0.61428798425E+03  0.00000000000E+00 0. -1.
         13    1    4    4    0    0 -0.15214168944E+03  0.39684679996E+01  0.33636490375E+03  0.36919397460E+03  0.00000000000E+00 0.  1.
          2    1    1    2  501    0  0.45647542118E+03 -0.11949431204E+03 -0.74364105264E+03  0.88071034735E+03  0.00000000000E+00 0. -1.
<scales pt_clust_5="13000.00000" pt_clust_6="13000.00000" pt_clust_7="13000.00000" pt_clust_8="13000.00000" pt_clust_9="470.19484"></scales>
<clustering>
<clus scale="   81.543">  5  6 -1 -1</clus>
<clus scale="   85.697">  1  5  2 -1</clus>
<clus scale="   91.869">  7  8 -1 -1</clus>
<clus scale="  470.195">  2  9  1 -1</clus>
<clus scale="  470.195">  2  5  1 -1</clus>
</clustering>
</event>
<event>
 9    1  0.8429841E-005  0.1299779E+03  0.7546771E-02  0.1243469E+00
          3   -1    0    0  502    0 -0.00000000000E+00  0.00000000000E+00  0.53835031565E+02  0.53835031565E+02  0.00000000000E+00 0. -1.
         21   -1    0    0  501  502  0.00000000000E+00 -0.00000000000E+00 -0.11549964246E+04  0.11549964246E+04  0.00000000000E+00 0. -1.
         23    2    1    2    0    0 -0.87313818606E+01 -0.32884820172E+01 -0.13343331447E+02  0.94670176159E+02  0.93259565819E+02 0.  0.
        -24    2    1    2    0    0 -0.58896540566E+01  0.10414289983E+03 -0.74902098191E+03  0.76036918077E+03  0.79046999407E+02 0.  0.
         11    1    4    4    0    0 -0.23139651236E+02  0.91496809538E+02 -0.41205320006E+03  0.42272325379E+03  0.00000000000E+00 0. -1.
        -12    1    4    4    0    0  0.17249997180E+02  0.12646090294E+02 -0.33696778185E+03  0.33764592698E+03  0.00000000000E+00 0.  1.
        -11    1    3    3    0    0 -0.46091053031E+02  0.19167819176E+02 -0.39022904279E+01  0.50070134133E+02  0.00000000000E+00 0.  1.
         11    1    3    3    0    0  0.37359671171E+02 -0.22456301193E+02 -0.94410410194E+01  0.44600042027E+02  0.00000000000E+00 0. -1.
          4    1    1    2  501    0  0.14621035917E+02 -0.10085441781E+03 -0.33879707972E+03  0.35379209928E+03  0.00000000000E+00 0. -1.
<scales pt_clust_5="13000.00000" pt_clust_6="13000.00000" pt_clust_7="13000.00000" pt_clust_8="13000.00000" pt_clust_9="103.17868"></scales>
<clustering>
<clus scale="   79.047">  5  6 -1 -1</clus>
<clus scale="   93.260">  7  8 -1 -1</clus>
<clus scale="   93.725">  1  7  2 -1</clus>
<clus scale="  103.179">  2  9  1 -1</clus>
<clus scale="  103.179">  2  5  1 -1</clus>
</clustering>
</event>
<event>
 9    1  0.8429841E-005  0.9560710E+02  0.7546771E-02  0.1296197E+00
         21   -1    0    0  501  502  0.00000000000E+00  0.00000000000E+00  0.35402919180E+02  0.35402919180E+02  0.00000000000E+00 0.  1.
          1   -1    0    0  502    0 -0.00000000000E+00 -0.00000000000E+00 -0.42213925210E+03  0.42213925210E+03  0.00000000000E+00 0. -1.
         23    2    1    2    0    0  0.53273511650E+01  0.22508848951E+02 -0.22833538959E+03  0.24748327712E+03  0.92606119479E+02 0.  0.
        -24    2    1    2    0    0  0.23369298065E+02 -0.26262120053E+02 -0.59095565900E+02  0.10662223379E+03  0.81487371953E+02 0.  0.
         11    1    4    4    0    0 -0.27250300915E+02 -0.21605382770E+02 -0.38208779112E+02  0.51665097172E+02  0.00000000000E+00 0. -1.
        -12    1    4    4    0    0  0.50619598980E+02 -0.46567372830E+01 -0.20886786788E+02  0.54957136619E+02  0.00000000000E+00 0.  1.
        -13    1    3    3    0    0  0.43557187908E+02  0.33568686274E+02 -0.14657781531E+03  0.15655395638E+03  0.00000000000E+00 0. -1.
         13    1    3    3    0    0 -0.38229836743E+02 -0.11059837323E+02 -0.81757574272E+02  0.90929320738E+02  0.00000000000E+00 0.  1.
          2    1    1    2  501    0 -0.28696649230E+02  0.37532711022E+01 -0.99305377436E+02  0.10343666037E+03  0.00000000000E+00 0. -1.
<scales pt_clust_5="13000.00000" pt_clust_6="13000.00000" pt_clust_7="13000.00000" pt_clust_8="13000.00000" pt_clust_9="28.94107"></scales>
<clustering>
<clus scale="   28.941">  1  9  2 -1</clus>
<clus scale="   81.487">  5  6 -1 -1</clus>
<clus scale="   84.882">  1  5  2 -1</clus>
<clus scale="   92.606">  7  8 -1 -1</clus>
<clus scale="   28.941">  1  5  2 -1</clus>
</clustering>
</event>
<event>
 9    1  0.8429841E-005  0.1278076E+03  0.7546771E-02  0.1232662E+00
         21   -1    0    0  501  502  0.00000000000E+00  0.00000000000E+00  0.33805703228E+02  0.33805703228E+02  0.00000000000E+00 0. -1.
          1   -1    0    0  502    0 -0.00000000000E+00 -0.00000000000E+00 -0.69075146847E+03  0.69075146847E+03  0.00000000000E+00 0. -1.
        -24    2    1    2    0    0  0.79952006823E+02 -0.68058121138E+02 -0.40051036081E+03  0.42257689685E+03  0.84489368509E+02 0.  0.
         23    2    1    2    0    0 -0.51319270983E+02  0.47474630625E+02 -0.23218637097E+03  0.25918390506E+03  0.91532932032E+02 0.  0.
         11    1    3    3    0    0  0.32269987255E+02  0.17291260578E+02 -0.12401508424E+03  0.12930615179E+03  0.00000000000E+00 0. -1.
        -12    1    3    3    0    0  0.47682019568E+02 -0.85349381716E+02 -0.27649527656E+03  0.29327074507E+03  0.00000000000E+00 0.  1.
        -13    1    4    4    0    0 -0.42882727297E+02  0.70655525849E+02 -0.12989846398E+03  0.15396344559E+03  0.00000000000E+00 0.  1.
         13    1    4    4    0    0 -0.84365436855E+01 -0.23180895225E+02 -0.10228790700E+03  0.10522045947E+03  0.00000000000E+00 0. -1.
          2    1    1    2  501    0 -0.28632735841E+02  0.20583490513E+02 -0.24249033459E+02  0.42796369789E+02  0.00000000000E+00 0. -1.
<scales pt_clust_5="13000.00000" pt_clust_6="13000.00000" pt_clust_7="13000.00000" pt_clust_8="13000.00000" pt_clust_9="35.26349"></scales>
<clustering>
<clus scale="   35.263">  1  9  2 -1</clus>
<clus scale="   84.489">  5  6 -1 -1</clus>
<clus scale="   91.533">  7  8 -1 -1</clus>
<clus scale="  122.862">  2  5  1 -1</clus>
<clus scale="   35.263">  1  5  2 -1</clus>
</clustering>
</event>
<event>
 9    1  0.8429841E-005  0.1252839E+03  0.7546771E-02  0.1236541E+00
         -4   -1    0    0    0  501 -0.00000000000E+00  0.00000000000E+00  0.85382158914E+02  0.85382158914E+02  0.00000000000E+00 0.  1.
         21   -1    0    0  501  502  0.00000000000E+00 -0.00000000000E+00 -0.38309125903E+03  0.38309125903E+03  0.00000000000E+00 0. -1.
         23    2    1    2    0    0  0.86381161392E+02 -0.62915406174E+02 -0.43280098836E+02  0.14499181377E+03  0.87917038886E+02 0.  0.
        -24    2    1    2    0    0 -0.73068153285E+02  0.16442886470E+02 -0.65014264174E+02  0.12799535426E+03  0.80911263905E+02 0.  0.
         13    1    4    4    0    0 -0.28640445241E+02 -0.96743637819E+01  0.14273591656E+02  0.33430582360E+02  0.00000000000E+00 0. -1.
        -14    1    4    4    0    0 -0.44427708044E+02  0.26117250252E+02 -0.79287855830E+02  0.94564771902E+02  0.00000000000E+00 0.  1.
        -13    1    3    3    0    0  0.34145612517E+02  0.15057822367E+02  0.78205792547E+01  0.38129022128E+02  0.00000000000E+00 0.  1.
         13    1    3    3    0    0  0.52235548876E+02 -0.77973228541E+02 -0.51100678091E+02  0.10686279164E+03  0.00000000000E+00 0. -1.
         -3    1    1    2    0  502 -0.13313008107E+02  0.46472519704E+02 -0.18941473711E+03  0.19548624992E+03  0.00000000000E+00 0.  1.
<scales pt_clust_5="13000.00000" pt_clust_6="13000.00000" pt_clust_7="13000.00000" pt_clust_8="13000.00000" pt_clust_9="48.34182"></scales>
<clustering>
<clus scale="   48.342">  2  9  1 -1</clus>
<clus scale="   80.911">  5  6 -1 -1</clus>
<clus scale="   87.917">  7  8 -1 -1</clus>
<clus scale="  120.471">  2  5  1 -1</clus>
<clus scale="   48.342">  2  5  1 -1</clus>
</clustering>
</event>
<event>
 9    1  0.8429841E-005  0.1608785E+03  0.7546771E-02  0.1189771E+00
         21   -1    0    0  501  502  0.00000000000E+00  0.00000000000E+00  0.21046672973E+03  0.21046672973E+03  0.00000000000E+00 0. -1.
          3   -1    0    0  502    0 -0.00000000000E+00 -0.00000000000E+00 -0.38164217171E+03  0.38164217171E+03  0.00000000000E+00 0. -1.
        -24    2    1    2    0    0  0.12883327239E+03  0.41095366823E+02 -0.29240400632E+03  0.33206701357E+03  0.80508119688E+02 0.  0.
         23    2    1    2    0    0 -0.11874418949E+03  0.13849151437E+02  0.32524333908E+02  0.15521283570E+03  0.93494441217E+02 0.  0.
         11    1    3    3    0    0  0.13014575644E+03  0.29302901598E+02 -0.29099717362E+03  0.32011862335E+03  0.00000000000E+00 0. -1.
        -12    1    3    3    0    0 -0.13124840514E+01  0.11792465225E+02 -0.14068327035E+01  0.11948390214E+02  0.00000000000E+00 0.  1.
        -11    1    4    4    0    0 -0.10010435130E+03 -0.23005022752E+02  0.44899940095E+02  0.11209869242E+03  0.00000000000E+00 0.  1.
         11    1    4    4    0    0 -0.18639838188E+02  0.36854174189E+02 -0.12375606188E+02  0.43114143287E+02  0.00000000000E+00 0. -1.
          4    1    1    2  501    0 -0.10089082904E+02 -0.54944518260E+02  0.88704230434E+02  0.10482905216E+03  0.00000000000E+00 0. -1.
<scales pt_clust_5="13000.00000" pt_clust_6="13000.00000" pt_clust_7="13000.00000" pt_clust_8="13000.00000" pt_clust_9="55.86313"></scales>
<clustering>
<clus scale="   55.863">  1  9  2 -1</clus>
<clus scale="   80.508">  5  6 -1 -1</clus>
<clus scale="   93.494">  7  8 -1 -1</clus>
<clus scale="  153.695">  2  5  1 -1</clus>
<clus scale="   55.863">  1  5  2 -1</clus>
</clustering>
</event>
<event>
 9    1  0.8429841E-005  0.1727486E+03  0.7546771E-02  0.1176295E+00
         -4   -1    0    0    0  501 -0.00000000000E+00  0.00000000000E+00  0.69823204064E+03  0.69823204064E+03  0.00000000000E+00 0.  1.
         21   -1    0    0  501  502  0.00000000000E+00 -0.00000000000E+00 -0.35181129223E+03  0.35181129223E+03  0.00000000000E+00 0. -1.
         23    2    1    2    0    0  0.85131969087E+02 -0.11926282675E+03  0.58954533898E+03  0.61437271509E+03  0.91755394046E+02 0.  0.
        -24    2    1    2    0    0 -0.19574309387E+02  0.15975606570E+03 -0.29275714060E+03  0.34401419864E+03  0.82060169266E+02 0.  0.
         11    1    4    4    0    0 -0.48240236253E+02  0.91758250347E+02 -0.13835043362E+03  0.17288013010E+03  0.00000000000E+00 0. -1.
        -12    1    4    4    0    0  0.28665926865E+02  0.67997815354E+02 -0.15440670698E+03  0.17113406854E+03  0.00000000000E+00 0.  1.
        -11    1    3    3    0    0  0.51121364541E+02 -0.11663020168E+03  0.53573046871E+03  0.55065700119E+03  0.00000000000E+00 0.  1.
         11    1    3    3    0    0  0.34010604546E+02 -0.26326250731E+01  0.53814870270E+02  0.63715713906E+02  0.00000000000E+00 0. -1.
         -3    1    1    2    0  502 -0.65557659700E+02 -0.40493238949E+02  0.49632550036E+02  0.91656419137E+02  0.00000000000E+00 0.  1.
<scales pt_clust_5="13000.00000" pt_clust_6="13000.00000" pt_clust_7="13000.00000" pt_clust_8="13000.00000" pt_clust_9="77.05527"></scales>
<clustering>
<clus scale="   77.055">  2  9  1 -1</clus>
<clus scale="   82.060">  5  6 -1 -1</clus>
<clus scale="   91.755">  7  8 -1 -1</clus>
<clus scale="  167.800">  2  5  1 -1</clus>
<clus scale="   77.055">  2  5  1 -1</clus>
</clustering>
</event>
<event>
 9    1  0.8429841E-005  0.1186998E+03  0.7546771E-02  0.1249257E+00
         21   -1    0    0  501  502  0.00000000000E+00  0.00000000000E+00  0.53200810467E+02  0.53200810467E+02  0.00000000000E+00 0. -1.
          1   -1    0    0  502    0 -0.00000000000E+00 -0.00000000000E+00 -0.45743893498E+03  0.45743893498E+03  0.00000000000E+00 0. -1.
         23    2    1    2    0    0 -0.76870049166E+02  0.23053828885E+02 -0.28707797824E+03  0.31191717583E+03  0.91858997945E+02 0.  0.
        -24    2    1    2    0    0  0.53297756926E+02 -0.27455406301E+02 -0.24048495368E+02  0.10257265345E+03  0.79676652019E+02 0.  0.
         11    1    4    4    0    0  0.17307886176E+02 -0.26016337135E+02  0.26179512874E+02  0.40764931205E+02  0.00000000000E+00 0. -1.
        -12    1    4    4    0    0  0.35989870750E+02 -0.14390691666E+01 -0.50228008242E+02  0.61807722241E+02  0.00000000000E+00 0.  1.
        -11    1    3    3    0    0 -0.54032406952E+02 -0.91112260941E+01 -0.59267553568E+02  0.80716530822E+02  0.00000000000E+00 0. -1.
         11    1    3    3    0    0 -0.22837642214E+02  0.32165054979E+02 -0.22781042467E+03  0.23120064501E+03  0.00000000000E+00 0.  1.
          2    1    1    2  501    0  0.23572292240E+02  0.44015774165E+01 -0.93111650908E+02  0.96149916172E+02  0.00000000000E+00 0. -1.
<scales pt_clust_5="13000.00000" pt_clust_6="13000.00000" pt_clust_7="13000.00000" pt_clust_8="13000.00000" pt_clust_9="23.97973"></scales>
<clustering>
<clus scale="   23.980">  1  9  2 -1</clus>
<clus scale="   79.677">  5  6 -1 -1</clus>
<clus scale="   91.859">  7  8 -1 -1</clus>
<clus scale="  109.544">  1  5  2 -1</clus>
<clus scale="   23.980">  1  5  2 -1</clus>
</clustering>
</event>
<event>
 9    1  0.8429841E-005  0.1876504E+03  0.7546771E-02  0.1174246E+00
         21   -1    0    0  501  502  0.00000000000E+00  0.00000000000E+00  0.35321389624E+03  0.35321389624E+03  0.00000000000E+00 0.  1.
         -2   -1    0    0    0  501 -0.00000000000E+00 -0.00000000000E+00 -0.18438680532E+03  0.18438680532E+03  0.00000000000E+00 0.  1.
        -24    2    1    2    0    0  0.87685860148E+02 -0.67162543421E+02  0.68978472813E+02  0.15350784545E+03  0.81283525968E+02 0.  0.
         23    2    1    2    0    0 -0.14280992587E+03 -0.96100803590E+02  0.27253511568E+02  0.19710720803E+03  0.92078543564E+02 0.  0.
         13    1    3    3    0    0  0.39034595584E+02 -0.48140661854E+01  0.62908385827E+02  0.74191238654E+02  0.00000000000E+00 0. -1.
        -14    1    3    3    0    0  0.48651264565E+02 -0.62348477235E+02  0.60700869854E+01  0.79316606794E+02  0.00000000000E+00 0.  1.
        -11    1    4    4    0    0 -0.11122183057E+03 -0.33455627392E+02  0.45297703150E+02  0.12466537815E+03  0.00000000000E+00 0.  1.
         11    1    4    4    0    0 -0.31588095305E+02 -0.62645176198E+02 -0.18044191582E+02  0.72441829875E+02  0.00000000000E+00 0. -1.
         -1    1    1    2    0  502  0.55124065723E+02  0.16326334701E+03  0.72595106536E+02  0.18698564809E+03  0.00000000000E+00 0.  1.
<scales pt_clust_5="13000.00000" pt_clust_6="13000.00000" pt_clust_7="13000.00000" pt_clust_8="13000.00000" pt_clust_9="163.50605"></scales>
<clustering>
<clus scale="   81.284">  5  6 -1 -1</clus>
<clus scale="   92.079">  7  8 -1 -1</clus>
<clus scale="  137.137">  2  5  1 -1</clus>
<clus scale="  163.506">  1  9  2 -1</clus>
<clus scale="  163.506">  1  5  2 -1</clus>
</clustering>
</event>
<event>
 9    1  0.8429841E-005  0.9721730E+02  0.7546771E-02  0.1290293E+00
         21   -1    0    0  501  502  0.00000000000E+00  0.00000000000E+00  0.60653573406E+02  0.60653573406E+02  0.00000000000E+00 0.  1.
         -2   -1    0    0    0  501 -0.00000000000E+00 -0.00000000000E+00 -0.24063824637E+03  0.24063824637E+03  0.00000000000E+00 0.  1.
        -24    2    1    2    0    0 -0.26628639313E+02  0.21127326651E+02 -0.14102316766E+03  0.16677630588E+03  0.82288237451E+02 0.  0.
         23    2    1    2    0    0  0.19934116739E+02 -0.42682132730E+02 -0.45069299734E+02  0.11113322465E+03  0.90001213198E+02 0.  0.
         11    1    3    3    0    0 -0.24270700994E+02  0.15333070045E+02 -0.32844808209E+01  0.28895635969E+02  0.00000000000E+00 0. -1.
        -12    1    3    3    0    0 -0.23579383187E+01  0.57942566055E+01 -0.13773868684E+03  0.13788066991E+03  0.00000000000E+00 0.  1.
        -13    1    4    4    0    0 -0.10883633537E+02 -0.46336196665E+02  0.93312755251E+01  0.48503291675E+02  0.00000000000E+00 0.  1.
         13    1    4    4    0    0  0.30817750276E+02  0.36540639357E+01 -0.54400575259E+02  0.62629932970E+02  0.00000000000E+00 0. -1.
         -1    1    1    2    0  502  0.66945225741E+01  0.21554806079E+02  0.61077944347E+01  0.23382289248E+02  0.00000000000E+00 0.  1.
<scales pt_clust_5="13000.00000" pt_clust_6="13000.00000" pt_clust_7="13000.00000" pt_clust_8="13000.00000" pt_clust_9="22.57047"></scales>
<clustering>
<clus scale="   22.570">  1  9  2 -1</clus>
<clus scale="   82.288">  5  6 -1 -1</clus>
<clus scale="   90.001">  7  8 -1 -1</clus>
<clus scale="   90.124">  2  5  1 -1</clus>
<clus scale="   22.570">  1  5  2 -1</clus>
</clustering>
</event>
<event>
 9    1  0.8429841E-005  0.4139983E+03  0.7546771E-02  0.1098229E+00
          1   -1    0    0  502    0 -0.00000000000E+00  0.00000000000E+00  0.62808477178E+03  0.62808477178E+03  0.00000000000E+00 0. -1.
         21   -1    0    0  501  502  0.00000000000E+00 -0.00000000000E+00 -0.47092803852E+03  0.47092803852E+03  0.00000000000E+00 0. -1.
        -24    2    1    2    0    0 -0.10252937226E+02  0.12292587080E+02  0.14656649642E+03  0.16749260275E+03  0.79472030841E+02 0.  0.
         23    2    1    2    0    0  0.34702392682E+03 -0.21396034139E+03 -0.22405628332E+03  0.47419803229E+03  0.91966962885E+02 0.  0.
         13    1    3    3    0    0 -0.18739608648E+01  0.38333184474E+02  0.12992050247E+03  0.13547059357E+03  0.00000000000E+00 0. -1.
        -14    1    3    3    0    0 -0.83789763616E+01 -0.26040597394E+02  0.16645993952E+02  0.32022009184E+02  0.00000000000E+00 0.  1.
        -13    1    4    4    0    0  0.26388176436E+03 -0.19772420527E+03 -0.20187711469E+03  0.38663007688E+03  0.00000000000E+00 0. -1.
         13    1    4    4    0    0  0.83142162452E+02 -0.16236136117E+02 -0.22179168631E+02  0.87567955408E+02  0.00000000000E+00 0.  1.
          2    1    1    2  501    0 -0.33677098959E+03  0.20166775431E+03  0.23464652016E+03  0.45732217525E+03  0.00000000000E+00 0. -1.
<scales pt_clust_5="13000.00000" pt_clust_6="13000.00000" pt_clust_7="13000.00000" pt_clust_8="13000.00000" pt_clust_9="403.65432"></scales>
<clustering>
<clus scale="   79.472">  5  6 -1 -1</clus>
<clus scale="   81.068">  1  5  2 -1</clus>
<clus scale="   91.967">  7  8 -1 -1</clus>
<clus scale="  403.654">  2  9  1 -1</clus>
<clus scale="  403.654">  2  5  1 -1</clus>
</clustering>
</event>
<event>
 9    1  0.8429841E-005  0.3012350E+03  0.7546771E-02  0.1084625E+00
          1   -1    0    0  502    0 -0.00000000000E+00  0.00000000000E+00  0.98608194853E+03  0.98608194853E+03  0.00000000000E+00 0. -1.
         21   -1    0    0  501  502  0.00000000000E+00 -0.00000000000E+00 -0.14593613431E+03  0.14593613431E+03  0.00000000000E+00 0. -1.
        -24    2    1    2    0    0  0.70647384273E+02  0.54357428434E+02  0.30350478273E+03  0.32612233854E+03  0.79340050583E+02 0.  0.
         23    2    1    2    0    0  0.14245779667E+03  0.69577072832E+02  0.52905290595E+03  0.55925601028E+03  0.87949501655E+02 0.  0.
         13    1    3    3    0    0  0.46730529863E+02 -0.44606131001E+01  0.71091214261E+02  0.85191550259E+02  0.00000000000E+00 0. -1.
        -14    1    3    3    0    0  0.23916854411E+02  0.58818041534E+02  0.23241356847E+03  0.24093078828E+03  0.00000000000E+00 0.  1.
        -13    1    4    4    0    0  0.35817536788E+02 -0.17350316177E+02  0.17365856331E+03  0.17816067474E+03  0.00000000000E+00 0.  1.
         13    1    4    4    0    0  0.10664025988E+03  0.86927389009E+02  0.35539434264E+03  0.38109533554E+03  0.00000000000E+00 0. -1.
          2    1    1    2  501    0 -0.21310518094E+03 -0.12393450127E+03  0.75881255386E+01  0.24663973402E+03  0.00000000000E+00 0. -1.
<scales pt_clust_5="13000.00000" pt_clust_6="13000.00000" pt_clust_7="13000.00000" pt_clust_8="13000.00000" pt_clust_9="246.52298"></scales>
<clustering>
<clus scale="   79.340">  5  6 -1 -1</clus>
<clus scale="   87.950">  7  8 -1 -1</clus>
<clus scale="   89.799">  5  7 -1 -1</clus>
<clus scale="  246.523">  2  9  1 -1</clus>
<clus scale="  246.523">  2  5  1 -1</clus>
</clustering>
</event>
<event>
 9    1  0.8429841E-005  0.1350057E+03  0.7546771E-02  0.1222058E+00
         21   -1    0    0  501  502  0.00000000000E+00  0.00000000000E+00  0.62571785460E+02  0.62571785460E+02  0.00000000000E+00 0.  1.
          1   -1    0    0  502    0 -0.00000000000E+00 -0.00000000000E+00 -0.44440465795E+03  0.44440465795E+03  0.00000000000E+00 0. -1.
         23    2    1    2    0    0 -0.10551233562E+03  0.72991811671E+02 -0.22719825271E+03  0.27639745232E+03  0.91191271936E+02 0.  0.
        -24    2    1    2    0    0  0.56448018926E+02 -0.37066835919E+02 -0.77631246856E+02  0.13245952056E+03  0.83418133112E+02 0.  0.
         11    1    4    4    0    0  0.40372962650E+01 -0.26084123781E+02 -0.74252126549E+02  0.78803931194E+02  0.00000000000E+00 0. -1.
        -12    1    4    4    0    0  0.52410722661E+02 -0.10982712138E+02 -0.33791203069E+01  0.53655589362E+02  0.00000000000E+00 0.  1.
        -13    1    3    3    0    0 -0.32505443479E+02  0.74261653760E+02 -0.91071623018E+02  0.12192390083E+03  0.00000000000E+00 0. -1.
         13    1    3    3    0    0 -0.73006892140E+02 -0.12698420897E+01 -0.13612662969E+03  0.15447355149E+03  0.00000000000E+00 0.  1.
          2    1    1    2  501    0  0.49064316693E+02 -0.35924975752E+02 -0.77003372922E+02  0.98119470528E+02  0.00000000000E+00 0. -1.
<scales pt_clust_5="13000.00000" pt_clust_6="13000.00000" pt_clust_7="13000.00000" pt_clust_8="13000.00000" pt_clust_9="60.81048"></scales>
<clustering>
<clus scale="   60.810">  1  9  2 -1</clus>
<clus scale="   83.418">  5  6 -1 -1</clus>
<clus scale="   91.191">  7  8 -1 -1</clus>
<clus scale="  129.882">  1  5  2 -1</clus>
<clus scale="   60.810">  1  5  2 -1</clus>
</clustering>
</event>
<event>
 9    1  0.8429841E-005  0.1172355E+03  0.7546771E-02  0.1252479E+00
          1   -1    0    0  502    0 -0.00000000000E+00  0.00000000000E+00  0.54405057193E+03  0.54405057193E+03  0.00000000000E+00 0. -1.
         21   -1    0    0  501  502  0.00000000000E+00 -0.00000000000E+00 -0.74613366950E+02  0.74613366950E+02  0.00000000000E+00 0.  1.
         23    2    1    2    0    0 -0.24234422445E+02  0.61569823364E+02  0.37122049462E+03  0.38865366208E+03  0.94174641181E+02 0.  0.
        -24    2    1    2    0    0  0.45338660048E+02 -0.65344577354E+02  0.14179059431E+03  0.18144772976E+03  0.80580382960E+02 0.  0.
         13    1    4    4    0    0 -0.61741041771E+01 -0.33402938402E+02  0.84897087388E+01  0.35013583232E+02  0.00000000000E+00 0. -1.
        -14    1    4    4    0    0  0.51512764226E+02 -0.31941638951E+02  0.13330088557E+03  0.14643414653E+03  0.00000000000E+00 0.  1.
        -13    1    3    3    0    0 -0.46037248524E+02  0.75477329536E+02  0.26625736418E+03  0.28055166994E+03  0.00000000000E+00 0.  1.
         13    1    3    3    0    0  0.21802826079E+02 -0.13907506172E+02  0.10496313044E+03  0.10810199214E+03  0.00000000000E+00 0. -1.
          2    1    1    2  501    0 -0.21104237604E+02  0.37747539893E+01 -0.43573883947E+02  0.48562547037E+02  0.00000000000E+00 0. -1.
<scales pt_clust_5="13000.00000" pt_clust_6="13000.00000" pt_clust_7="13000.00000" pt_clust_8="13000.00000" pt_clust_9="21.43916"></scales>
<clustering>
<clus scale="   21.439">  2  9  1 -1</clus>
<clus scale="   80.580">  5  6 -1 -1</clus>
<clus scale="   94.175">  7  8 -1 -1</clus>
<clus scale="  106.623">  2  5  1 -1</clus>
<clus scale="   21.439">  2  5  1 -1</clus>
</clustering>
</event>
<event>
 9    1  0.8429841E-005  0.9474475E+02  0.7546771E-02  0.1299443E+00
          1   -1    0    0  502    0 -0.00000000000E+00  0.00000000000E+00  0.71577486821E+02  0.71577486821E+02  0.00000000000E+00 0. -1.
         21   -1    0    0  501  502  0.00000000000E+00 -0.00000000000E+00 -0.39358604864E+03  0.39358604864E+03  0.00000000000E+00 0. -1.
         23    2    1    2    0    0 -0.27679769368E+01  0.33828927117E+02 -0.89563742877E+01  0.10012932861E+03  0.93774238478E+02 0.  0.
        -24    2    1    2    0    0 -0.31627290837E+02  0.40760906171E+02 -0.10646096976E+03  0.14271324757E+03  0.79821024493E+02 0.  0.
         13    1    4    4    0    0  0.26016812847E+02  0.17421885916E+02 -0.48323601318E+02  0.57580961297E+02  0.00000000000E+00 0. -1.
        -14    1    4    4    0    0 -0.57644103684E+02  0.23339020255E+02 -0.58137368442E+02  0.85132286269E+02  0.00000000000E+00 0.  1.
        -11    1    3    3    0    0 -0.44864296089E+02  0.21925039861E+00 -0.11105725492E+02  0.46218938466E+02  0.00000000000E+00 0. -1.
         11    1    3    3    0    0  0.42096319152E+02  0.33609676718E+02  0.21493512040E+01  0.53910390147E+02  0.00000000000E+00 0.  1.
          2    1    1    2  501    0  0.34395267774E+02 -0.74589833288E+02 -0.20659121777E+03  0.22232095928E+03  0.00000000000E+00 0. -1.
<scales pt_clust_5="13000.00000" pt_clust_6="13000.00000" pt_clust_7="13000.00000" pt_clust_8="13000.00000" pt_clust_9="82.13816"></scales>
<clustering>
<clus scale="   79.821">  5  6 -1 -1</clus>
<clus scale="   82.138">  2  9  1 -1</clus>
<clus scale="   82.138">  2  5  1 -1</clus>
<clus scale="   93.774">  7  8 -1 -1</clus>
<clus scale="   82.138">  2  5  1 -1</clus>
</clustering>
</event>
<event>
 9    1  0.8429841E-005  0.1524632E+03  0.7546771E-02  0.1221334E+00
         21   -1    0    0  501  502  0.00000000000E+00  0.00000000000E+00  0.21788401137E+03  0.21788401137E+03  0.00000000000E+00 0. -1.
          1   -1    0    0  502    0 -0.00000000000E+00 -0.00000000000E+00 -0.19300758606E+03  0.19300758606E+03  0.00000000000E+00 0. -1.
         23    2    1    2    0    0  0.99963233770E+01  0.88609734449E+01  0.71885601126E+02  0.11640508315E+03  0.90576820451E+02 0.  0.
        -24    2    1    2    0    0 -0.65963086830E+02  0.10833600149E+03 -0.63235340064E+02  0.16360222206E+03  0.81726132823E+02 0.  0.
         13    1    4    4    0    0 -0.63378329161E+02  0.85371253412E+02 -0.81645167561E+02  0.13405594691E+03  0.00000000000E+00 0. -1.
        -14    1    4    4    0    0 -0.25847576685E+01  0.22964748081E+02  0.18409827497E+02  0.29546275147E+02  0.00000000000E+00 0.  1.
        -11    1    3    3    0    0  0.26576236018E+02  0.35124587319E+02  0.73075353947E+02  0.85323152249E+02  0.00000000000E+00 0. -1.
         11    1    3    3    0    0 -0.16579912641E+02 -0.26263613874E+02 -0.11897528216E+01  0.31081930903E+02  0.00000000000E+00 0.  1.
          2    1    1    2  501    0  0.55966763453E+02 -0.11719697494E+03  0.16226164248E+02  0.13088429223E+03  0.00000000000E+00 0. -1.
<scales pt_clust_5="13000.00000" pt_clust_6="13000.00000" pt_clust_7="13000.00000" pt_clust_8="13000.00000" pt_clust_9="128.70844"></scales>
<clustering>
<clus scale="   81.726">  5  6 -1 -1</clus>
<clus scale="   90.577">  7  8 -1 -1</clus>
<clus scale="   91.557">  2  7  1 -1</clus>
<clus scale="  128.708">  1  9  2 -1</clus>
<clus scale="  128.708">  1  5  2 -1</clus>
</clustering>
</event>
<event>
 9    1  0.8429841E-005  0.9523109E+02  0.7546771E-02  0.1295075E+00
         21   -1    0    0  501  502  0.00000000000E+00  0.00000000000E+00  0.37054227869E+03  0.37054227869E+03  0.00000000000E+00 0. -1.
         -2   -1    0    0    0  501 -0.00000000000E+00 -0.00000000000E+00 -0.11657483417E+03  0.11657483417E+03  0.00000000000E+00 0.  1.
        -24    2    1    2    0    0  0.25910054476E+02  0.71836352617E+01 -0.85880197701E+02  0.12242559845E+03  0.83004115927E+02 0.  0.
         23    2    1    2    0    0 -0.42131379452E+02 -0.28754348380E+02  0.24970977663E+03  0.27059974079E+03  0.90925142194E+02 0.  0.
         11    1    3    3    0    0 -0.24757621041E+02  0.16788205220E+02 -0.54187244233E+02  0.61895404286E+02  0.00000000000E+00 0. -1.
        -12    1    3    3    0    0  0.50667675517E+02 -0.96045699582E+01 -0.31692953468E+02  0.60530194167E+02  0.00000000000E+00 0.  1.
        -13    1    4    4    0    0 -0.71880837070E+01  0.30435731693E+02  0.46145234035E+02  0.55743922855E+02  0.00000000000E+00 0.  1.
         13    1    4    4    0    0 -0.34943295744E+02 -0.59190080073E+02  0.20356454260E+03  0.21485581793E+03  0.00000000000E+00 0. -1.
         -1    1    1    2    0  502  0.16221324976E+02  0.21570713118E+02  0.90137865590E+02  0.94091773612E+02  0.00000000000E+00 0.  1.
<scales pt_clust_5="13000.00000" pt_clust_6="13000.00000" pt_clust_7="13000.00000" pt_clust_8="13000.00000" pt_clust_9="26.98939"></scales>
<clustering>
<clus scale="   26.989">  1  9  2 -1</clus>
<clus scale="   83.004">  5  6 -1 -1</clus>
<clus scale="   87.700">  2  5  1 -1</clus>
<clus scale="   90.925">  7  8 -1 -1</clus>
<clus scale="   26.989">  1  5  2 -1</clus>
</clustering>
</event>
<event>
 9    1  0.8429841E-005  0.9336593E+02  0.7546771E-02  0.1297993E+00
         21   -1    0    0  501  502  0.00000000000E+00  0.00000000000E+00  0.45161748054E+02  0.45161748054E+02  0.00000000000E+00 0.  1.
         -2   -1    0    0    0  501 -0.00000000000E+00 -0.00000000000E+00 -0.33025475440E+03  0.33025475440E+03  0.00000000000E+00 0.  1.
        -24    2    1    2    0    0  0.50438185704E+02 -0.16096677793E+02 -0.17803125121E+03  0.20258776611E+03  0.80892292323E+02 0.  0.
         23    2    1    2    0    0 -0.10390121340E+02 -0.93878371145E-01 -0.92866518263E+02  0.12735911662E+03  0.86534333859E+02 0.  0.
         13    1    3    3    0    0 -0.17581913305E+00  0.27749556989E+02 -0.35077675439E+02  0.44727085079E+02  0.00000000000E+00 0. -1.
        -14    1    3    3    0    0  0.50614004837E+02 -0.43846234781E+02 -0.14295357577E+03  0.15786068103E+03  0.00000000000E+00 0.  1.
        -13    1    4    4    0    0 -0.20083453174E+02 -0.26073954319E+02 -0.94011474613E+02  0.99605991507E+02  0.00000000000E+00 0. -1.
         13    1    4    4    0    0  0.96933318340E+01  0.25980075948E+02  0.11449563501E+01  0.27753125109E+02  0.00000000000E+00 0.  1.
         -1    1    1    2    0  502 -0.40048064364E+02  0.16190556164E+02 -0.14195236873E+02  0.45469619727E+02  0.00000000000E+00 0.  1.
<scales pt_clust_5="13000.00000" pt_clust_6="13000.00000" pt_clust_7="13000.00000" pt_clust_8="13000.00000" pt_clust_9="43.19701"></scales>
<clustering>
<clus scale="   43.197">  1  9  2 -1</clus>
<clus scale="   80.892">  5  6 -1 -1</clus>
<clus scale="   86.534">  7  8 -1 -1</clus>
<clus scale="   88.162">  2  5  1 -1</clus>
<clus scale="   43.197">  1  5  2 -1</clus>
</clustering>
</event>
<event>
 9    1  0.8429841E-005  0.1267714E+03  0.7546771E-02  0.1235171E+00
          1   -1    0    0  502    0 -0.00000000000E+00  0.00000000000E+00  0.45235074228E+02  0.45235074228E+02  0.00000000000E+00 0. -1.
         21   -1    0    0  501  502  0.00000000000E+00 -0.00000000000E+00 -0.46714818187E+03  0.46714818187E+03  0.00000000000E+00 0. -1.
        -24    2    1    2    0    0  0.68377616241E+02  0.40730142641E+02 -0.12547242103E+03  0.16925320985E+03  0.81048613087E+02 0.  0.
         23    2    1    2    0    0 -0.95777531133E+02 -0.42739821924E+02 -0.27541516575E+03  0.30853428532E+03  0.91322854987E+02 0.  0.
         13    1    3    3    0    0  0.70488620194E+02  0.26645182427E+02 -0.13320804907E+03  0.15304573061E+03  0.00000000000E+00 0. -1.
        -14    1    3    3    0    0 -0.21110039535E+01  0.14084960214E+02  0.77356280394E+01  0.16207479233E+02  0.00000000000E+00 0.  1.
        -13    1    4    4    0    0 -0.20678146107E+02  0.28571028328E+02 -0.62358371531E+02  0.71641160559E+02  0.00000000000E+00 0.  1.
         13    1    4    4    0    0 -0.75099385026E+02 -0.71310850252E+02 -0.21305679422E+03  0.23689312476E+03  0.00000000000E+00 0. -1.
          2    1    1    2  501    0  0.27399914892E+02  0.20096792827E+01 -0.21025520867E+02  0.34595760935E+02  0.00000000000E+00 0. -1.
<scales pt_clust_5="13000.00000" pt_clust_6="13000.00000" pt_clust_7="13000.00000" pt_clust_8="13000.00000" pt_clust_9="27.47353"></scales>
<clustering>
<clus scale="   27.474">  2  9  1 -1</clus>
<clus scale="   81.049">  5  6 -1 -1</clus>
<clus scale="   91.323">  7  8 -1 -1</clus>
<clus scale="  119.583">  1  5  2 -1</clus>
<clus scale="   27.474">  2  5  1 -1</clus>
</clustering>
</event>
<event>
 9    1  0.8429841E-005  0.9588471E+02  0.7546771E-02  0.1295864E+00
         21   -1    0    0  501  502  0.00000000000E+00  0.00000000000E+00  0.39803591546E+02  0.39803591546E+02  0.00000000000E+00 0.  1.
          1   -1    0    0  502    0 -0.00000000000E+00 -0.00000000000E+00 -0.51292671172E+03  0.51292671172E+03  0.00000000000E+00 0. -1.
        -24    2    1    2    0    0 -0.18592830106E+01 -0.81039207371E+01 -0.12592891401E+03  0.14940320687E+03  0.79963093834E+02 0.  0.
         23    2    1    2    0    0  0.74961378252E+02 -0.57965866343E+01 -0.14184211349E+03  0.18490863930E+03  0.91756259090E+02 0.  0.
         11    1    3    3    0    0  0.15347245876E+02  0.31588724810E+02 -0.73273561622E+02  0.81255155676E+02  0.00000000000E+00 0. -1.
        -12    1    3    3    0    0 -0.17206528887E+02 -0.39692645547E+02 -0.52655352385E+02  0.68148051195E+02  0.00000000000E+00 0.  1.
        -11    1    4    4    0    0  0.95668882441E+02 -0.32642487775E+01 -0.10166813402E+03  0.13964096771E+03  0.00000000000E+00 0.  1.
         11    1    4    4    0    0 -0.20707504189E+02 -0.25323378568E+01 -0.40173979472E+02  0.45267671592E+02  0.00000000000E+00 0. -1.
          2    1    1    2  501    0 -0.73102095242E+02  0.13900507371E+02 -0.20535209267E+03  0.21841845709E+03  0.00000000000E+00 0. -1.
<scales pt_clust_5="13000.00000" pt_clust_6="13000.00000" pt_clust_7="13000.00000" pt_clust_8="13000.00000" pt_clust_9="74.41200"></scales>
<clustering>
<clus scale="   74.412">  1  9  2 -1</clus>
<clus scale="   79.963">  5  6 -1 -1</clus>
<clus scale="   84.669">  2  5  1 -1</clus>
<clus scale="   91.756">  7  8 -1 -1</clus>
<clus scale="   74.412">  1  5  2 -1</clus>
</clustering>
</event>
<event>
 9    1  0.8429841E-005  0.1097642E+03  0.7546771E-02  0.1268399E+00
         -4   -1    0    0    0  501 -0.00000000000E+00  0.00000000000E+00  0.23638531757E+03  0.23638531757E+03  0.00000000000E+00 0.  1.
         21   -1    0    0  501  502  0.00000000000E+00 -0.00000000000E+00 -0.12501907281E+03  0.12501907281E+03  0.00000000000E+00 0. -1.
        -24    2    1    2    0    0 -0.62084551390E+02  0.41513769169E+02  0.33207879785E+02  0.11580677797E+03  0.82040002385E+02 0.  0.
         23    2    1    2    0    0  0.29068849856E+02  0.63167364878E+02  0.57049816186E+01  0.11407700896E+03  0.90254657173E+02 0.  0.
         11    1    3    3    0    0 -0.61545906310E+02  0.55560164071E+02  0.47668001219E+02  0.95640309260E+02  0.00000000000E+00 0. -1.
        -12    1    3    3    0    0 -0.53864507980E+00 -0.14046394901E+02 -0.14460121434E+02  0.20166468707E+02  0.00000000000E+00 0.  1.
        -11    1    4    4    0    0  0.57802331728E+02  0.59608094466E+02  0.13431043515E+02  0.84110804354E+02  0.00000000000E+00 0. -1.
         11    1    4    4    0    0 -0.28733481872E+02  0.35592704113E+01 -0.77260618962E+01  0.29966204611E+02  0.00000000000E+00 0.  1.
         -3    1    1    2    0  502  0.33015701533E+02 -0.10468113405E+03  0.72453383353E+02  0.13152060345E+03  0.00000000000E+00 0.  1.
<scales pt_clust_5="13000.00000" pt_clust_6="13000.00000" pt_clust_7="13000.00000" pt_clust_8="13000.00000" pt_clust_9="109.76424"></scales>
<clustering>
<clus scale="   82.040">  5  6 -1 -1</clus>
<clus scale="   90.255">  7  8 -1 -1</clus>
<clus scale="  109.764">  2  9  1 -1</clus>
<clus scale="   95.026">  1  5  2 -1</clus>
<clus scale="  109.764">  2  5  1 -1</clus>
</clustering>
</event>
<event>
 9    1  0.8429841E-005  0.2574310E+03  0.7546771E-02  0.1108697E+00
         21   -1    0    0  501  502  0.00000000000E+00  0.00000000000E+00  0.68030637043E+02  0.68030637043E+02  0.00000000000E+00 0. -1.
          1   -1    0    0  502    0 -0.00000000000E+00 -0.00000000000E+00 -0.70995508477E+03  0.70995508477E+03  0.00000000000E+00 0. -1.
        -24    2    1    2    0    0 -0.12704894760E+02 -0.76776934794E+02 -0.20160650561E+03  0.23095588148E+03  0.81482047217E+02 0.  0.
         23    2    1    2    0    0 -0.55687381686E+02 -0.89444441576E+02 -0.13610334466E+03  0.19368359266E+03  0.88813405687E+02 0.  0.
         13    1    3    3    0    0  0.18024579499E+02 -0.72081841335E+02 -0.17469438399E+03  0.18983889253E+03  0.00000000000E+00 0. -1.
        -14    1    3    3    0    0 -0.30729474259E+02 -0.46950934598E+01 -0.26912121618E+02  0.41116988956E+02  0.00000000000E+00 0.  1.
        -13    1    4    4    0    0 -0.10220937260E+02 -0.26527614706E+02  0.84057174254E+01  0.29645201735E+02  0.00000000000E+00 0.  1.
         13    1    4    4    0    0 -0.45466444426E+02 -0.62916826870E+02 -0.14450906209E+03  0.16403839092E+03  0.00000000000E+00 0. -1.
          2    1    1    2  501    0  0.68392276446E+02  0.16622137637E+03 -0.30421459745E+03  0.35334624767E+03  0.00000000000E+00 0. -1.
<scales pt_clust_5="13000.00000" pt_clust_6="13000.00000" pt_clust_7="13000.00000" pt_clust_8="13000.00000" pt_clust_9="179.74171"></scales>
<clustering>
<clus scale="   81.482">  5  6 -1 -1</clus>
<clus scale="   88.813">  7  8 -1 -1</clus>
<clus scale="  106.547">  5  7 -1 -1</clus>
<clus scale="  179.742">  1  9  2 -1</clus>
<clus scale="  179.742">  1  5  2 -1</clus>
</clustering>
</event>
<event>
 9    1  0.8429841E-005  0.1129959E+03  0.7546771E-02  0.1260716E+00
         -4   -1    0    0    0  501 -0.00000000000E+00  0.00000000000E+00  0.73266148571E+03  0.73266148571E+03  0.00000000000E+00 0.  1.
         21   -1    0    0  501  502  0.00000000000E+00 -0.00000000000E+00 -0.30894607991E+02  0.30894607991E+02  0.00000000000E+00 0.  1.
        -24    2    1    2    0    0  0.67246140210E+02 -0.17769708558E+02  0.44966686931E+03  0.46160748111E+03  0.77739097918E+02 0.  0.
         23    2    1    2    0    0 -0.58516400839E+02 -0.11431163119E+02  0.24780200446E+03  0.27116920237E+03  0.92585432105E+02 0.  0.
         13    1    3    3    0    0  0.10129404071E+02 -0.41304373005E+02  0.18034788509E+03  0.18529440281E+03  0.00000000000E+00 0. -1.
        -14    1    3    3    0    0  0.57116736138E+02  0.23534664447E+02  0.26931898421E+03  0.27631307829E+03  0.00000000000E+00 0.  1.
        -11    1    4    4    0    0 -0.30830098788E+02 -0.52037652500E+02  0.12388589558E+03  0.13786271212E+03  0.00000000000E+00 0.  1.
         11    1    4    4    0    0 -0.27686302052E+02  0.40606489381E+02  0.12391610888E+03  0.13330649025E+03  0.00000000000E+00 0. -1.
         -3    1    1    2    0  502 -0.87297393703E+01  0.29200871677E+02  0.42980039489E+01  0.30779410230E+02  0.00000000000E+00 0.  1.
<scales pt_clust_5="13000.00000" pt_clust_6="13000.00000" pt_clust_7="13000.00000" pt_clust_8="13000.00000" pt_clust_9="30.47785"></scales>
<clustering>
<clus scale="   30.478">  2  9  1 -1</clus>
<clus scale="   77.739">  5  6 -1 -1</clus>
<clus scale="   92.585">  7  8 -1 -1</clus>
<clus scale="  101.190">  1  5  2 -1</clus>
<clus scale="   30.478">  2  5  1 -1</clus>
</clustering>
</event>
<event>
 9    1  0.8429841E-005  0.1441048E+03  0.7546771E-02  0.1210837E+00
         21   -1    0    0  501  502  0.00000000000E+00  0.00000000000E+00  0.64963094819E+03  0.64963094819E+03  0.00000000000E+00 0. -1.
          1   -1    0    0  502    0 -0.00000000000E+00 -0.00000000000E+00 -0.40008504796E+02  0.40008504796E+02  0.00000000000E+00 0. -1.
        -24    2    1    2    0    0  0.11094890862E+03 -0.33897885785E+02  0.22299790458E+03  0.26361253935E+03  0.79402635173E+02 0.  0.
         23    2    1    2    0    0 -0.89350937889E+02  0.46156617190E+02  0.37347504254E+03  0.39792605799E+03  0.93528160553E+02 0.  0.
         13    1    3    3    0    0  0.11951071744E+03 -0.42216383884E+02  0.21378341823E+03  0.24853246179E+03  0.00000000000E+00 0. -1.
        -14    1    3    3    0    0 -0.85618088142E+01  0.83184980991E+01  0.92144863477E+01  0.15080077568E+02  0.00000000000E+00 0.  1.
        -13    1    4    4    0    0 -0.67404232236E+02  0.40218319049E+02  0.36549852505E+03  0.37383153361E+03  0.00000000000E+00 0. -1.
         13    1    4    4    0    0 -0.21946705653E+02  0.59382981403E+01  0.79765174935E+01  0.24094524381E+02  0.00000000000E+00 0.  1.
          2    1    1    2  501    0 -0.21597970733E+02 -0.12258731405E+02  0.13149496271E+02  0.28100855639E+02  0.00000000000E+00 0. -1.
<scales pt_clust_5="13000.00000" pt_clust_6="13000.00000" pt_clust_7="13000.00000" pt_clust_8="13000.00000" pt_clust_9="24.83444"></scales>
<clustering>
<clus scale="   24.834">  1  9  2 -1</clus>
<clus scale="   79.403">  5  6 -1 -1</clus>
<clus scale="   93.528">  7  8 -1 -1</clus>
<clus scale="  135.364">  2  5  1 -1</clus>
<clus scale="   24.834">  1  5  2 -1</clus>
</clustering>
</event>
<event>
 9    1  0.8429841E-005  0.1149272E+03  0.7546771E-02  0.1255074E+00
         -4   -1    0    0    0  501 -0.00000000000E+00  0.00000000000E+00  0.57614831040E+03  0.57614831040E+03  0.00000000000E+00 0.  1.
         21   -1    0    0  501  502  0.00000000000E+00 -0.00000000000E+00 -0.31919467709E+02  0.31919467709E+02  0.00000000000E+00 0. -1.
        -24    2    1    2    0    0  0.68315724401E+02 -0.16468908901E+02  0.28763259597E+03  0.30643741032E+03  0.78950066613E+02 0.  0.
         23    2    1    2    0    0 -0.70711799130E+02  0.39529764848E+02  0.14839132926E+03  0.19096940623E+03  0.88806343637E+02 0.  0.
         13    1    3    3    0    0  0.71045616156E+02  0.13264941277E+02  0.23571249706E+03  0.24654374767E+03  0.00000000000E+00 0. -1.
        -14    1    3    3    0    0 -0.27298917552E+01 -0.29733850178E+02  0.51920098905E+02  0.59893662651E+02  0.00000000000E+00 0.  1.
        -13    1    4    4    0    0 -0.57300286686E+02  0.16854179785E+02  0.15298150499E+03  0.16422766849E+03  0.00000000000E+00 0.  1.
         13    1    4    4    0    0 -0.13411512444E+02  0.22675585063E+02 -0.45901757244E+01  0.26741737737E+02  0.00000000000E+00 0. -1.
         -3    1    1    2    0  502  0.23960747289E+01 -0.23060855947E+02  0.10820491746E+03  0.11066096156E+03  0.00000000000E+00 0.  1.
<scales pt_clust_5="13000.00000" pt_clust_6="13000.00000" pt_clust_7="13000.00000" pt_clust_8="13000.00000" pt_clust_9="23.18501"></scales>
<clustering>
<clus scale="   23.185">  2  9  1 -1</clus>
<clus scale="   78.950">  5  6 -1 -1</clus>
<clus scale="   88.806">  7  8 -1 -1</clus>
<clus scale="  107.493">  1  5  2 -1</clus>
<clus scale="   23.185">  2  5  1 -1</clus>
</clustering>
</event>
<event>
 9    1  0.8429841E-005  0.9771219E+02  0.7546771E-02  0.1289239E+00
          1   -1    0    0  502    0 -0.00000000000E+00  0.00000000000E+00  0.17536282118E+03  0.17536282118E+03  0.00000000000E+00 0. -1.
         21   -1    0    0  501  502  0.00000000000E+00 -0.00000000000E+00 -0.11431815196E+03  0.11431815196E+03  0.00000000000E+00 0.  1.
        -24    2    1    2    0    0  0.65678486090E+01  0.64621132575E+02  0.10524788280E+03  0.14536568767E+03  0.76387426358E+02 0.  0.
         23    2    1    2    0    0  0.36865111667E+02 -0.48313296116E+02 -0.35323741099E+02  0.97079572298E+02  0.66958686012E+02 0.  0.
         13    1    3    3    0    0 -0.88385761463E+01  0.69747833792E+02  0.46201844131E+02  0.84127826242E+02  0.00000000000E+00 0. -1.
        -14    1    3    3    0    0  0.15406424755E+02 -0.51267012170E+01  0.59046038670E+02  0.61237861424E+02  0.00000000000E+00 0.  1.
        -13    1    4    4    0    0 -0.39554950120E+01 -0.27352454601E+02 -0.42437964426E+02  0.50643691988E+02  0.00000000000E+00 0.  1.
         13    1    4    4    0    0  0.40820606679E+02 -0.20960841515E+02  0.71142233271E+01  0.46435880310E+02  0.00000000000E+00 0. -1.
          2    1    1    2  501    0 -0.43432960276E+02 -0.16307836459E+02 -0.88794724858E+01  0.47235713183E+02  0.00000000000E+00 0. -1.
<scales pt_clust_5="13000.00000" pt_clust_6="13000.00000" pt_clust_7="13000.00000" pt_clust_8="13000.00000" pt_clust_9="46.39362"></scales>
<clustering>
<clus scale="   46.394">  2  9  1 -1</clus>
<clus scale="   66.959">  7  8 -1 -1</clus>
<clus scale="   76.387">  5  6 -1 -1</clus>
<clus scale="   90.532">  2  7  1 -1</clus>
<clus scale="   46.394">  2  5  1 -1</clus>
</clustering>
</event>
<event>
 9    1  0.8429841E-005  0.1212496E+03  0.7546771E-02  0.1244809E+00
          1   -1    0    0  502    0 -0.00000000000E+00  0.00000000000E+00  0.64834698844E+03  0.64834698844E+03  0.00000000000E+00 0. -1.
         21   -1    0    0  501  502  0.00000000000E+00 -0.00000000000E+00 -0.62618161967E+02  0.62618161967E+02  0.00000000000E+00 0.  1.
        -24    2    1    2    0    0 -0.26545150978E+02  0.84666311308E+02  0.35836695106E+03  0.37760507669E+03  0.79282362593E+02 0.  0.
         23    2    1    2    0    0 -0.60884611719E+02 -0.54352123746E+02  0.48160794209E+02  0.13167730084E+03  0.91424067711E+02 0.  0.
         13    1    3    3    0    0 -0.44755174298E+02  0.67328786085E+02  0.32972836078E+03  0.33949518842E+03  0.00000000000E+00 0. -1.
        -14    1    3    3    0    0  0.18210023320E+02  0.17337525223E+02  0.28638590282E+02  0.38109888265E+02  0.00000000000E+00 0.  1.
        -13    1    4    4    0    0 -0.76352289704E+02 -0.37081048765E+02  0.79378111497E+01  0.85250719448E+02  0.00000000000E+00 0.  1.
         13    1    4    4    0    0  0.15467677985E+02 -0.17271074980E+02  0.40222983059E+02  0.46426581388E+02  0.00000000000E+00 0. -1.
          2    1    1    2  501    0  0.87429762697E+02 -0.30314187562E+02  0.17920108121E+03  0.20168277289E+03  0.00000000000E+00 0. -1.
<scales pt_clust_5="13000.00000" pt_clust_6="13000.00000" pt_clust_7="13000.00000" pt_clust_8="13000.00000" pt_clust_9="92.53606"></scales>
<clustering>
<clus scale="   79.282">  5  6 -1 -1</clus>
<clus scale="   91.424">  7  8 -1 -1</clus>
<clus scale="   92.536">  2  9  1 -1</clus>
<clus scale="  112.378">  1  5  2 -1</clus>
<clus scale="   92.536">  2  5  1 -1</clus>
</clustering>
</event>
<event>
 9    1  0.8429841E-005  0.3569999E+03  0.7546771E-02  0.1098685E+00
          1   -1    0    0  502    0 -0.00000000000E+00  0.00000000000E+00  0.22064414969E+03  0.22064414969E+03  0.00000000000E+00 0. -1.
         21   -1    0    0  501  502  0.00000000000E+00 -0.00000000000E+00 -0.10422284036E+04  0.10422284036E+04  0.00000000000E+00 0. -1.
         23    2    1    2    0    0 -0.81621618141E+02  0.27294727591E+02 -0.12802336106E+02  0.12558966617E+03  0.90563644674E+02 0.  0.
        -24    2    1    2    0    0 -0.12030772522E+03  0.30942216545E+03 -0.60500218187E+03  0.69492567111E+03  0.81719172063E+02 0.  0.
         11    1    4    4    0    0 -0.10907692248E+03  0.31170695876E+03 -0.58013399699E+03  0.66754359979E+03  0.00000000000E+00 0. -1.
        -12    1    4    4    0    0 -0.11230802734E+02 -0.22847933111E+01 -0.24868184882E+02  0.27382071322E+02  0.00000000000E+00 0.  1.
        -11    1    3    3    0    0 -0.26155462230E+02  0.22710600287E+01 -0.48421911230E+02  0.55081279989E+02  0.00000000000E+00 0.  1.
         11    1    3    3    0    0 -0.55466155911E+02  0.25023667563E+02  0.35619575123E+02  0.70508386181E+02  0.00000000000E+00 0. -1.
          2    1    1    2  501    0  0.20192934336E+03 -0.33671689304E+03 -0.20377973591E+03  0.44235721599E+03  0.00000000000E+00 0. -1.
<scales pt_clust_5="13000.00000" pt_clust_6="13000.00000" pt_clust_7="13000.00000" pt_clust_8="13000.00000" pt_clust_9="347.52127"></scales>
<clustering>
<clus scale="   81.719">  5  6 -1 -1</clus>
<clus scale="   90.564">  7  8 -1 -1</clus>
<clus scale="  124.935">  1  7  2 -1</clus>
<clus scale="  347.521">  2  9  1 -1</clus>
<clus scale="  347.521">  2  5  1 -1</clus>
</clustering>
</event>
<event>
 9    1  0.8429841E-005  0.1124673E+03  0.7546771E-02  0.1258492E+00
         21   -1    0    0  501  502  0.00000000000E+00  0.00000000000E+00  0.16824841564E+03  0.16824841564E+03  0.00000000000E+00 0. -1.
          1   -1    0    0  502    0 -0.00000000000E+00 -0.00000000000E+00 -0.12957342208E+03  0.12957342208E+03  0.00000000000E+00 0. -1.
        -24    2    1    2    0    0  0.70679053315E+01 -0.87893169931E+02 -0.79888211241E+01  0.11974342859E+03  0.80619494053E+02 0.  0.
         23    2    1    2    0    0 -0.48511035248E+02  0.38119650530E+02  0.30787916491E+02  0.11139272555E+03  0.87487228819E+02 0.  0.
         13    1    3    3    0    0  0.30388743138E+02 -0.86341911489E+02  0.72847146422E+01  0.91823027921E+02  0.00000000000E+00 0. -1.
        -14    1    3    3    0    0 -0.23320837806E+02 -0.15512584412E+01 -0.15273535766E+02  0.27920400669E+02  0.00000000000E+00 0.  1.
        -13    1    4    4    0    0 -0.53647285326E+02 -0.13181967537E+02  0.12103207110E+02  0.56553365181E+02  0.00000000000E+00 0.  1.
         13    1    4    4    0    0  0.51362500773E+01  0.51301618067E+02  0.18684709382E+02  0.54839360370E+02  0.00000000000E+00 0. -1.
          2    1    1    2  501    0  0.41443129917E+02  0.49773519401E+02  0.15875898193E+02  0.66685683578E+02  0.00000000000E+00 0. -1.
<scales pt_clust_5="13000.00000" pt_clust_6="13000.00000" pt_clust_7="13000.00000" pt_clust_8="13000.00000" pt_clust_9="64.76833"></scales>
<clustering>
<clus scale="   64.768">  1  9  2 -1</clus>
<clus scale="   80.619">  5  6 -1 -1</clus>
<clus scale="   87.487">  7  8 -1 -1</clus>
<clus scale="  107.212">  2  5  1 -1</clus>
<clus scale="   64.768">  1  5  2 -1</clus>
</clustering>
</event>
<event>
 9    1  0.8429841E-005  0.1081892E+03  0.7546771E-02  0.1269962E+00
          1   -1    0    0  502    0 -0.00000000000E+00  0.00000000000E+00  0.15446871953E+03  0.15446871953E+03  0.00000000000E+00 0. -1.
         21   -1    0    0  501  502  0.00000000000E+00 -0.00000000000E+00 -0.29937001991E+03  0.29937001991E+03  0.00000000000E+00 0.  1.
        -24    2    1    2    0    0  0.13226142129E+02 -0.47722161685E+02  0.11816052819E+03  0.15189385094E+03  0.81593480016E+02 0.  0.
         23    2    1    2    0    0 -0.35847872588E+01  0.73153541997E+02 -0.20158176709E+03  0.23471759651E+03  0.95356435980E+02 0.  0.
         11    1    3    3    0    0 -0.33301338712E+02 -0.30550315515E+02  0.65269557593E+02  0.79387757787E+02  0.00000000000E+00 0. -1.
        -12    1    3    3    0    0  0.46527480840E+02 -0.17171846170E+02  0.52890970593E+02  0.72506093154E+02  0.00000000000E+00 0.  1.
        -11    1    4    4    0    0  0.40115140139E+02  0.63729885002E+02 -0.11938837769E+03  0.14115348893E+03  0.00000000000E+00 0. -1.
         11    1    4    4    0    0 -0.43699927398E+02  0.94236569947E+01 -0.82193389407E+02  0.93564107584E+02  0.00000000000E+00 0.  1.
          2    1    1    2  501    0 -0.96413548701E+01 -0.25431380311E+02 -0.61480061475E+02  0.67227291982E+02  0.00000000000E+00 0. -1.
<scales pt_clust_5="13000.00000" pt_clust_6="13000.00000" pt_clust_7="13000.00000" pt_clust_8="13000.00000" pt_clust_9="27.19763"></scales>
<clustering>
<clus scale="   27.198">  2  9  1 -1</clus>
<clus scale="   81.593">  5  6 -1 -1</clus>
<clus scale="   95.356">  7  8 -1 -1</clus>
<clus scale="   96.278">  1  5  2 -1</clus>
<clus scale="   27.198">  2  5  1 -1</clus>
</clustering>
</event>
<event>
 9    1  0.3272571E-004  0.9309024E+02  0.7546771E-02  0.1302666E+00
          3   -1    0    0  502    0 -0.00000000000E+00  0.00000000000E+00  0.50058154435E+03  0.50058154435E+03  0.00000000000E+00 0. -1.
         21   -1    0    0  501  502  0.00000000000E+00 -0.00000000000E+00 -0.30655278054E+03  0.30655278054E+03  0.00000000000E+00 0.  1.
        -24    2    1    2    0    0 -0.36134120947E+00  0.78397635421E+01  0.13031955057E+03  0.15368185264E+03  0.81076100739E+02 0.  0.
         23    2    1    2    0    0  0.22992657021E+02 -0.44308524003E+02 -0.28412423693E+03  0.30298099551E+03  0.92622859249E+02 0.  0.
         13    1    3    3    0    0 -0.40468074827E+02  0.74698494868E+01  0.71304397253E+02  0.82327278585E+02  0.00000000000E+00 0. -1.
        -14    1    3    3    0    0  0.40106733618E+02  0.36991405524E+00  0.59015153316E+02  0.71354574057E+02  0.00000000000E+00 0.  1.
        -11    1    4    4    0    0  0.22688161525E+02  0.25964337597E+02 -0.80579200702E+02  0.87646489296E+02  0.00000000000E+00 0. -1.
         11    1    4    4    0    0  0.30449549570E+00 -0.70272861600E+02 -0.20354503623E+03  0.21533450622E+03  0.00000000000E+00 0.  1.
          4    1    1    2  501    0 -0.22631315811E+02  0.36468760461E+02  0.34783345017E+03  0.35047147673E+03  0.00000000000E+00 0. -1.
<scales pt_clust_5="13000.00000" pt_clust_6="13000.00000" pt_clust_7="13000.00000" pt_clust_8="13000.00000" pt_clust_9="42.92026"></scales>
<clustering>
<clus scale="   42.920">  2  9  1 -1</clus>
<clus scale="   81.076">  5  6 -1 -1</clus>
<clus scale="   81.610">  1  5  2 -1</clus>
<clus scale="   92.623">  7  8 -1 -1</clus>
<clus scale="   42.920">  2  5  1 -1</clus>
</clustering>
</event>
<event>
 9    1  0.8429841E-005  0.1186102E+03  0.7546771E-02  0.1248412E+00
         -2   -1    0    0    0  501 -0.00000000000E+00  0.00000000000E+00  0.12992255173E+03  0.12992255173E+03  0.00000000000E+00 0.  1.
         21   -1    0    0  501  502  0.00000000000E+00 -0.00000000000E+00 -0.25359935055E+03  0.25359935055E+03  0.00000000000E+00 0. -1.
        -24    2    1    2    0    0 -0.13193207172E+02 -0.76582655714E+02  0.72803247822E+02  0.13323176740E+03  0.80071387399E+02 0.  0.
         23    2    1    2    0    0 -0.17436547952E+02  0.81896643289E+02 -0.16923052026E+03  0.20895060112E+03  0.89500230918E+02 0.  0.
         13    1    3    3    0    0  0.26938455418E+02 -0.25055332271E+01  0.21818021572E+02  0.34756066267E+02  0.00000000000E+00 0. -1.
        -14    1    3    3    0    0 -0.40131662590E+02 -0.74077122487E+02  0.50985226250E+02  0.98475701135E+02  0.00000000000E+00 0.  1.
        -11    1    4    4    0    0 -0.31562143349E+02  0.49850130399E+02 -0.31593740964E+02  0.66928087240E+02  0.00000000000E+00 0.  1.
         11    1    4    4    0    0  0.14125595397E+02  0.32046512890E+02 -0.13763677930E+03  0.14202251388E+03  0.00000000000E+00 0. -1.
         -1    1    1    2    0  502  0.30629755124E+02 -0.53139875746E+01 -0.27249526382E+02  0.41339533753E+02  0.00000000000E+00 0.  1.
<scales pt_clust_5="13000.00000" pt_clust_6="13000.00000" pt_clust_7="13000.00000" pt_clust_8="13000.00000" pt_clust_9="31.08730"></scales>
<clustering>
<clus scale="   31.087">  2  9  1 -1</clus>
<clus scale="   80.071">  5  6 -1 -1</clus>
<clus scale="   89.500">  7  8 -1 -1</clus>
<clus scale="  111.667">  1  5  2 -1</clus>
<clus scale="   31.087">  2  5  1 -1</clus>
</clustering>
</event>
<event>
 9    1  0.8429841E-005  0.1711203E+03  0.7546771E-02  0.1178512E+00
         21   -1    0    0  501  502  0.00000000000E+00  0.00000000000E+00  0.10236257617E+03  0.10236257617E+03  0.00000000000E+00 0.  1.
          3   -1    0    0  502    0 -0.00000000000E+00 -0.00000000000E+00 -0.82206740187E+03  0.82206740187E+03  0.00000000000E+00 0. -1.
        -24    2    1    2    0    0 -0.95792395970E+02  0.66652052593E+02 -0.96182895494E+02  0.17067316744E+03  0.79117011189E+02 0.  0.
         23    2    1    2    0    0  0.16926649754E+03 -0.86776277876E+02 -0.11744096588E+03  0.24197426840E+03  0.92616934242E+02 0.  0.
         13    1    3    3    0    0 -0.10086121711E+03  0.75220221551E+02 -0.99251414683E+02  0.16025576484E+03  0.00000000000E+00 0. -1.
        -14    1    3    3    0    0  0.50688211409E+01 -0.85681689579E+01  0.30685191892E+01  0.10417402606E+02  0.00000000000E+00 0.  1.
        -13    1    4    4    0    0  0.14016277430E+03 -0.98765215340E+02 -0.70357510764E+02  0.18533847518E+03  0.00000000000E+00 0.  1.
         13    1    4    4    0    0  0.29103723241E+02  0.11988937463E+02 -0.47083455117E+02  0.56635793221E+02  0.00000000000E+00 0. -1.
          4    1    1    2  501    0 -0.73474101572E+02  0.20124225283E+02 -0.50608096432E+03  0.51178254220E+03  0.00000000000E+00 0. -1.
<scales pt_clust_5="13000.00000" pt_clust_6="13000.00000" pt_clust_7="13000.00000" pt_clust_8="13000.00000" pt_clust_9="76.18027"></scales>
<clustering>
<clus scale="   76.180">  1  9  2 -1</clus>
<clus scale="   79.117">  5  6 -1 -1</clus>
<clus scale="   92.617">  7  8 -1 -1</clus>
<clus scale="  164.206">  2  5  1 -1</clus>
<clus scale="   76.180">  1  5  2 -1</clus>
</clustering>
</event>
<event>
 9    1  0.8429841E-005  0.1208635E+03  0.7546771E-02  0.1244607E+00
         21   -1    0    0  501  502  0.00000000000E+00  0.00000000000E+00  0.14621865712E+03  0.14621865712E+03  0.00000000000E+00 0. -1.
          1   -1    0    0  502    0 -0.00000000000E+00 -0.00000000000E+00 -0.27087860557E+03  0.27087860557E+03  0.00000000000E+00 0. -1.
        -24    2    1    2    0    0 -0.12006047170E+02 -0.10407407041E+03 -0.18164320085E+03  0.22415766984E+03  0.79226581619E+02 0.  0.
         23    2    1    2    0    0 -0.12697129704E+02  0.33898445786E+02 -0.49586447484E+01  0.96132238473E+02  0.88918487317E+02 0.  0.
         11    1    3    3    0    0 -0.42289647884E+02 -0.32917787442E+02 -0.83318384114E+02  0.99065373263E+02  0.00000000000E+00 0. -1.
        -12    1    3    3    0    0  0.30283600714E+02 -0.71156282970E+02 -0.98324816731E+02  0.12509229658E+03  0.00000000000E+00 0.  1.
        -13    1    4    4    0    0 -0.50154010227E+02  0.94291825562E+01  0.68037621404E+00  0.51037213260E+02  0.00000000000E+00 0.  1.
         13    1    4    4    0    0  0.37456880524E+02  0.24469263230E+02 -0.56390209625E+01  0.45095025213E+02  0.00000000000E+00 0. -1.
          2    1    1    2  501    0  0.24703176874E+02  0.70175624626E+02  0.61941897142E+02  0.96807354374E+02  0.00000000000E+00 0. -1.
<scales pt_clust_5="13000.00000" pt_clust_6="13000.00000" pt_clust_7="13000.00000" pt_clust_8="13000.00000" pt_clust_9="74.39667"></scales>
<clustering>
<clus scale="   74.397">  1  9  2 -1</clus>
<clus scale="   79.227">  5  6 -1 -1</clus>
<clus scale="   88.918">  7  8 -1 -1</clus>
<clus scale="  113.923">  2  5  1 -1</clus>
<clus scale="   74.397">  1  5  2 -1</clus>
</clustering>
</event>
<event>
 9    1  0.8429841E-005  0.1660117E+03  0.7546771E-02  0.1183799E+00
         -2   -1    0    0    0  501 -0.00000000000E+00  0.00000000000E+00  0.49874126551E+03  0.49874126551E+03  0.00000000000E+00 0.  1.
         21   -1    0    0  501  502  0.00000000000E+00 -0.00000000000E+00 -0.12769246679E+03  0.12769246679E+03  0.00000000000E+00 0. -1.
        -24    2    1    2    0    0  0.49494595207E+02 -0.12800135114E+03  0.39479190072E+03  0.42567093408E+03  0.80629017076E+02 0.  0.
         23    2    1    2    0    0 -0.25869959561E+02  0.14151231758E+03 -0.13003999295E+02  0.17150535558E+03  0.92466167644E+02 0.  0.
         11    1    3    3    0    0  0.27698208451E+00 -0.26243299835E+02  0.16851837076E+02  0.31189291722E+02  0.00000000000E+00 0. -1.
        -12    1    3    3    0    0  0.49217613123E+02 -0.10175805131E+03  0.37794006364E+03  0.39448164235E+03  0.00000000000E+00 0.  1.
        -13    1    4    4    0    0 -0.34359608430E+01  0.14769230848E+03 -0.10606719965E+02  0.14811254612E+03  0.00000000000E+00 0. -1.
         13    1    4    4    0    0 -0.22433998718E+02 -0.61799908969E+01 -0.23972793295E+01  0.23392809454E+02  0.00000000000E+00 0.  1.
         -1    1    1    2    0  502 -0.23624635647E+02 -0.13510966438E+02 -0.10739102708E+02  0.29257442651E+02  0.00000000000E+00 0.  1.
<scales pt_clust_5="13000.00000" pt_clust_6="13000.00000" pt_clust_7="13000.00000" pt_clust_8="13000.00000" pt_clust_9="27.21525"></scales>
<clustering>
<clus scale="   27.215">  2  9  1 -1</clus>
<clus scale="   80.629">  5  6 -1 -1</clus>
<clus scale="   92.466">  7  8 -1 -1</clus>
<clus scale="  159.721">  1  5  2 -1</clus>
<clus scale="   27.215">  2  5  1 -1</clus>
</clustering>
</event>
<event>
 9    1  0.8429841E-005  0.1035460E+03  0.7546771E-02  0.1278215E+00
         -4   -1    0    0    0  501 -0.00000000000E+00  0.00000000000E+00  0.75484554412E+02  0.75484554412E+02  0.00000000000E+00 0.  1.
         21   -1    0    0  501  502  0.00000000000E+00 -0.00000000000E+00 -0.26145137916E+03  0.26145137916E+03  0.00000000000E+00 0.  1.
        -24    2    1    2    0    0 -0.29275881684E+02 -0.46820762763E+02 -0.36816437203E+02  0.10422644025E+03  0.80364418274E+02 0.  0.
         23    2    1    2    0    0  0.29545236430E+02  0.16044796187E+02 -0.16965281843E+03  0.19572865581E+03  0.91636627087E+02 0.  0.
         13    1    3    3    0    0 -0.25824674311E+01 -0.26803874994E+02 -0.58523762797E+02  0.64421639723E+02  0.00000000000E+00 0. -1.
        -14    1    3    3    0    0 -0.26693414253E+02 -0.20016887770E+02  0.21707325594E+02  0.39804800526E+02  0.00000000000E+00 0.  1.
        -13    1    4    4    0    0  0.59222577059E+02 -0.75415822058E+01 -0.10360256968E+03  0.11957291307E+03  0.00000000000E+00 0.  1.
         13    1    4    4    0    0 -0.29677340629E+02  0.23586378393E+02 -0.66050248748E+02  0.76155742739E+02  0.00000000000E+00 0. -1.
         -3    1    1    2    0  502 -0.26935474584E+00  0.30775966576E+02  0.20502430887E+02  0.36980837510E+02  0.00000000000E+00 0.  1.
<scales pt_clust_5="13000.00000" pt_clust_6="13000.00000" pt_clust_7="13000.00000" pt_clust_8="13000.00000" pt_clust_9="30.77716"></scales>
<clustering>
<clus scale="   30.777">  2  9  1 -1</clus>
<clus scale="   80.364">  5  6 -1 -1</clus>
<clus scale="   91.637">  7  8 -1 -1</clus>
<clus scale="   93.717">  1  5  2 -1</clus>
<clus scale="   30.777">  2  5  1 -1</clus>
</clustering>
</event>
<event>
 9    1  0.8429841E-005  0.1220026E+03  0.7546771E-02  0.1241734E+00
         21   -1    0    0  501  502  0.00000000000E+00  0.00000000000E+00  0.57193859500E+02  0.57193859500E+02  0.00000000000E+00 0. -1.
          3   -1    0    0  502    0 -0.00000000000E+00 -0.00000000000E+00 -0.60480657459E+03  0.60480657459E+03  0.00000000000E+00 0. -1.
        -24    2    1    2    0    0 -0.76614243506E+02  0.60524606077E+02 -0.38784976578E+03  0.40897497713E+03  0.85440744666E+02 0.  0.
         23    2    1    2    0    0  0.49439877987E+02  0.19803259731E+02 -0.59054387162E+02  0.12136974438E+03  0.91688186681E+02 0.  0.
         13    1    3    3    0    0 -0.68908231278E+02  0.17144546562E+02 -0.32205652113E+03  0.32979187773E+03  0.00000000000E+00 0. -1.
        -14    1    3    3    0    0 -0.77060122272E+01  0.43380059515E+02 -0.65793244652E+02  0.79183099395E+02  0.00000000000E+00 0.  1.
        -11    1    4    4    0    0  0.54988098901E+01  0.31230277133E+02  0.14549322870E+02  0.34889108845E+02  0.00000000000E+00 0. -1.
         11    1    4    4    0    0  0.43941068097E+02 -0.11427017402E+02 -0.73603710033E+02  0.86480635536E+02  0.00000000000E+00 0.  1.
          4    1    1    2  501    0  0.27174365519E+02 -0.80327865807E+02 -0.10070856215E+03  0.13165571259E+03  0.00000000000E+00 0. -1.
<scales pt_clust_5="13000.00000" pt_clust_6="13000.00000" pt_clust_7="13000.00000" pt_clust_8="13000.00000" pt_clust_9="84.79984"></scales>
<clustering>
<clus scale="   84.800">  1  9  2 -1</clus>
<clus scale="   85.441">  5  6 -1 -1</clus>
<clus scale="   91.688">  7  8 -1 -1</clus>
<clus scale="  117.380">  2  5  1 -1</clus>
<clus scale="   84.800">  1  5  2 -1</clus>
</clustering>
</event>
<event>
 9    1  0.8429841E-005  0.1114527E+03  0.7546771E-02  0.1266191E+00
          1   -1    0    0  502    0 -0.00000000000E+00  0.00000000000E+00  0.42646121136E+03  0.42646121136E+03  0.00000000000E+00 0. -1.
         21   -1    0    0  501  502  0.00000000000E+00 -0.00000000000E+00 -0.96931075874E+02  0.96931075874E+02  0.00000000000E+00 0.  1.
         23    2    1    2    0    0  0.38304237346E+01  0.34030751726E+02  0.76774427703E+02  0.13017423931E+03  0.99389414034E+02 0.  0.
        -24    2    1    2    0    0 -0.40125262680E+02 -0.84216489070E+02 -0.98335669658E+01  0.12342358768E+03  0.80213647338E+02 0.  0.
         11    1    4    4    0    0 -0.60675887092E+02 -0.77223592167E+02  0.29087554496E+01  0.98252263688E+02  0.00000000000E+00 0. -1.
        -12    1    4    4    0    0  0.20550624411E+02 -0.69928969023E+01 -0.12742322415E+02  0.25171323988E+02  0.00000000000E+00 0.  1.
        -13    1    3    3    0    0  0.23630411308E+02  0.30149587276E+02  0.95344843579E+02  0.10275229023E+03  0.00000000000E+00 0. -1.
         13    1    3    3    0    0 -0.19799987573E+02  0.38811644496E+01 -0.18570415875E+02  0.27421949076E+02  0.00000000000E+00 0.  1.
          2    1    1    2  501    0  0.36294838946E+02  0.50185737344E+02  0.26258927475E+03  0.26979446025E+03  0.00000000000E+00 0. -1.
<scales pt_clust_5="13000.00000" pt_clust_6="13000.00000" pt_clust_7="13000.00000" pt_clust_8="13000.00000" pt_clust_9="61.93486"></scales>
<clustering>
<clus scale="   61.935">  2  9  1 -1</clus>
<clus scale="   80.214">  5  6 -1 -1</clus>
<clus scale="   94.751">  2  5  1 -1</clus>
<clus scale="   99.389">  7  8 -1 -1</clus>
<clus scale="   61.935">  2  5  1 -1</clus>
</clustering>
</event>
<event>
 9    1  0.8429841E-005  0.1109189E+03  0.7546771E-02  0.1262832E+00
         21   -1    0    0  501  502  0.00000000000E+00  0.00000000000E+00  0.10609849700E+03  0.10609849700E+03  0.00000000000E+00 0.  1.
          1   -1    0    0  502    0 -0.00000000000E+00 -0.00000000000E+00 -0.29131125227E+03  0.29131125227E+03  0.00000000000E+00 0. -1.
        -24    2    1    2    0    0  0.21374704877E+02  0.63011890317E+02 -0.19647345432E+03  0.22246360491E+03  0.80379480767E+02 0.  0.
         23    2    1    2    0    0 -0.61663810183E+02 -0.27012962055E+02  0.31456348411E+02  0.11726599964E+03  0.90717623483E+02 0.  0.
         13    1    3    3    0    0 -0.18146789692E+01  0.73982113524E+02 -0.11249471820E+03  0.13465403004E+03  0.00000000000E+00 0. -1.
        -14    1    3    3    0    0  0.23189383846E+02 -0.10970223207E+02 -0.83978736114E+02  0.87809574875E+02  0.00000000000E+00 0.  1.
        -11    1    4    4    0    0  0.20536918004E+02  0.99506562989E+01  0.55087317375E+01  0.23476087562E+02  0.00000000000E+00 0. -1.
         11    1    4    4    0    0 -0.82200728186E+02 -0.36963618354E+02  0.25947616673E+02  0.93789912076E+02  0.00000000000E+00 0.  1.
          2    1    1    2  501    0  0.40289105306E+02 -0.35998928262E+02 -0.20195649365E+02  0.57680144726E+02  0.00000000000E+00 0. -1.
<scales pt_clust_5="13000.00000" pt_clust_6="13000.00000" pt_clust_7="13000.00000" pt_clust_8="13000.00000" pt_clust_9="54.02902"></scales>
<clustering>
<clus scale="   54.029">  1  9  2 -1</clus>
<clus scale="   80.379">  5  6 -1 -1</clus>
<clus scale="   90.718">  7  8 -1 -1</clus>
<clus scale="  102.636">  2  5  1 -1</clus>
<clus scale="   54.029">  1  5  2 -1</clus>
</clustering>
</event>
<event>
 9    1  0.8429841E-005  0.9470904E+02  0.7546771E-02  0.1292374E+00
         21   -1    0    0  501  502  0.00000000000E+00  0.00000000000E+00  0.92852849647E+02  0.92852849647E+02  0.00000000000E+00 0.  1.
         -4   -1    0    0    0  501 -0.00000000000E+00 -0.00000000000E+00 -0.40582816097E+03  0.40582816097E+03  0.00000000000E+00 0.  1.
        -24    2    1    2    0    0  0.56902245722E+02  0.32318622611E+01 -0.34795295671E+03  0.36146707633E+03  0.79617062787E+02 0.  0.
         23    2    1    2    0    0 -0.37527904128E+01 -0.19973180897E+01  0.28736918518E+02  0.83685106806E+02  0.78481296496E+02 0.  0.
         13    1    3    3    0    0  0.63958609175E+01  0.24614149489E+02 -0.32428623812E+02  0.41211394471E+02  0.00000000000E+00 0. -1.
        -14    1    3    3    0    0  0.50506384805E+02 -0.21382287228E+02 -0.31552433290E+03  0.32025568186E+03  0.00000000000E+00 0.  1.
        -13    1    4    4    0    0  0.28842807372E+02  0.21487865862E+02  0.23983026712E+02  0.43229867992E+02  0.00000000000E+00 0.  1.
         13    1    4    4    0    0 -0.32595597784E+02 -0.23485183951E+02  0.47538918056E+01  0.40455238813E+02  0.00000000000E+00 0. -1.
         -3    1    1    2    0  502 -0.53149455310E+02 -0.12345441714E+01  0.62407268734E+01  0.53528827476E+02  0.00000000000E+00 0.  1.
<scales pt_clust_5="13000.00000" pt_clust_6="13000.00000" pt_clust_7="13000.00000" pt_clust_8="13000.00000" pt_clust_9="53.16379"></scales>
<clustering>
<clus scale="   53.164">  1  9  2 -1</clus>
<clus scale="   78.481">  7  8 -1 -1</clus>
<clus scale="   79.617">  5  6 -1 -1</clus>
<clus scale="   93.756">  1  7  2 -1</clus>
<clus scale="   53.164">  1  5  2 -1</clus>
</clustering>
</event>
<event>
 9    1  0.8429841E-005  0.1321374E+03  0.7546771E-02  0.1227825E+00
         -2   -1    0    0    0  501 -0.00000000000E+00  0.00000000000E+00  0.23608588331E+03  0.23608588331E+03  0.00000000000E+00 0.  1.
         21   -1    0    0  501  502  0.00000000000E+00 -0.00000000000E+00 -0.23048705938E+03  0.23048705938E+03  0.00000000000E+00 0. -1.
        -24    2    1    2    0    0 -0.38057999101E+02  0.88073300051E+02  0.18447123871E+03  0.22268301904E+03  0.79704275803E+02 0.  0.
         23    2    1    2    0    0  0.29487002476E+02 -0.61213037640E+02 -0.18197167619E+03  0.21552548991E+03  0.93386436783E+02 0.  0.
         11    1    3    3    0    0  0.18102294380E+02  0.15183790025E+02  0.80243564998E+02  0.83649687775E+02  0.00000000000E+00 0. -1.
        -12    1    3    3    0    0 -0.56160293481E+02  0.72889510026E+02  0.10422767371E+03  0.13903333126E+03  0.00000000000E+00 0.  1.
        -11    1    4    4    0    0  0.61883390502E+02 -0.36450815936E+02 -0.13791222906E+03  0.15549276165E+03  0.00000000000E+00 0. -1.
         11    1    4    4    0    0 -0.32396388027E+02 -0.24762221705E+02 -0.44059447131E+02  0.60032728261E+02  0.00000000000E+00 0.  1.
         -1    1    1    2    0  502  0.85709966256E+01 -0.26860262410E+02  0.30992614239E+01  0.28364433738E+02  0.00000000000E+00 0.  1.
<scales pt_clust_5="13000.00000" pt_clust_6="13000.00000" pt_clust_7="13000.00000" pt_clust_8="13000.00000" pt_clust_9="28.19462"></scales>
<clustering>
<clus scale="   28.195">  2  9  1 -1</clus>
<clus scale="   79.704">  5  6 -1 -1</clus>
<clus scale="   93.386">  7  8 -1 -1</clus>
<clus scale="  122.850">  1  5  2 -1</clus>
<clus scale="   28.195">  2  5  1 -1</clus>
</clustering>
</event>
<event>
 9    1  0.8429841E-005  0.1346001E+03  0.7546771E-02  0.1233203E+00
         21   -1    0    0  501  502  0.00000000000E+00  0.00000000000E+00  0.48188930400E+03  0.48188930400E+03  0.00000000000E+00 0.  1.
         -2   -1    0    0    0  501 -0.00000000000E+00 -0.00000000000E+00 -0.85877141275E+02  0.85877141275E+02  0.00000000000E+00 0.  1.
        -24    2    1    2    0    0 -0.60469902063E+02 -0.30662484778E+02  0.74413035057E+02  0.12789797847E+03  0.78891039305E+02 0.  0.
         23    2    1    2    0    0  0.20637787988E+02 -0.67501678998E+02  0.16585678579E+02  0.11698148273E+03  0.91799714629E+02 0.  0.
         13    1    3    3    0    0 -0.55687579532E+01  0.25011117338E+02  0.14950497896E+02  0.29666217200E+02  0.00000000000E+00 0. -1.
        -14    1    3    3    0    0 -0.54901144109E+02 -0.55673602116E+02  0.59462537160E+02  0.98231761272E+02  0.00000000000E+00 0.  1.
        -11    1    4    4    0    0  0.44998572585E+02 -0.28563193393E+02 -0.21344393342E+02  0.57413506065E+02  0.00000000000E+00 0.  1.
         11    1    4    4    0    0 -0.24360784597E+02 -0.38938485606E+02  0.37930071921E+02  0.59567976660E+02  0.00000000000E+00 0. -1.
         -1    1    1    2    0  502  0.39832114075E+02  0.98164163777E+02  0.30501344909E+03  0.32288698408E+03  0.00000000000E+00 0.  1.
<scales pt_clust_5="13000.00000" pt_clust_6="13000.00000" pt_clust_7="13000.00000" pt_clust_8="13000.00000" pt_clust_9="98.43783"></scales>
<clustering>
<clus scale="   78.891">  5  6 -1 -1</clus>
<clus scale="   91.800">  7  8 -1 -1</clus>
<clus scale="  104.022">  2  5  1 -1</clus>
<clus scale="   98.438">  1  9  2 -1</clus>
<clus scale="   98.438">  1  5  2 -1</clus>
</clustering>
</event>
<event>
 9    1  0.8429841E-005  0.1316233E+03  0.7546771E-02  0.1246676E+00
         21   -1    0    0  501  502  0.00000000000E+00  0.00000000000E+00  0.15522626137E+03  0.15522626137E+03  0.00000000000E+00 0. -1.
          1   -1    0    0  502    0 -0.00000000000E+00 -0.00000000000E+00 -0.25876462892E+03  0.25876462892E+03  0.00000000000E+00 0. -1.
        -24    2    1    2    0    0 -0.30895605425E+02  0.55678209762E+00 -0.26202677085E+02  0.88573503098E+02  0.78764438192E+02 0.  0.
         23    2    1    2    0    0  0.12409306836E+03 -0.67704065910E+01 -0.14455520324E+03  0.21033985192E+03  0.88891610976E+02 0.  0.
         13    1    3    3    0    0 -0.38839527873E+02  0.29019912169E+02 -0.32487309472E+02  0.58361712658E+02  0.00000000000E+00 0. -1.
        -14    1    3    3    0    0  0.79439224480E+01 -0.28463130071E+02  0.62846323873E+01  0.30211790439E+02  0.00000000000E+00 0.  1.
        -11    1    4    4    0    0  0.10978484290E+03  0.25187924707E+02 -0.13106618211E+03  0.17281634001E+03  0.00000000000E+00 0. -1.
         11    1    4    4    0    0  0.14308225462E+02 -0.31958331298E+02 -0.13489021134E+02  0.37523511915E+02  0.00000000000E+00 0.  1.
          2    1    1    2  501    0 -0.93197462935E+02  0.62136244934E+01  0.67219512777E+02  0.11507753527E+03  0.00000000000E+00 0. -1.
<scales pt_clust_5="13000.00000" pt_clust_6="13000.00000" pt_clust_7="13000.00000" pt_clust_8="13000.00000" pt_clust_9="97.07204"></scales>
<clustering>
<clus scale="   78.764">  5  6 -1 -1</clus>
<clus scale="   84.609">  2  5  1 -1</clus>
<clus scale="   88.892">  7  8 -1 -1</clus>
<clus scale="   97.072">  1  9  2 -1</clus>
<clus scale="   97.072">  1  5  2 -1</clus>
</clustering>
</event>
<event>
 9    1  0.8429841E-005  0.1426459E+03  0.7546771E-02  0.1213103E+00
          1   -1    0    0  502    0 -0.00000000000E+00  0.00000000000E+00  0.20652587331E+03  0.20652587331E+03  0.00000000000E+00 0. -1.
         21   -1    0    0  501  502  0.00000000000E+00 -0.00000000000E+00 -0.36735254655E+03  0.36735254655E+03  0.00000000000E+00 0.  1.
         23    2    1    2    0    0  0.62484031947E+02 -0.86191999199E+02  0.86048255027E+02  0.16469658236E+03  0.91582460517E+02 0.  0.
        -24    2    1    2    0    0 -0.65120358830E+02  0.11729853874E+03 -0.30585422198E+03  0.34245010511E+03  0.75668098044E+02 0.  0.
         13    1    4    4    0    0 -0.32796064164E+02  0.50800942126E+02 -0.57942473191E+02  0.83747523815E+02  0.00000000000E+00 0. -1.
        -14    1    4    4    0    0 -0.32324294666E+02  0.66497596616E+02 -0.24791174879E+03  0.25870258129E+03  0.00000000000E+00 0.  1.
        -13    1    3    3    0    0  0.60684085898E+02 -0.15534020884E+02  0.14859830626E+02  0.64379178718E+02  0.00000000000E+00 0.  1.
         13    1    3    3    0    0  0.17999460488E+01 -0.70657978315E+02  0.71188424401E+02  0.10031740364E+03  0.00000000000E+00 0. -1.
          2    1    1    2  501    0  0.26363268832E+01 -0.31106539543E+02  0.58979293709E+02  0.66731732393E+02  0.00000000000E+00 0. -1.
<scales pt_clust_5="13000.00000" pt_clust_6="13000.00000" pt_clust_7="13000.00000" pt_clust_8="13000.00000" pt_clust_9="31.21807"></scales>
<clustering>
<clus scale="   31.218">  2  9  1 -1</clus>
<clus scale="   75.668">  5  6 -1 -1</clus>
<clus scale="   91.582">  7  8 -1 -1</clus>
<clus scale="  132.989">  2  5  1 -1</clus>
<clus scale="   31.218">  2  5  1 -1</clus>
</clustering>
</event>
<event>
 9    1  0.8429841E-005  0.1006021E+03  0.7546771E-02  0.1283045E+00
         21   -1    0    0  501  502  0.00000000000E+00  0.00000000000E+00  0.52368988400E+02  0.52368988400E+02  0.00000000000E+00 0. -1.
         -2   -1    0    0    0  501 -0.00000000000E+00 -0.00000000000E+00 -0.39814132861E+03  0.39814132861E+03  0.00000000000E+00 0.  1.
        -24    2    1    2    0    0  0.49184569769E+02  0.17025149829E+02 -0.20109104812E+03  0.22331119061E+03  0.81983538512E+02 0.  0.
         23    2    1    2    0    0 -0.71967224795E+00 -0.45696658923E+02 -0.40945916039E+02  0.10916552962E+03  0.90287553137E+02 0.  0.
         13    1    3    3    0    0  0.68229643476E+02  0.47548889055E+01 -0.17919483094E+03  0.19180375557E+03  0.00000000000E+00 0. -1.
        -14    1    3    3    0    0 -0.19045073707E+02  0.12270260924E+02 -0.21896217185E+02  0.31507435038E+02  0.00000000000E+00 0.  1.
        -13    1    4    4    0    0 -0.30598279227E+02 -0.57256317643E+02 -0.12062245034E+02  0.66030586526E+02  0.00000000000E+00 0. -1.
         13    1    4    4    0    0  0.29878606979E+02  0.11559658720E+02 -0.28883671005E+02  0.43134943091E+02  0.00000000000E+00 0.  1.
         -1    1    1    2    0  502 -0.48464897521E+02  0.28671509094E+02 -0.10373537605E+03  0.11803359679E+03  0.00000000000E+00 0.  1.
<scales pt_clust_5="13000.00000" pt_clust_6="13000.00000" pt_clust_7="13000.00000" pt_clust_8="13000.00000" pt_clust_9="56.31079"></scales>
<clustering>
<clus scale="   56.311">  1  9  2 -1</clus>
<clus scale="   81.984">  5  6 -1 -1</clus>
<clus scale="   90.288">  7  8 -1 -1</clus>
<clus scale="   93.221">  2  5  1 -1</clus>
<clus scale="   56.311">  1  5  2 -1</clus>
</clustering>
</event>
<event>
 9    1  0.8429841E-005  0.1122198E+03  0.7546771E-02  0.1260878E+00
         21   -1    0    0  501  502  0.00000000000E+00  0.00000000000E+00  0.57350082691E+03  0.57350082691E+03  0.00000000000E+00 0.  1.
         -2   -1    0    0    0  501 -0.00000000000E+00 -0.00000000000E+00 -0.45929958094E+02  0.45929958094E+02  0.00000000000E+00 0.  1.
        -24    2    1    2    0    0 -0.50370420580E+02 -0.18858881241E+02  0.12321761922E+03  0.15664335323E+03  0.80384835358E+02 0.  0.
         23    2    1    2    0    0  0.79432720539E+02 -0.41037462905E+02  0.13861000463E+03  0.18883184857E+03  0.91929881956E+02 0.  0.
         11    1    3    3    0    0 -0.29312416180E+02 -0.81503674497E+01  0.12881977160E+03  0.13236381600E+03  0.00000000000E+00 0. -1.
        -12    1    3    3    0    0 -0.21058004400E+02 -0.10708513791E+02 -0.56021523799E+01  0.24279537232E+02  0.00000000000E+00 0.  1.
        -13    1    4    4    0    0  0.85499087625E+02 -0.61464733942E+02  0.12545469585E+03  0.16378915780E+03  0.00000000000E+00 0.  1.
         13    1    4    4    0    0 -0.60663670851E+01  0.20427271037E+02  0.13155308777E+02  0.25042690763E+02  0.00000000000E+00 0. -1.
         -1    1    1    2    0  502 -0.29062299959E+02  0.59896344146E+02  0.26574324497E+03  0.27395558321E+03  0.00000000000E+00 0.  1.
<scales pt_clust_5="13000.00000" pt_clust_6="13000.00000" pt_clust_7="13000.00000" pt_clust_8="13000.00000" pt_clust_9="66.57469"></scales>
<clustering>
<clus scale="   66.575">  1  9  2 -1</clus>
<clus scale="   80.385">  5  6 -1 -1</clus>
<clus scale="   91.930">  7  8 -1 -1</clus>
<clus scale="  102.975">  2  5  1 -1</clus>
<clus scale="   66.575">  1  5  2 -1</clus>
</clustering>
</event>
<event>
 9    1  0.8429841E-005  0.1338788E+03  0.7546771E-02  0.1223622E+00
          3   -1    0    0  502    0 -0.00000000000E+00  0.00000000000E+00  0.50642159187E+02  0.50642159187E+02  0.00000000000E+00 0. -1.
         21   -1    0    0  501  502  0.00000000000E+00 -0.00000000000E+00 -0.65666085934E+03  0.65666085934E+03  0.00000000000E+00 0. -1.
         23    2    1    2    0    0 -0.79144263795E+01 -0.78265411745E+02 -0.13499171624E+03  0.17957973060E+03  0.88532498932E+02 0.  0.
        -24    2    1    2    0    0  0.37127174967E+02  0.14098980870E+03 -0.29949637798E+03  0.34276252608E+03  0.80817792483E+02 0.  0.
         11    1    4    4    0    0  0.35088070628E+02  0.13964808553E+03 -0.21818389008E+03  0.26141340896E+03  0.00000000000E+00 0. -1.
        -12    1    4    4    0    0  0.20391043394E+01  0.13417231692E+01 -0.81312487903E+02  0.81349117122E+02  0.00000000000E+00 0.  1.
        -11    1    3    3    0    0 -0.32758074165E+02 -0.16435932787E+02 -0.95098965172E+02  0.10191685085E+03  0.00000000000E+00 0.  1.
         11    1    3    3    0    0  0.24843647786E+02 -0.61829478958E+02 -0.39892751072E+02  0.77662879753E+02  0.00000000000E+00 0. -1.
          4    1    1    2  501    0 -0.29212748588E+02 -0.62724396955E+02 -0.17153060593E+03  0.18496076185E+03  0.00000000000E+00 0. -1.
<scales pt_clust_5="13000.00000" pt_clust_6="13000.00000" pt_clust_7="13000.00000" pt_clust_8="13000.00000" pt_clust_9="69.19346"></scales>
<clustering>
<clus scale="   69.193">  2  9  1 -1</clus>
<clus scale="   80.818">  5  6 -1 -1</clus>
<clus scale="   88.532">  7  8 -1 -1</clus>
<clus scale="  128.907">  2  5  1 -1</clus>
<clus scale="   69.193">  2  5  1 -1</clus>
</clustering>
</event>
<event>
 9    1  0.8429841E-005  0.1425919E+03  0.7546771E-02  0.1230638E+00
          3   -1    0    0  502    0 -0.00000000000E+00  0.00000000000E+00  0.15167451140E+03  0.15167451140E+03  0.00000000000E+00 0. -1.
         21   -1    0    0  501  502  0.00000000000E+00 -0.00000000000E+00 -0.89741673174E+03  0.89741673174E+03  0.00000000000E+00 0. -1.
         23    2    1    2    0    0 -0.24876548261E+01  0.31224532282E+01  0.81498889798E+02  0.12308380783E+03  0.92149967825E+02 0.  0.
        -24    2    1    2    0    0  0.95201379682E+02 -0.77695148848E+02 -0.73744038857E+02  0.16317406023E+03  0.78024046409E+02 0.  0.
         13    1    4    4    0    0  0.70402000112E+02 -0.74419870776E+02 -0.20681235625E+02  0.10451063244E+03  0.00000000000E+00 0. -1.
        -14    1    4    4    0    0  0.24799379570E+02 -0.32752780716E+01 -0.53062803232E+02  0.58663427792E+02  0.00000000000E+00 0.  1.
        -11    1    3    3    0    0 -0.27397545596E+02  0.30361714589E+02  0.92154540432E+01  0.41921161849E+02  0.00000000000E+00 0.  1.
         11    1    3    3    0    0  0.24909890770E+02 -0.27239261361E+02  0.72283435755E+02  0.81162645979E+02  0.00000000000E+00 0. -1.
          4    1    1    2  501    0 -0.92713724856E+02  0.74572695619E+02 -0.75349707128E+03  0.76283337508E+03  0.00000000000E+00 0. -1.
<scales pt_clust_5="13000.00000" pt_clust_6="13000.00000" pt_clust_7="13000.00000" pt_clust_8="13000.00000" pt_clust_9="119.35112"></scales>
<clustering>
<clus scale="   78.024">  5  6 -1 -1</clus>
<clus scale="   92.150">  7  8 -1 -1</clus>
<clus scale="   92.236">  1  7  2 -1</clus>
<clus scale="  119.351">  2  9  1 -1</clus>
<clus scale="  119.351">  2  5  1 -1</clus>
</clustering>
</event>
<event>
 9    1  0.8429841E-005  0.1904096E+03  0.7546771E-02  0.1169343E+00
          1   -1    0    0  502    0 -0.00000000000E+00  0.00000000000E+00  0.22995050927E+03  0.22995050927E+03  0.00000000000E+00 0. -1.
         21   -1    0    0  501  502  0.00000000000E+00 -0.00000000000E+00 -0.37114124565E+03  0.37114124565E+03  0.00000000000E+00 0.  1.
         23    2    1    2    0    0 -0.10166565664E+03 -0.51502901126E+02 -0.16104285166E+03  0.21790203576E+03  0.92509688980E+02 0.  0.
        -24    2    1    2    0    0 -0.52125181605E+02  0.16311941778E+03  0.37731944328E+02  0.19232443420E+03  0.78993729828E+02 0.  0.
         13    1    4    4    0    0  0.15382960538E+01  0.11865243123E+03  0.28360189831E+02  0.12200436942E+03  0.00000000000E+00 0. -1.
        -14    1    4    4    0    0 -0.53663477659E+02  0.44466986552E+02  0.93717544968E+01  0.70320064774E+02  0.00000000000E+00 0.  1.
        -11    1    3    3    0    0 -0.76442637380E+02 -0.38086395646E+02 -0.16803148644E+03  0.18849039970E+03  0.00000000000E+00 0.  1.
         11    1    3    3    0    0 -0.25223019257E+02 -0.13416505480E+02  0.69886347841E+01  0.29411636062E+02  0.00000000000E+00 0. -1.
          2    1    1    2  501    0  0.15379083824E+03 -0.11161651665E+03 -0.17879829045E+02  0.19086528496E+03  0.00000000000E+00 0. -1.
<scales pt_clust_5="13000.00000" pt_clust_6="13000.00000" pt_clust_7="13000.00000" pt_clust_8="13000.00000" pt_clust_9="173.25065"></scales>
<clustering>
<clus scale="   78.994">  5  6 -1 -1</clus>
<clus scale="   92.510">  7  8 -1 -1</clus>
<clus scale="  146.787">  1  7  2 -1</clus>
<clus scale="  173.251">  2  9  1 -1</clus>
<clus scale="  173.251">  2  5  1 -1</clus>
</clustering>
</event>
<event>
 9    1  0.8429841E-005  0.1831306E+03  0.7546771E-02  0.1194164E+00
         21   -1    0    0  501  502  0.00000000000E+00  0.00000000000E+00  0.10814789318E+04  0.10814789318E+04  0.00000000000E+00 0.  1.
         -2   -1    0    0    0  501 -0.00000000000E+00 -0.00000000000E+00 -0.34237468722E+03  0.34237468722E+03  0.00000000000E+00 0.  1.
        -24    2    1    2    0    0  0.95121547556E+00 -0.46842428781E+02  0.11474212888E+03  0.14870699028E+03  0.82175999369E+02 0.  0.
         23    2    1    2    0    0 -0.50124538515E+02  0.19721657625E+03 -0.27958201454E+03  0.35746182963E+03  0.90587027096E+02 0.  0.
         13    1    3    3    0    0 -0.39269085873E+01 -0.51527238879E+02  0.12565606643E+03  0.13586730287E+03  0.00000000000E+00 0. -1.
        -14    1    3    3    0    0  0.48781240628E+01  0.46848100984E+01 -0.10913937548E+02  0.12839687412E+02  0.00000000000E+00 0.  1.
        -13    1    4    4    0    0 -0.12429845830E+02  0.18087344591E+03 -0.23547918772E+03  0.29718706626E+03  0.00000000000E+00 0.  1.
         13    1    4    4    0    0 -0.37694692684E+02  0.16343130346E+02 -0.44102826820E+02  0.60274763372E+02  0.00000000000E+00 0. -1.
         -1    1    1    2    0  502  0.49173323039E+02 -0.15037414747E+03  0.90394413028E+03  0.91768479915E+03  0.00000000000E+00 0.  1.
<scales pt_clust_5="13000.00000" pt_clust_6="13000.00000" pt_clust_7="13000.00000" pt_clust_8="13000.00000" pt_clust_9="159.15654"></scales>
<clustering>
<clus scale="   82.176">  5  6 -1 -1</clus>
<clus scale="   90.587">  7  8 -1 -1</clus>
<clus scale="   94.594">  2  5  1 -1</clus>
<clus scale="  159.157">  1  9  2 -1</clus>
<clus scale="  159.157">  1  5  2 -1</clus>
</clustering>
</event>
<event>
 9    1  0.8429841E-005  0.1800277E+03  0.7546771E-02  0.1169092E+00
         21   -1    0    0  501  502  0.00000000000E+00  0.00000000000E+00  0.23920089749E+03  0.23920089749E+03  0.00000000000E+00 0.  1.
         -2   -1    0    0    0  501 -0.00000000000E+00 -0.00000000000E+00 -0.26558718151E+03  0.26558718151E+03  0.00000000000E+00 0.  1.
        -24    2    1    2    0    0 -0.67517724482E+02  0.10483738510E+03 -0.31846001086E+02  0.15179537849E+03  0.80486947471E+02 0.  0.
         23    2    1    2    0    0  0.13475866364E+03 -0.18192993573E+03  0.34564118296E+02  0.24663635874E+03  0.91522763501E+02 0.  0.
         13    1    3    3    0    0 -0.66335961763E+02  0.29316947907E+02 -0.10304355389E+02  0.73253825822E+02  0.00000000000E+00 0. -1.
        -14    1    3    3    0    0 -0.11817627192E+01  0.75520437192E+02 -0.21541645697E+02  0.78541552672E+02  0.00000000000E+00 0.  1.
        -11    1    4    4    0    0  0.67496723886E+02 -0.46870259363E+02 -0.22702085256E+02  0.85252645842E+02  0.00000000000E+00 0. -1.
         11    1    4    4    0    0  0.67261939754E+02 -0.13505967637E+03  0.57266203552E+02  0.16138371290E+03  0.00000000000E+00 0.  1.
         -1    1    1    2    0  502 -0.67240939158E+02  0.77092550634E+02 -0.29104401225E+02  0.10635634176E+03  0.00000000000E+00 0.  1.
<scales pt_clust_5="13000.00000" pt_clust_6="13000.00000" pt_clust_7="13000.00000" pt_clust_8="13000.00000" pt_clust_9="102.29670"></scales>
<clustering>
<clus scale="   80.487">  5  6 -1 -1</clus>
<clus scale="   91.523">  7  8 -1 -1</clus>
<clus scale="  102.297">  1  9  2 -1</clus>
<clus scale="  174.676">  2  5  1 -1</clus>
<clus scale="  102.297">  1  5  2 -1</clus>
</clustering>
</event>
<event>
 9    1  0.8478180E-005  0.2256034E+03  0.7546771E-02  0.1130922E+00
          3   -1    0    0  502    0 -0.00000000000E+00  0.00000000000E+00  0.97828381297E+03  0.97828381297E+03  0.00000000000E+00 0. -1.
         21   -1    0    0  501  502  0.00000000000E+00 -0.00000000000E+00 -0.84757643771E+02  0.84757643771E+02  0.00000000000E+00 0. -1.
        -24    2    1    2    0    0 -0.19004953705E+03  0.11614732403E+03  0.67294722417E+03  0.71342916766E+03  0.80710490874E+02 0.  0.
         23    2    1    2    0    0  0.13856374786E+03 -0.66096416280E+02  0.94352982203E+02  0.20439220250E+03  0.96462628659E+02 0.  0.
         13    1    3    3    0    0 -0.19316299749E+03  0.94651299115E+02  0.60581401696E+03  0.64286968755E+03  0.00000000000E+00 0. -1.
        -14    1    3    3    0    0  0.31134604449E+01  0.21496024913E+02  0.67133207210E+02  0.70559480110E+02  0.00000000000E+00 0.  1.
        -11    1    4    4    0    0 -0.87996371361E+01 -0.27616993698E+02  0.16248978537E+02  0.33228922013E+02  0.00000000000E+00 0.  1.
         11    1    4    4    0    0  0.14736338500E+03 -0.38479422582E+02  0.78104003667E+02  0.17116328049E+03  0.00000000000E+00 0. -1.
          4    1    1    2  501    0  0.51485789186E+02 -0.50050907747E+02  0.12622596283E+03  0.14522008658E+03  0.00000000000E+00 0. -1.
<scales pt_clust_5="13000.00000" pt_clust_6="13000.00000" pt_clust_7="13000.00000" pt_clust_8="13000.00000" pt_clust_9="71.80449"></scales>
<clustering>
<clus scale="   71.804">  2  9  1 -1</clus>
<clus scale="   80.710">  5  6 -1 -1</clus>
<clus scale="   96.463">  7  8 -1 -1</clus>
<clus scale="  219.331">  1  5  2 -1</clus>
<clus scale="   71.804">  2  5  1 -1</clus>
</clustering>
</event>
<event>
 9    1  0.8429841E-005  0.1033109E+03  0.7546771E-02  0.1278728E+00
          1   -1    0    0  502    0 -0.00000000000E+00  0.00000000000E+00  0.74339915932E+02  0.74339915932E+02  0.00000000000E+00 0. -1.
         21   -1    0    0  501  502  0.00000000000E+00 -0.00000000000E+00 -0.36881468946E+03  0.36881468946E+03  0.00000000000E+00 0.  1.
        -24    2    1    2    0    0  0.37609227608E+02 -0.27995113012E+02  0.79144666967E+01  0.93000262369E+02  0.79926401544E+02 0.  0.
         23    2    1    2    0    0 -0.59540808813E+01  0.75348849796E+02 -0.18543685997E+03  0.22006866376E+03  0.91271504259E+02 0.  0.
         11    1    3    3    0    0  0.26337596094E+02 -0.51937678379E+02 -0.12521453682E+02  0.59564907502E+02  0.00000000000E+00 0. -1.
        -12    1    3    3    0    0  0.11271631514E+02  0.23942565367E+02  0.20435920378E+02  0.33435354867E+02  0.00000000000E+00 0.  1.
        -13    1    4    4    0    0 -0.30367222277E+02  0.85907992047E+02 -0.13223068637E+03  0.16058426357E+03  0.00000000000E+00 0.  1.
         13    1    4    4    0    0  0.24413141395E+02 -0.10559142250E+02 -0.53206173599E+02  0.59484400198E+02  0.00000000000E+00 0. -1.
          2    1    1    2  501    0 -0.31655146727E+02 -0.47353736785E+02 -0.11695238025E+03  0.13008567926E+03  0.00000000000E+00 0. -1.
<scales pt_clust_5="13000.00000" pt_clust_6="13000.00000" pt_clust_7="13000.00000" pt_clust_8="13000.00000" pt_clust_9="56.95985"></scales>
<clustering>
<clus scale="   56.960">  2  9  1 -1</clus>
<clus scale="   79.926">  5  6 -1 -1</clus>
<clus scale="   91.272">  7  8 -1 -1</clus>
<clus scale="   93.439">  1  5  2 -1</clus>
<clus scale="   56.960">  2  5  1 -1</clus>
</clustering>
</event>
<event>
 9    1  0.8429841E-005  0.1080068E+03  0.7546771E-02  0.1267769E+00
         21   -1    0    0  501  502  0.00000000000E+00  0.00000000000E+00  0.20050942678E+03  0.20050942678E+03  0.00000000000E+00 0.  1.
         -2   -1    0    0    0  501 -0.00000000000E+00 -0.00000000000E+00 -0.14002114866E+03  0.14002114866E+03  0.00000000000E+00 0.  1.
        -24    2    1    2    0    0  0.32465726329E+02 -0.50005613284E+02 -0.70573842798E+02  0.12253158552E+03  0.80490604530E+02 0.  0.
         23    2    1    2    0    0 -0.78600649325E+02  0.24657189310E+02  0.95790734880E+02  0.15463461198E+03  0.89162544116E+02 0.  0.
         13    1    3    3    0    0  0.46768965067E+02 -0.19035927094E+02 -0.78082436418E+01  0.51094728520E+02  0.00000000000E+00 0. -1.
        -14    1    3    3    0    0 -0.14303238737E+02 -0.30969686191E+02 -0.62765599156E+02  0.71436857003E+02  0.00000000000E+00 0.  1.
        -11    1    4    4    0    0 -0.29499757120E+02  0.55440143960E+02  0.41878929367E+02  0.75483044171E+02  0.00000000000E+00 0. -1.
         11    1    4    4    0    0 -0.49100892205E+02 -0.30782954650E+02  0.53911805514E+02  0.79151567805E+02  0.00000000000E+00 0.  1.
         -1    1    1    2    0  502  0.46134922995E+02  0.25348423974E+02  0.35271386037E+02  0.63364377932E+02  0.00000000000E+00 0.  1.
<scales pt_clust_5="13000.00000" pt_clust_6="13000.00000" pt_clust_7="13000.00000" pt_clust_8="13000.00000" pt_clust_9="52.64004"></scales>
<clustering>
<clus scale="   52.640">  1  9  2 -1</clus>
<clus scale="   80.491">  5  6 -1 -1</clus>
<clus scale="   89.163">  7  8 -1 -1</clus>
<clus scale="  100.967">  2  5  1 -1</clus>
<clus scale="   52.640">  1  5  2 -1</clus>
</clustering>
</event>
<event>
 9    1  0.8429841E-005  0.1333624E+03  0.7546771E-02  0.1227879E+00
         21   -1    0    0  501  502  0.00000000000E+00  0.00000000000E+00  0.41549047545E+02  0.41549047545E+02  0.00000000000E+00 0.  1.
          1   -1    0    0  502    0 -0.00000000000E+00 -0.00000000000E+00 -0.16769473918E+04  0.16769473918E+04  0.00000000000E+00 0. -1.
         23    2    1    2    0    0 -0.46653437928E+02  0.62585201547E+02 -0.46154029665E+03  0.47672497841E+03  0.90298443406E+02 0.  0.
        -24    2    1    2    0    0 -0.99836690346E+02 -0.19296764498E+02 -0.11958645862E+03  0.17649129600E+03  0.80675440003E+02 0.  0.
         11    1    4    4    0    0 -0.40060273859E+01 -0.31820704690E+02 -0.40165244155E+02  0.51398952717E+02  0.00000000000E+00 0. -1.
        -12    1    4    4    0    0 -0.95830662960E+02  0.12523940192E+02 -0.79421214461E+02  0.12509234328E+03  0.00000000000E+00 0.  1.
        -11    1    3    3    0    0 -0.26164319333E+02  0.84938111501E+02 -0.35466432033E+03  0.36563073518E+03  0.00000000000E+00 0.  1.
         11    1    3    3    0    0 -0.20489118595E+02 -0.22352909953E+02 -0.10687597632E+03  0.11109424323E+03  0.00000000000E+00 0. -1.
          2    1    1    2  501    0  0.14649012827E+03 -0.43288437049E+02 -0.10542715890E+04  0.10652801649E+04  0.00000000000E+00 0. -1.
<scales pt_clust_5="13000.00000" pt_clust_6="13000.00000" pt_clust_7="13000.00000" pt_clust_8="13000.00000" pt_clust_9="106.19325"></scales>
<clustering>
<clus scale="   80.675">  5  6 -1 -1</clus>
<clus scale="   90.298">  7  8 -1 -1</clus>
<clus scale="  119.362">  2  7  1 -1</clus>
<clus scale="  106.193">  1  9  2 -1</clus>
<clus scale="  106.193">  1  5  2 -1</clus>
</clustering>
</event>
<event>
 9    1  0.8429841E-005  0.1566334E+03  0.7546771E-02  0.1193785E+00
         21   -1    0    0  501  502  0.00000000000E+00  0.00000000000E+00  0.91256245813E+02  0.91256245813E+02  0.00000000000E+00 0.  1.
         -2   -1    0    0    0  501 -0.00000000000E+00 -0.00000000000E+00 -0.13841813818E+04  0.13841813818E+04  0.00000000000E+00 0.  1.
        -24    2    1    2    0    0 -0.12639316152E+03  0.11976212565E+02 -0.11673096756E+04  0.11770994232E+04  0.82659013137E+02 0.  0.
         23    2    1    2    0    0  0.13766691250E+03  0.19674989039E+02 -0.17343835882E+03  0.23989228389E+03  0.90156306325E+02 0.  0.
         13    1    3    3    0    0 -0.67209382528E+02 -0.27142653724E+02 -0.39975859542E+03  0.40627670295E+03  0.00000000000E+00 0. -1.
        -14    1    3    3    0    0 -0.59183778992E+02  0.39118866289E+02 -0.76755108015E+03  0.77082272024E+03  0.00000000000E+00 0.  1.
        -11    1    4    4    0    0  0.92084569191E+02 -0.13148868743E+02 -0.53143549630E+02  0.10712934938E+03  0.00000000000E+00 0. -1.
         11    1    4    4    0    0  0.45582343310E+02  0.32823857782E+02 -0.12029480919E+03  0.13276293451E+03  0.00000000000E+00 0.  1.
         -1    1    1    2    0  502 -0.11273750981E+02 -0.31651201604E+02  0.47822898359E+02  0.58445920572E+02  0.00000000000E+00 0.  1.
<scales pt_clust_5="13000.00000" pt_clust_6="13000.00000" pt_clust_7="13000.00000" pt_clust_8="13000.00000" pt_clust_9="33.59905"></scales>
<clustering>
<clus scale="   33.599">  1  9  2 -1</clus>
<clus scale="   82.659">  5  6 -1 -1</clus>
<clus scale="   90.156">  7  8 -1 -1</clus>
<clus scale="  152.441">  2  5  1 -1</clus>
<clus scale="   33.599">  1  5  2 -1</clus>
</clustering>
</event>
<event>
 9    1  0.8429841E-005  0.3084407E+03  0.7546771E-02  0.1107279E+00
         21   -1    0    0  501  502  0.00000000000E+00  0.00000000000E+00  0.63079005142E+03  0.63079005142E+03  0.00000000000E+00 0. -1.
          1   -1    0    0  502    0 -0.00000000000E+00 -0.00000000000E+00 -0.25728950756E+03  0.25728950756E+03  0.00000000000E+00 0. -1.
        -24    2    1    2    0    0 -0.16748115745E+02  0.13166373398E+03 -0.86258307227E+01  0.15543132634E+03  0.80427943055E+02 0.  0.
         23    2    1    2    0    0  0.30226155509E+03 -0.70329634407E+02  0.26613136162E+03  0.41842754769E+03  0.89148224188E+02 0.  0.
         11    1    3    3    0    0  0.18527964548E+01  0.13169654969E+03 -0.20598088884E+02  0.13331052217E+03  0.00000000000E+00 0. -1.
        -12    1    3    3    0    0 -0.18600912200E+02 -0.32815709509E-01  0.11972258162E+02  0.22120804168E+02  0.00000000000E+00 0.  1.
        -11    1    4    4    0    0  0.28487531245E+03 -0.58743954980E+02  0.21062897999E+03  0.35912304730E+03  0.00000000000E+00 0. -1.
         11    1    4    4    0    0  0.17386242634E+02 -0.11585679426E+02  0.55502381629E+02  0.59304500395E+02  0.00000000000E+00 0.  1.
          2    1    1    2  501    0 -0.28551343934E+03 -0.61334099575E+02  0.11599501297E+03  0.31422068495E+03  0.00000000000E+00 0. -1.
<scales pt_clust_5="13000.00000" pt_clust_6="13000.00000" pt_clust_7="13000.00000" pt_clust_8="13000.00000" pt_clust_9="295.27671"></scales>
<clustering>
<clus scale="   80.428">  5  6 -1 -1</clus>
<clus scale="   89.148">  7  8 -1 -1</clus>
<clus scale="  155.192">  2  5  1 -1</clus>
<clus scale="  295.277">  1  9  2 -1</clus>
<clus scale="  295.277">  1  5  2 -1</clus>
</clustering>
</event>
<event>
 9    1  0.8429841E-005  0.9808434E+02  0.7546771E-02  0.1291596E+00
          3   -1    0    0  502    0 -0.00000000000E+00  0.00000000000E+00  0.86399712215E+02  0.86399712215E+02  0.00000000000E+00 0. -1.
         21   -1    0    0  501  502  0.00000000000E+00 -0.00000000000E+00 -0.19517831302E+03  0.19517831302E+03  0.00000000000E+00 0.  1.
         23    2    1    2    0    0  0.21665374724E+02 -0.18224728854E+01  0.15586489269E+02  0.97072911528E+02  0.93313994853E+02 0.  0.
        -24    2    1    2    0    0 -0.44001377342E+02  0.31063443804E+02 -0.71722255963E+02  0.12027739869E+03  0.80134336498E+02 0.  0.
         13    1    4    4    0    0 -0.39497567760E+02 -0.18730014323E+02 -0.19140198247E+02  0.47720210439E+02  0.00000000000E+00 0. -1.
        -14    1    4    4    0    0 -0.45038095818E+01  0.49793458127E+02 -0.52582057717E+02  0.72557188249E+02  0.00000000000E+00 0.  1.
        -11    1    3    3    0    0  0.13226227318E+02 -0.47346211543E+02  0.12198413797E+02  0.50649759484E+02  0.00000000000E+00 0. -1.
         11    1    3    3    0    0  0.84391474061E+01  0.45523738658E+02  0.33880754721E+01  0.46423152045E+02  0.00000000000E+00 0.  1.
          4    1    1    2  501    0  0.22336002617E+02 -0.29240970919E+02 -0.52642834107E+02  0.64227715015E+02  0.00000000000E+00 0. -1.
<scales pt_clust_5="13000.00000" pt_clust_6="13000.00000" pt_clust_7="13000.00000" pt_clust_8="13000.00000" pt_clust_9="36.79581"></scales>
<clustering>
<clus scale="   36.796">  2  9  1 -1</clus>
<clus scale="   80.134">  5  6 -1 -1</clus>
<clus scale="   85.642">  2  5  1 -1</clus>
<clus scale="   93.314">  7  8 -1 -1</clus>
<clus scale="   36.796">  2  5  1 -1</clus>
</clustering>
</event>
<event>
 9    1  0.8429841E-005  0.1079867E+03  0.7546771E-02  0.1269177E+00
         -2   -1    0    0    0  501 -0.00000000000E+00  0.00000000000E+00  0.29809913469E+03  0.29809913469E+03  0.00000000000E+00 0.  1.
         21   -1    0    0  501  502  0.00000000000E+00 -0.00000000000E+00 -0.12684044056E+03  0.12684044056E+03  0.00000000000E+00 0.  1.
        -24    2    1    2    0    0  0.44285263159E+02 -0.16004915500E+02  0.11950258326E+03  0.15165625439E+03  0.80631322911E+02 0.  0.
         23    2    1    2    0    0 -0.84193817017E+02  0.83578876433E+02 -0.37076310597E+02  0.15475006827E+03  0.92189497300E+02 0.  0.
         11    1    3    3    0    0  0.49516263589E+02 -0.36120909342E+02  0.49957843728E+02  0.79071907790E+02  0.00000000000E+00 0. -1.
        -12    1    3    3    0    0 -0.52310004300E+01  0.20115993842E+02  0.69544739536E+02  0.72584346597E+02  0.00000000000E+00 0.  1.
        -13    1    4    4    0    0 -0.32855583324E+02  0.78788747794E+02 -0.53370425789E+02  0.10067551084E+03  0.00000000000E+00 0.  1.
         13    1    4    4    0    0 -0.51338233693E+02  0.47901286388E+01  0.16294115192E+02  0.54074557427E+02  0.00000000000E+00 0. -1.
         -1    1    1    2    0  502  0.39908553858E+02 -0.67573960933E+02  0.88832421458E+02  0.11853325259E+03  0.00000000000E+00 0.  1.
<scales pt_clust_5="13000.00000" pt_clust_6="13000.00000" pt_clust_7="13000.00000" pt_clust_8="13000.00000" pt_clust_9="78.47891"></scales>
<clustering>
<clus scale="   78.479">  2  9  1 -1</clus>
<clus scale="   80.631">  5  6 -1 -1</clus>
<clus scale="   92.189">  7  8 -1 -1</clus>
<clus scale="   98.304">  1  5  2 -1</clus>
<clus scale="   78.479">  2  5  1 -1</clus>
</clustering>
</event>
<event>
 9    1  0.8429841E-005  0.1902262E+03  0.7546771E-02  0.1190054E+00
          1   -1    0    0  502    0 -0.00000000000E+00  0.00000000000E+00  0.81868808660E+02  0.81868808660E+02  0.00000000000E+00 0. -1.
         21   -1    0    0  501  502  0.00000000000E+00 -0.00000000000E+00 -0.88556693511E+03  0.88556693511E+03  0.00000000000E+00 0. -1.
         23    2    1    2    0    0 -0.87175698710E+01  0.12554637954E+02 -0.12026370334E+02  0.93171708255E+02  0.91119255249E+02 0.  0.
        -24    2    1    2    0    0  0.13442486937E+03  0.10316145983E+03 -0.31197217307E+03  0.36504479942E+03  0.84963147959E+02 0.  0.
         13    1    4    4    0    0  0.13001567725E+03  0.88940417035E+02 -0.21279813855E+03  0.26475936600E+03  0.00000000000E+00 0. -1.
        -14    1    4    4    0    0  0.44091921247E+01  0.14221042799E+02 -0.99174034519E+02  0.10028543342E+03  0.00000000000E+00 0.  1.
        -11    1    3    3    0    0  0.14197740710E+02 -0.34492053482E+02  0.60902857770E+01  0.37793771650E+02  0.00000000000E+00 0. -1.
         11    1    3    3    0    0 -0.22915310580E+02  0.47046691436E+02 -0.18116656111E+02  0.55377936606E+02  0.00000000000E+00 0.  1.
          2    1    1    2  501    0 -0.12570729950E+03 -0.11571609779E+03 -0.47969958305E+03  0.50921923610E+03  0.00000000000E+00 0. -1.
<scales pt_clust_5="13000.00000" pt_clust_6="13000.00000" pt_clust_7="13000.00000" pt_clust_8="13000.00000" pt_clust_9="170.19769"></scales>
<clustering>
<clus scale="   84.963">  5  6 -1 -1</clus>
<clus scale="   91.119">  7  8 -1 -1</clus>
<clus scale="   92.392">  1  7  2 -1</clus>
<clus scale="  170.198">  2  9  1 -1</clus>
<clus scale="  170.198">  2  5  1 -1</clus>
</clustering>
</event>
<event>
 9    1  0.8429841E-005  0.1231278E+03  0.7546771E-02  0.1241053E+00
          1   -1    0    0  502    0 -0.00000000000E+00  0.00000000000E+00  0.73066987783E+03  0.73066987783E+03  0.00000000000E+00 0. -1.
         21   -1    0    0  501  502  0.00000000000E+00 -0.00000000000E+00 -0.59727946912E+02  0.59727946912E+02  0.00000000000E+00 0.  1.
         23    2    1    2    0    0  0.78213233396E+02  0.14908807765E+02  0.55821420127E+03  0.57123502022E+03  0.91470057383E+02 0.  0.
        -24    2    1    2    0    0 -0.10621784640E+03  0.75151872203E+01  0.42932350228E+02  0.14068676430E+03  0.81307256874E+02 0.  0.
         13    1    4    4    0    0 -0.82353592569E+02  0.26030930454E+02  0.60771489563E+02  0.10560727955E+03  0.00000000000E+00 0. -1.
        -14    1    4    4    0    0 -0.23864253831E+02 -0.18515743234E+02 -0.17839139335E+02  0.35079484755E+02  0.00000000000E+00 0.  1.
        -11    1    3    3    0    0  0.47579046270E+02  0.52221695745E+02  0.27464118981E+03  0.28358182997E+03  0.00000000000E+00 0. -1.
         11    1    3    3    0    0  0.30634187126E+02 -0.37312887980E+02  0.28357301146E+03  0.28765319025E+03  0.00000000000E+00 0.  1.
          2    1    1    2  501    0  0.28004613004E+02 -0.22423994985E+02  0.69795379422E+02  0.78476040224E+02  0.00000000000E+00 0. -1.
<scales pt_clust_5="13000.00000" pt_clust_6="13000.00000" pt_clust_7="13000.00000" pt_clust_8="13000.00000" pt_clust_9="35.87611"></scales>
<clustering>
<clus scale="   35.876">  2  9  1 -1</clus>
<clus scale="   81.307">  5  6 -1 -1</clus>
<clus scale="   91.470">  7  8 -1 -1</clus>
<clus scale="  115.778">  2  5  1 -1</clus>
<clus scale="   35.876">  2  5  1 -1</clus>
</clustering>
</event>
<event>
 9    1  0.8429841E-005  0.2911554E+03  0.7546771E-02  0.1090279E+00
         21   -1    0    0  501  502  0.00000000000E+00  0.00000000000E+00  0.69362414549E+03  0.69362414549E+03  0.00000000000E+00 0. -1.
          1   -1    0    0  502    0 -0.00000000000E+00 -0.00000000000E+00 -0.49168818352E+03  0.49168818352E+03  0.00000000000E+00 0. -1.
         23    2    1    2    0    0  0.20695982907E+03  0.20778999892E+03 -0.37870964550E+03  0.48773584070E+03  0.91957600004E+02 0.  0.
        -24    2    1    2    0    0 -0.20021574192E+03 -0.45095760383E+02  0.28196865759E+03  0.35739592104E+03  0.78138016326E+02 0.  0.
         13    1    4    4    0    0 -0.10647600472E+03 -0.56877980651E+02  0.12211288616E+03  0.17170847746E+03  0.00000000000E+00 0. -1.
        -14    1    4    4    0    0 -0.93739737194E+02  0.11782220267E+02  0.15985577143E+03  0.18568744358E+03  0.00000000000E+00 0.  1.
        -13    1    3    3    0    0 -0.48721029926E+01  0.29601936712E+02 -0.46193209081E+02  0.55080165303E+02  0.00000000000E+00 0.  1.
         13    1    3    3    0    0  0.21183193206E+03  0.17818806221E+03 -0.33251643642E+03  0.43265567539E+03  0.00000000000E+00 0. -1.
          2    1    1    2  501    0 -0.67440871559E+01 -0.16269423854E+03  0.29867694988E+03  0.34018056728E+03  0.00000000000E+00 0. -1.
<scales pt_clust_5="13000.00000" pt_clust_6="13000.00000" pt_clust_7="13000.00000" pt_clust_8="13000.00000" pt_clust_9="162.83396"></scales>
<clustering>
<clus scale="   78.138">  5  6 -1 -1</clus>
<clus scale="   91.958">  7  8 -1 -1</clus>
<clus scale="  162.834">  1  9  2 -1</clus>
<clus scale="  287.090">  1  5  2 -1</clus>
<clus scale="  162.834">  1  5  2 -1</clus>
</clustering>
</event>
<event>
 9    1  0.8429841E-005  0.1424054E+03  0.7546771E-02  0.1211728E+00
          1   -1    0    0  502    0 -0.00000000000E+00  0.00000000000E+00  0.64942828061E+03  0.64942828061E+03  0.00000000000E+00 0. -1.
         21   -1    0    0  501  502  0.00000000000E+00 -0.00000000000E+00 -0.15685168988E+03  0.15685168988E+03  0.00000000000E+00 0.  1.
        -24    2    1    2    0    0 -0.59034978327E+02  0.10150040347E+03  0.52355179775E+03  0.54266706934E+03  0.81201001558E+02 0.  0.
         23    2    1    2    0    0  0.62886046076E+02 -0.64459257017E+02  0.77801495516E+02  0.14863791140E+03  0.89053385079E+02 0.  0.
         11    1    3    3    0    0 -0.50100015751E+02  0.90166921130E+02  0.51632302240E+03  0.52652592405E+03  0.00000000000E+00 0. -1.
        -12    1    3    3    0    0 -0.89349625759E+01  0.11333482341E+02  0.72287753535E+01  0.16141145292E+02  0.00000000000E+00 0.  1.
        -11    1    4    4    0    0  0.80443711955E+02 -0.36620751823E+02  0.74432928801E+02  0.11555315291E+03  0.00000000000E+00 0. -1.
         11    1    4    4    0    0 -0.17557665880E+02 -0.27838505194E+02  0.33685667149E+01  0.33084758489E+02  0.00000000000E+00 0.  1.
          2    1    1    2  501    0 -0.38510677486E+01 -0.37041146454E+02 -0.10877670253E+03  0.11497498975E+03  0.00000000000E+00 0. -1.
<scales pt_clust_5="13000.00000" pt_clust_6="13000.00000" pt_clust_7="13000.00000" pt_clust_8="13000.00000" pt_clust_9="37.24080"></scales>
<clustering>
<clus scale="   37.241">  2  9  1 -1</clus>
<clus scale="   81.201">  5  6 -1 -1</clus>
<clus scale="   89.053">  7  8 -1 -1</clus>
<clus scale="  137.631">  1  5  2 -1</clus>
<clus scale="   37.241">  2  5  1 -1</clus>
</clustering>
</event>
<event>
 9    1  0.8429841E-005  0.1631816E+03  0.7546771E-02  0.1186074E+00
          1   -1    0    0  502    0 -0.00000000000E+00  0.00000000000E+00  0.29644264616E+03  0.29644264616E+03  0.00000000000E+00 0. -1.
         21   -1    0    0  501  502  0.00000000000E+00 -0.00000000000E+00 -0.33860974979E+03  0.33860974979E+03  0.00000000000E+00 0. -1.
        -24    2    1    2    0    0  0.14216365423E+03  0.72466961889E+01  0.23275570292E+03  0.28525191575E+03  0.83249138158E+02 0.  0.
         23    2    1    2    0    0 -0.10461581189E+03  0.26857003800E+02 -0.11295685115E+03  0.18007754856E+03  0.89458965581E+02 0.  0.
         13    1    3    3    0    0  0.14367254062E+03  0.21923899105E+02  0.22673507400E+03  0.26931626401E+03  0.00000000000E+00 0. -1.
        -14    1    3    3    0    0 -0.15088863895E+01 -0.14677202916E+02  0.60206289243E+01  0.15935651735E+02  0.00000000000E+00 0.  1.
        -13    1    4    4    0    0 -0.99373868756E+02 -0.54857286479E+01 -0.55549428772E+02  0.11397805950E+03  0.00000000000E+00 0.  1.
         13    1    4    4    0    0 -0.52419431379E+01  0.32342732448E+02 -0.57407422382E+02  0.66099489065E+02  0.00000000000E+00 0. -1.
          2    1    1    2  501    0 -0.37547842334E+02 -0.34103699989E+02 -0.16196595540E+03  0.16972293164E+03  0.00000000000E+00 0. -1.
<scales pt_clust_5="13000.00000" pt_clust_6="13000.00000" pt_clust_7="13000.00000" pt_clust_8="13000.00000" pt_clust_9="50.72379"></scales>
<clustering>
<clus scale="   50.724">  2  9  1 -1</clus>
<clus scale="   83.249">  5  6 -1 -1</clus>
<clus scale="   89.459">  7  8 -1 -1</clus>
<clus scale="  159.862">  1  5  2 -1</clus>
<clus scale="   50.724">  2  5  1 -1</clus>
</clustering>
</event>
<event>
 9    1  0.8429841E-005  0.1088590E+03  0.7546771E-02  0.1268264E+00
         21   -1    0    0  501  502  0.00000000000E+00  0.00000000000E+00  0.30822197135E+03  0.30822197135E+03  0.00000000000E+00 0.  1.
          1   -1    0    0  502    0 -0.00000000000E+00 -0.00000000000E+00 -0.20866413423E+03  0.20866413423E+03  0.00000000000E+00 0. -1.
        -24    2    1    2    0    0 -0.40579292137E+02 -0.45110905836E+02 -0.17841516797E+03  0.20421258243E+03  0.78671048607E+02 0.  0.
         23    2    1    2    0    0  0.25817845767E+02  0.75815345499E+01  0.14666522527E+03  0.17531236762E+03  0.92193801912E+02 0.  0.
         13    1    3    3    0    0 -0.50743324737E+02 -0.29506443152E+02 -0.58542541639E+02  0.82902016709E+02  0.00000000000E+00 0. -1.
        -14    1    3    3    0    0  0.10164032600E+02 -0.15604462685E+02 -0.11987262633E+03  0.12131056573E+03  0.00000000000E+00 0.  1.
        -13    1    4    4    0    0  0.52552267000E+02 -0.10210188805E+02  0.12657914932E+03  0.13743460177E+03  0.00000000000E+00 0.  1.
         13    1    4    4    0    0 -0.26734421233E+02  0.17791723354E+02  0.20086075955E+02  0.37877765851E+02  0.00000000000E+00 0. -1.
          2    1    1    2  501    0  0.14761446370E+02  0.37529371286E+02  0.13130777981E+03  0.13736115553E+03  0.00000000000E+00 0. -1.
<scales pt_clust_5="13000.00000" pt_clust_6="13000.00000" pt_clust_7="13000.00000" pt_clust_8="13000.00000" pt_clust_9="40.32808"></scales>
<clustering>
<clus scale="   40.328">  1  9  2 -1</clus>
<clus scale="   78.671">  5  6 -1 -1</clus>
<clus scale="   92.194">  7  8 -1 -1</clus>
<clus scale="   97.672">  2  5  1 -1</clus>
<clus scale="   40.328">  1  5  2 -1</clus>
</clustering>
</event>
<event>
 9    1  0.8429841E-005  0.1845479E+03  0.7546771E-02  0.1189500E+00
         -2   -1    0    0    0  501 -0.00000000000E+00  0.00000000000E+00  0.17533511045E+03  0.17533511045E+03  0.00000000000E+00 0.  1.
         21   -1    0    0  501  502  0.00000000000E+00 -0.00000000000E+00 -0.31165619735E+03  0.31165619735E+03  0.00000000000E+00 0. -1.
        -24    2    1    2    0    0 -0.30417616374E+02  0.55955312891E+02 -0.72173337148E+02  0.12530486528E+03  0.80225246900E+02 0.  0.
         23    2    1    2    0    0  0.67705756406E+02 -0.17646438575E+03 -0.97437462490E+02  0.23122170781E+03  0.90805672618E+02 0.  0.
         11    1    3    3    0    0  0.19246396753E+02  0.34896991836E+02 -0.56479521991E+02  0.69124237656E+02  0.00000000000E+00 0. -1.
        -12    1    3    3    0    0 -0.49664013128E+02  0.21058321055E+02 -0.15693815157E+02  0.56180627620E+02  0.00000000000E+00 0.  1.
        -13    1    4    4    0    0 -0.21528697324E+02 -0.52012423356E+02 -0.21145540399E+02  0.60132444409E+02  0.00000000000E+00 0.  1.
         13    1    4    4    0    0  0.89234453731E+02 -0.12445196239E+03 -0.76291922090E+02  0.17108926340E+03  0.00000000000E+00 0. -1.
         -1    1    1    2    0  502 -0.37288140032E+02  0.12050907286E+03  0.33289712737E+02  0.13046473471E+03  0.00000000000E+00 0.  1.
<scales pt_clust_5="13000.00000" pt_clust_6="13000.00000" pt_clust_7="13000.00000" pt_clust_8="13000.00000" pt_clust_9="160.66207"></scales>
<clustering>
<clus scale="   80.225">  5  6 -1 -1</clus>
<clus scale="   90.806">  7  8 -1 -1</clus>
<clus scale="  102.432">  1  5  2 -1</clus>
<clus scale="  160.662">  2  9  1 -1</clus>
<clus scale="  160.662">  2  5  1 -1</clus>
</clustering>
</event>
<event>
 9    1  0.8429841E-005  0.1653805E+03  0.7546771E-02  0.1206894E+00
         21   -1    0    0  501  502  0.00000000000E+00  0.00000000000E+00  0.14126358622E+03  0.14126358622E+03  0.00000000000E+00 0. -1.
          1   -1    0    0  502    0 -0.00000000000E+00 -0.00000000000E+00 -0.62303363954E+03  0.62303363954E+03  0.00000000000E+00 0. -1.
        -24    2    1    2    0    0  0.40134164332E+02  0.39476601390E+02 -0.26689791248E+03  0.28412732381E+03  0.79527902294E+02 0.  0.
         23    2    1    2    0    0  0.89890465585E+02 -0.89716824443E+02 -0.28386933430E+03  0.32463502771E+03  0.93148794242E+02 0.  0.
         11    1    3    3    0    0  0.45467871737E+02  0.30978079824E+02 -0.26840089682E+03  0.27398176984E+03  0.00000000000E+00 0. -1.
        -12    1    3    3    0    0 -0.53337074049E+01  0.84985215655E+01  0.15029843361E+01  0.10145553972E+02  0.00000000000E+00 0.  1.
        -11    1    4    4    0    0  0.87666800595E+02 -0.48539150352E+02 -0.12345601855E+03  0.15900599222E+03  0.00000000000E+00 0. -1.
         11    1    4    4    0    0  0.22236649894E+01 -0.41177674091E+02 -0.16041331575E+03  0.16562903550E+03  0.00000000000E+00 0.  1.
          2    1    1    2  501    0 -0.13002462992E+03  0.50240223053E+02  0.68997193462E+02  0.15553487423E+03  0.00000000000E+00 0. -1.
<scales pt_clust_5="13000.00000" pt_clust_6="13000.00000" pt_clust_7="13000.00000" pt_clust_8="13000.00000" pt_clust_9="136.65293"></scales>
<clustering>
<clus scale="   79.528">  5  6 -1 -1</clus>
<clus scale="   93.149">  7  8 -1 -1</clus>
<clus scale="   97.436">  2  5  1 -1</clus>
<clus scale="  136.653">  1  9  2 -1</clus>
<clus scale="  136.653">  1  5  2 -1</clus>
</clustering>
</event>
<event>
 9    1  0.8429841E-005  0.9325883E+02  0.7546771E-02  0.1303343E+00
         21   -1    0    0  501  502  0.00000000000E+00  0.00000000000E+00  0.61708374261E+02  0.61708374261E+02  0.00000000000E+00 0.  1.
          1   -1    0    0  502    0 -0.00000000000E+00 -0.00000000000E+00 -0.34692897843E+03  0.34692897843E+03  0.00000000000E+00 0. -1.
         23    2    1    2    0    0  0.10295495196E+02  0.21592911305E+01 -0.14613318482E+03  0.17356099967E+03  0.93047585362E+02 0.  0.
        -24    2    1    2    0    0  0.37005247348E+02 -0.18963386561E+02 -0.31247515422E+01  0.90143317084E+02  0.79919053934E+02 0.  0.
         13    1    4    4    0    0  0.37184383774E+01 -0.43364025397E+02  0.13618622431E+02  0.45604082706E+02  0.00000000000E+00 0. -1.
        -14    1    4    4    0    0  0.33286808970E+02  0.24400638835E+02 -0.16743373973E+02  0.44539234378E+02  0.00000000000E+00 0.  1.
        -11    1    3    3    0    0 -0.16830425743E+02 -0.33907875711E+02 -0.27952928922E+02  0.47057130185E+02  0.00000000000E+00 0.  1.
         11    1    3    3    0    0  0.27125920939E+02  0.36067166842E+02 -0.11818025590E+03  0.12650386949E+03  0.00000000000E+00 0. -1.
          2    1    1    2  501    0 -0.47300742544E+02  0.16804095431E+02 -0.13596266780E+03  0.14493303593E+03  0.00000000000E+00 0. -1.
<scales pt_clust_5="13000.00000" pt_clust_6="13000.00000" pt_clust_7="13000.00000" pt_clust_8="13000.00000" pt_clust_9="50.19702"></scales>
<clustering>
<clus scale="   50.197">  1  9  2 -1</clus>
<clus scale="   79.919">  5  6 -1 -1</clus>
<clus scale="   80.165">  1  5  2 -1</clus>
<clus scale="   93.048">  7  8 -1 -1</clus>
<clus scale="   50.197">  1  5  2 -1</clus>
</clustering>
</event>
<event>
 9    1  0.8429841E-005  0.9901848E+02  0.7546771E-02  0.1288053E+00
          1   -1    0    0  502    0 -0.00000000000E+00  0.00000000000E+00  0.17337395747E+03  0.17337395747E+03  0.00000000000E+00 0. -1.
         21   -1    0    0  501  502  0.00000000000E+00 -0.00000000000E+00 -0.18559762540E+03  0.18559762540E+03  0.00000000000E+00 0.  1.
         23    2    1    2    0    0 -0.23911394878E+02  0.97154036739E+01  0.75105241236E+02  0.12156314561E+03  0.92036173524E+02 0.  0.
        -24    2    1    2    0    0  0.97463279249E+02  0.33710177949E+02 -0.74948494503E+02  0.15110122145E+03  0.81110020317E+02 0.  0.
         11    1    4    4    0    0  0.57553784624E+02  0.11170243598E+02  0.51105999550E+01  0.58850069656E+02  0.00000000000E+00 0. -1.
        -12    1    4    4    0    0  0.39909494625E+02  0.22539934351E+02 -0.80059094458E+02  0.92251151794E+02  0.00000000000E+00 0.  1.
        -11    1    3    3    0    0 -0.37987921827E+01  0.40215747624E+02  0.74819120547E+02  0.85027277850E+02  0.00000000000E+00 0. -1.
         11    1    3    3    0    0 -0.20112602695E+02 -0.30500343951E+02  0.28612068899E+00  0.36535867765E+02  0.00000000000E+00 0.  1.
          2    1    1    2  501    0 -0.73551884371E+02 -0.43425581622E+02 -0.12380414658E+02  0.86307215810E+02  0.00000000000E+00 0. -1.
<scales pt_clust_5="13000.00000" pt_clust_6="13000.00000" pt_clust_7="13000.00000" pt_clust_8="13000.00000" pt_clust_9="85.41464"></scales>
<clustering>
<clus scale="   81.110">  5  6 -1 -1</clus>
<clus scale="   85.415">  2  9  1 -1</clus>
<clus scale="   88.954">  2  5  1 -1</clus>
<clus scale="   92.036">  7  8 -1 -1</clus>
<clus scale="   85.415">  2  5  1 -1</clus>
</clustering>
</event>
<event>
 9    1  0.8429841E-005  0.3662025E+03  0.7546771E-02  0.1088414E+00
         21   -1    0    0  501  502  0.00000000000E+00  0.00000000000E+00  0.58437667357E+03  0.58437667357E+03  0.00000000000E+00 0.  1.
          1   -1    0    0  502    0 -0.00000000000E+00 -0.00000000000E+00 -0.81263395613E+03  0.81263395613E+03  0.00000000000E+00 0. -1.
        -24    2    1    2    0    0 -0.11401657665E+03 -0.56594322627E+02 -0.55616139440E+03  0.57645084833E+03  0.82324885819E+02 0.  0.
         23    2    1    2    0    0  0.42508300784E+03  0.54892285157E+02  0.15790147766E+03  0.46606561051E+03  0.92604266280E+02 0.  0.
         11    1    3    3    0    0 -0.90421687793E+02 -0.46852816314E+02 -0.53074985712E+03  0.54043193730E+03  0.00000000000E+00 0. -1.
        -12    1    3    3    0    0 -0.23594888858E+02 -0.97415063133E+01 -0.25411537275E+02  0.36018911035E+02  0.00000000000E+00 0.  1.
        -13    1    4    4    0    0  0.38338637312E+03  0.61879051548E+02  0.16714294211E+03  0.42278941710E+03  0.00000000000E+00 0.  1.
         13    1    4    4    0    0  0.41696634717E+02 -0.69867663903E+01 -0.92414644449E+01  0.43276193414E+02  0.00000000000E+00 0. -1.
          2    1    1    2  501    0 -0.31106643119E+03  0.17020374699E+01  0.17000263417E+03  0.35449417085E+03  0.00000000000E+00 0. -1.
<scales pt_clust_5="13000.00000" pt_clust_6="13000.00000" pt_clust_7="13000.00000" pt_clust_8="13000.00000" pt_clust_9="354.30035"></scales>
<clustering>
<clus scale="   82.325">  5  6 -1 -1</clus>
<clus scale="   92.604">  7  8 -1 -1</clus>
<clus scale="  151.592">  2  5  1 -1</clus>
<clus scale="  354.300">  1  9  2 -1</clus>
<clus scale="  354.300">  1  5  2 -1</clus>
</clustering>
</event>
<event>
 9    1  0.8429841E-005  0.2519685E+03  0.7546771E-02  0.1145158E+00
         21   -1    0    0  501  502  0.00000000000E+00  0.00000000000E+00  0.11270212157E+03  0.11270212157E+03  0.00000000000E+00 0. -1.
          1   -1    0    0  502    0 -0.00000000000E+00 -0.00000000000E+00 -0.11953265919E+04  0.11953265919E+04  0.00000000000E+00 0. -1.
        -24    2    1    2    0    0  0.63194830258E+02  0.45169409733E+02  0.30453156501E+01  0.11158296585E+03  0.80047624405E+02 0.  0.
         23    2    1    2    0    0 -0.67408116479E+02  0.20437856981E+03 -0.68874917093E+03  0.72757698077E+03  0.93157868864E+02 0.  0.
         13    1    3    3    0    0  0.68639806814E+02  0.62585343564E+02  0.60686753049E+01  0.93086933178E+02  0.00000000000E+00 0. -1.
        -14    1    3    3    0    0 -0.54449765565E+01 -0.17415933831E+02 -0.30233596547E+01  0.18496032669E+02  0.00000000000E+00 0.  1.
        -13    1    4    4    0    0  0.23041929360E+02  0.56561516143E+02 -0.19054594825E+03  0.20009471260E+03  0.00000000000E+00 0.  1.
         13    1    4    4    0    0 -0.90450045839E+02  0.14781705367E+03 -0.49820322268E+03  0.52748226817E+03  0.00000000000E+00 0. -1.
          2    1    1    2  501    0  0.42132862213E+01 -0.24954797954E+03 -0.39692061508E+03  0.46886876688E+03  0.00000000000E+00 0. -1.
<scales pt_clust_5="13000.00000" pt_clust_6="13000.00000" pt_clust_7="13000.00000" pt_clust_8="13000.00000" pt_clust_9="234.11477"></scales>
<clustering>
<clus scale="   80.048">  5  6 -1 -1</clus>
<clus scale="   93.158">  7  8 -1 -1</clus>
<clus scale="  111.541">  2  5  1 -1</clus>
<clus scale="  234.115">  1  9  2 -1</clus>
<clus scale="  234.115">  1  5  2 -1</clus>
</clustering>
</event>
<event>
 9    1  0.8429841E-005  0.5391861E+03  0.7546771E-02  0.1004028E+00
          1   -1    0    0  502    0 -0.00000000000E+00  0.00000000000E+00  0.11257928739E+04  0.11257928739E+04  0.00000000000E+00 0. -1.
         21   -1    0    0  501  502  0.00000000000E+00 -0.00000000000E+00 -0.24469978074E+03  0.24469978074E+03  0.00000000000E+00 0. -1.
        -24    2    1    2    0    0 -0.22279605304E+03  0.94131571841E+02  0.51204497833E+03  0.57190942988E+03  0.79946870378E+02 0.  0.
         23    2    1    2    0    0 -0.22348618800E+03  0.24081753643E+02  0.16559445293E+03  0.29406799059E+03  0.92349624590E+02 0.  0.
         13    1    3    3    0    0 -0.22518926136E+03  0.90025293770E+02  0.51264860997E+03  0.56711846580E+03  0.00000000000E+00 0. -1.
        -14    1    3    3    0    0  0.23932083227E+01  0.41062780704E+01 -0.60363163363E+00  0.47909640800E+01  0.00000000000E+00 0.  1.
        -11    1    4    4    0    0 -0.23898552780E+02  0.35094965351E+02  0.37557145781E+02  0.56686300083E+02  0.00000000000E+00 0.  1.
         11    1    4    4    0    0 -0.19958763522E+03 -0.11013211708E+02  0.12803730715E+03  0.23738169050E+03  0.00000000000E+00 0. -1.
          2    1    1    2  501    0  0.44628224104E+03 -0.11821332548E+03  0.20345366192E+03  0.50451523420E+03  0.00000000000E+00 0. -1.
<scales pt_clust_5="13000.00000" pt_clust_6="13000.00000" pt_clust_7="13000.00000" pt_clust_8="13000.00000" pt_clust_9="461.67329"></scales>
<clustering>
<clus scale="   79.947">  5  6 -1 -1</clus>
<clus scale="   92.350">  7  8 -1 -1</clus>
<clus scale="  227.579">  5  7 -1 -1</clus>
<clus scale="  461.673">  2  9  1 -1</clus>
<clus scale="  461.673">  2  5  1 -1</clus>
</clustering>
</event>
<event>
 9    1  0.8429841E-005  0.1033307E+03  0.7546771E-02  0.1275414E+00
         21   -1    0    0  501  502  0.00000000000E+00  0.00000000000E+00  0.14006283850E+03  0.14006283850E+03  0.00000000000E+00 0. -1.
          1   -1    0    0  502    0 -0.00000000000E+00 -0.00000000000E+00 -0.21903924086E+03  0.21903924086E+03  0.00000000000E+00 0. -1.
        -24    2    1    2    0    0 -0.37842140738E+02  0.25976117657E+02 -0.11128075792E+03  0.14816079872E+03  0.86379562916E+02 0.  0.
         23    2    1    2    0    0  0.10001269837E+02 -0.90285883266E+02  0.51378698609E+02  0.13831421538E+03  0.90771611151E+02 0.  0.
         11    1    3    3    0    0 -0.17309164214E+02 -0.28036704657E+02 -0.69308245357E+02  0.76741754269E+02  0.00000000000E+00 0. -1.
        -12    1    3    3    0    0 -0.20532976525E+02  0.54012822314E+02 -0.41972512560E+02  0.71419044448E+02  0.00000000000E+00 0.  1.
        -11    1    4    4    0    0  0.29265181873E+02  0.35965325153E+01  0.25653804035E+02  0.39083290261E+02  0.00000000000E+00 0.  1.
         11    1    4    4    0    0 -0.19263912036E+02 -0.93882415781E+02  0.25724894574E+02  0.99230925122E+02  0.00000000000E+00 0. -1.
          2    1    1    2  501    0  0.27840870901E+02  0.64309765609E+02 -0.19074343059E+02  0.72627065260E+02  0.00000000000E+00 0. -1.
<scales pt_clust_5="13000.00000" pt_clust_6="13000.00000" pt_clust_7="13000.00000" pt_clust_8="13000.00000" pt_clust_9="70.07756"></scales>
<clustering>
<clus scale="   70.078">  1  9  2 -1</clus>
<clus scale="   86.380">  5  6 -1 -1</clus>
<clus scale="   90.772">  7  8 -1 -1</clus>
<clus scale="   99.495">  2  5  1 -1</clus>
<clus scale="   70.078">  1  5  2 -1</clus>
</clustering>
</event>
<event>
 9    1  0.8429841E-005  0.1059579E+03  0.7546771E-02  0.1271393E+00
          1   -1    0    0  502    0 -0.00000000000E+00  0.00000000000E+00  0.32687675062E+03  0.32687675062E+03  0.00000000000E+00 0. -1.
         21   -1    0    0  501  502  0.00000000000E+00 -0.00000000000E+00 -0.21481923968E+03  0.21481923968E+03  0.00000000000E+00 0.  1.
        -24    2    1    2    0    0 -0.13698177975E+02 -0.52689575778E+02  0.26395406318E+03  0.28194699282E+03  0.82816229206E+02 0.  0.
         23    2    1    2    0    0 -0.12791781258E+02  0.83828012426E+02 -0.17376863275E+03  0.21338405292E+03  0.90257692071E+02 0.  0.
         13    1    3    3    0    0 -0.12262546146E+02 -0.67589165871E+02  0.25587917153E+03  0.26493926815E+03  0.00000000000E+00 0. -1.
        -14    1    3    3    0    0 -0.14356318290E+01  0.14899590093E+02  0.80748916438E+01  0.17007724679E+02  0.00000000000E+00 0.  1.
        -11    1    4    4    0    0  0.34419402710E+02  0.57303556400E+02 -0.11820486371E+03  0.13579684335E+03  0.00000000000E+00 0.  1.
         11    1    4    4    0    0 -0.47211183968E+02  0.26524456026E+02 -0.55563769041E+02  0.77587209572E+02  0.00000000000E+00 0. -1.
          2    1    1    2  501    0  0.26489959234E+02 -0.31138436648E+02  0.21872080516E+02  0.46364944551E+02  0.00000000000E+00 0. -1.
<scales pt_clust_5="13000.00000" pt_clust_6="13000.00000" pt_clust_7="13000.00000" pt_clust_8="13000.00000" pt_clust_9="40.88180"></scales>
<clustering>
<clus scale="   40.882">  2  9  1 -1</clus>
<clus scale="   82.816">  5  6 -1 -1</clus>
<clus scale="   90.258">  7  8 -1 -1</clus>
<clus scale="   99.695">  1  5  2 -1</clus>
<clus scale="   40.882">  2  5  1 -1</clus>
</clustering>
</event>
<event>
 9    1  0.8429841E-005  0.1892264E+03  0.7546771E-02  0.1191874E+00
         -4   -1    0    0    0  501 -0.00000000000E+00  0.00000000000E+00  0.37893975236E+03  0.37893975236E+03  0.00000000000E+00 0.  1.
         21   -1    0    0  501  502  0.00000000000E+00 -0.00000000000E+00 -0.22267249227E+03  0.22267249227E+03  0.00000000000E+00 0.  1.
        -24    2    1    2    0    0 -0.37381438151E+02  0.17779735769E+02  0.21470757391E+03  0.23287325761E+03  0.80106934124E+02 0.  0.
         23    2    1    2    0    0  0.72663559093E+02 -0.17172914088E+03 -0.20001750370E+02  0.20618816250E+03  0.85688958958E+02 0.  0.
         13    1    3    3    0    0 -0.38551589119E+02  0.46595695675E+02  0.15963265791E+03  0.17070433313E+03  0.00000000000E+00 0. -1.
        -14    1    3    3    0    0  0.11701509675E+01 -0.28815959905E+02  0.55074915995E+02  0.62168924475E+02  0.00000000000E+00 0.  1.
        -11    1    4    4    0    0  0.64470256082E+02 -0.46117401271E+02 -0.10356400116E+02  0.79940500640E+02  0.00000000000E+00 0. -1.
         11    1    4    4    0    0  0.81933030111E+01 -0.12561173961E+03 -0.96453502536E+01  0.12624766186E+03  0.00000000000E+00 0.  1.
         -3    1    1    2    0  502 -0.35282120942E+02  0.15394940511E+03 -0.38438563449E+02  0.16255082452E+03  0.00000000000E+00 0.  1.
<scales pt_clust_5="13000.00000" pt_clust_6="13000.00000" pt_clust_7="13000.00000" pt_clust_8="13000.00000" pt_clust_9="168.71291"></scales>
<clustering>
<clus scale="   80.107">  5  6 -1 -1</clus>
<clus scale="   85.689">  7  8 -1 -1</clus>
<clus scale="   90.170">  1  5  2 -1</clus>
<clus scale="  168.713">  2  9  1 -1</clus>
<clus scale="  168.713">  2  5  1 -1</clus>
</clustering>
</event>
<event>
 9    1  0.8429841E-005  0.1043224E+03  0.7546771E-02  0.1277185E+00
         -2   -1    0    0    0  501 -0.00000000000E+00  0.00000000000E+00  0.43795467476E+03  0.43795467476E+03  0.00000000000E+00 0.  1.
         21   -1    0    0  501  502  0.00000000000E+00 -0.00000000000E+00 -0.48856105254E+02  0.48856105254E+02  0.00000000000E+00 0.  1.
         23    2    1    2    0    0 -0.19704098351E+02  0.44877055082E+02  0.15171244025E+03  0.18469831674E+03  0.93244850344E+02 0.  0.
        -24    2    1    2    0    0  0.68971546961E+02  0.44863502664E+01  0.91218196348E+02  0.14015848249E+03  0.80910068846E+02 0.  0.
         11    1    4    4    0    0 -0.12368105963E+02  0.19840826620E+02  0.16179520778E+02  0.28432469796E+02  0.00000000000E+00 0. -1.
        -12    1    4    4    0    0  0.81339652923E+02 -0.15354476354E+02  0.75038675570E+02  0.11172601270E+03  0.00000000000E+00 0.  1.
        -11    1    3    3    0    0 -0.31826947254E+02 -0.19726608011E+02  0.37960821134E+02  0.53320892493E+02  0.00000000000E+00 0. -1.
         11    1    3    3    0    0  0.12122848903E+02  0.64603663092E+02  0.11375161912E+03  0.13137742425E+03  0.00000000000E+00 0.  1.
         -1    1    1    2    0  502 -0.49267448610E+02 -0.49363405348E+02  0.14616793290E+03  0.16195398078E+03  0.00000000000E+00 0.  1.
<scales pt_clust_5="13000.00000" pt_clust_6="13000.00000" pt_clust_7="13000.00000" pt_clust_8="13000.00000" pt_clust_9="69.74261"></scales>
<clustering>
<clus scale="   69.743">  2  9  1 -1</clus>
<clus scale="   80.910">  5  6 -1 -1</clus>
<clus scale="   93.245">  7  8 -1 -1</clus>
<clus scale="   93.461">  2  5  1 -1</clus>
<clus scale="   69.743">  2  5  1 -1</clus>
</clustering>
</event>
<event>
 9    1  0.8429841E-005  0.1365723E+03  0.7546771E-02  0.1231760E+00
          1   -1    0    0  502    0 -0.00000000000E+00  0.00000000000E+00  0.43708139745E+03  0.43708139745E+03  0.00000000000E+00 0. -1.
         21   -1    0    0  501  502  0.00000000000E+00 -0.00000000000E+00 -0.10293539985E+03  0.10293539985E+03  0.00000000000E+00 0. -1.
         23    2    1    2    0    0  0.10235777910E+02 -0.48151276459E+02  0.14490683627E+01  0.10259030728E+03  0.89996415338E+02 0.  0.
        -24    2    1    2    0    0  0.77410784276E+02 -0.24987052740E+02  0.29406231380E+03  0.31691189103E+03  0.85695507188E+02 0.  0.
         13    1    4    4    0    0  0.61210160357E+02 -0.54426496605E+02  0.17537725861E+03  0.19356164419E+03  0.00000000000E+00 0. -1.
        -14    1    4    4    0    0  0.16200623919E+02  0.29439443864E+02  0.11868505519E+03  0.12335024684E+03  0.00000000000E+00 0.  1.
        -11    1    3    3    0    0  0.24563460065E+02  0.38773819189E+01 -0.30906354448E+02  0.39668632522E+02  0.00000000000E+00 0. -1.
         11    1    3    3    0    0 -0.14327682155E+02 -0.52028658378E+02  0.32355422811E+02  0.62921674753E+02  0.00000000000E+00 0.  1.
          2    1    1    2  501    0 -0.87646562186E+02  0.73138329199E+02  0.38634615444E+02  0.12051459900E+03  0.00000000000E+00 0. -1.
<scales pt_clust_5="13000.00000" pt_clust_6="13000.00000" pt_clust_7="13000.00000" pt_clust_8="13000.00000" pt_clust_9="106.34042"></scales>
<clustering>
<clus scale="   85.696">  5  6 -1 -1</clus>
<clus scale="   89.996">  7  8 -1 -1</clus>
<clus scale="  102.580">  1  7  2 -1</clus>
<clus scale="  106.340">  2  9  1 -1</clus>
<clus scale="  106.340">  2  5  1 -1</clus>
</clustering>
</event>
<event>
 9    1  0.8429841E-005  0.9184948E+02  0.7546771E-02  0.1302886E+00
          1   -1    0    0  502    0 -0.00000000000E+00  0.00000000000E+00  0.17331943686E+03  0.17331943686E+03  0.00000000000E+00 0. -1.
         21   -1    0    0  501  502  0.00000000000E+00 -0.00000000000E+00 -0.12430294175E+03  0.12430294175E+03  0.00000000000E+00 0. -1.
         23    2    1    2    0    0  0.27247061426E+01  0.17314081965E+02  0.11619497696E+03  0.14881216478E+03  0.91304908188E+02 0.  0.
        -24    2    1    2    0    0 -0.14609320531E+00  0.26436272635E+02 -0.52727202575E+02  0.10266281687E+03  0.84027365911E+02 0.  0.
         13    1    4    4    0    0  0.30558289020E+02  0.43343303360E+02 -0.32221815535E+02  0.62053979488E+02  0.00000000000E+00 0. -1.
        -14    1    4    4    0    0 -0.30704382225E+02 -0.16907030724E+02 -0.20505387040E+02  0.40608837381E+02  0.00000000000E+00 0.  1.
        -13    1    3    3    0    0  0.31734723521E+02 -0.98167695179E+01  0.10093691279E+03  0.10626251458E+03  0.00000000000E+00 0. -1.
         13    1    3    3    0    0 -0.29010017378E+02  0.27130851483E+02  0.15258064169E+02  0.42549650206E+02  0.00000000000E+00 0.  1.
          2    1    1    2  501    0 -0.25786129372E+01 -0.43750354600E+02 -0.14451279278E+02  0.46147396948E+02  0.00000000000E+00 0. -1.
<scales pt_clust_5="13000.00000" pt_clust_6="13000.00000" pt_clust_7="13000.00000" pt_clust_8="13000.00000" pt_clust_9="43.82628"></scales>
<clustering>
<clus scale="   43.826">  2  9  1 -1</clus>
<clus scale="   84.027">  5  6 -1 -1</clus>
<clus scale="   84.619">  2  5  1 -1</clus>
<clus scale="   91.305">  7  8 -1 -1</clus>
<clus scale="   43.826">  2  5  1 -1</clus>
</clustering>
</event>
<event>
 9    1  0.8429841E-005  0.1497412E+03  0.7546771E-02  0.1214129E+00
         21   -1    0    0  501  502  0.00000000000E+00  0.00000000000E+00  0.23326420087E+03  0.23326420087E+03  0.00000000000E+00 0. -1.
          1   -1    0    0  502    0 -0.00000000000E+00 -0.00000000000E+00 -0.28310799546E+03  0.28310799546E+03  0.00000000000E+00 0. -1.
        -24    2    1    2    0    0 -0.63067480539E+02 -0.50970034215E+02 -0.17510778370E+03  0.20812678133E+03  0.77965182639E+02 0.  0.
         23    2    1    2    0    0 -0.25491789411E+02  0.12235406978E+03  0.11036861157E+03  0.19352707689E+03  0.98240263381E+02 0.  0.
         13    1    3    3    0    0 -0.78117903734E+02 -0.55736078206E+02 -0.15790496054E+03  0.18477795827E+03  0.00000000000E+00 0. -1.
        -14    1    3    3    0    0  0.15050423195E+02  0.47660439901E+01 -0.17202823154E+02  0.23348823057E+02  0.00000000000E+00 0.  1.
        -11    1    4    4    0    0  0.24671833729E+02  0.90837876859E+02  0.42033999323E+02  0.10308771193E+03  0.00000000000E+00 0.  1.
         11    1    4    4    0    0 -0.50163623139E+02  0.31516192920E+02  0.68334612250E+02  0.90439364958E+02  0.00000000000E+00 0. -1.
          2    1    1    2  501    0  0.88559269950E+02 -0.71384035564E+02  0.14895377537E+02  0.11471833811E+03  0.00000000000E+00 0. -1.
<scales pt_clust_5="13000.00000" pt_clust_6="13000.00000" pt_clust_7="13000.00000" pt_clust_8="13000.00000" pt_clust_9="113.01016"></scales>
<clustering>
<clus scale="   77.965">  5  6 -1 -1</clus>
<clus scale="   98.240">  7  8 -1 -1</clus>
<clus scale="  112.490">  2  5  1 -1</clus>
<clus scale="  113.010">  1  9  2 -1</clus>
<clus scale="  113.010">  1  5  2 -1</clus>
</clustering>
</event>
<event>
 9    1  0.8429841E-005  0.1211210E+03  0.7546771E-02  0.1244909E+00
          1   -1    0    0  502    0 -0.00000000000E+00  0.00000000000E+00  0.16257593332E+03  0.16257593332E+03  0.00000000000E+00 0. -1.
         21   -1    0    0  501  502  0.00000000000E+00 -0.00000000000E+00 -0.42888558982E+03  0.42888558982E+03  0.00000000000E+00 0. -1.
         23    2    1    2    0    0 -0.30982546104E+02  0.95014303005E+02  0.59028504560E+02  0.14782294526E+03  0.91540279958E+02 0.  0.
        -24    2    1    2    0    0 -0.61296251597E+02 -0.55813287177E+02 -0.13231576629E+02  0.11582366641E+03  0.79797829511E+02 0.  0.
         11    1    4    4    0    0 -0.67967038901E+02 -0.43289517544E+02  0.17064495606E+02  0.82369276532E+02  0.00000000000E+00 0. -1.
        -12    1    4    4    0    0  0.66707873039E+01 -0.12523769633E+02 -0.30296072235E+02  0.33454389875E+02  0.00000000000E+00 0.  1.
        -11    1    3    3    0    0 -0.10591104311E+02  0.61630899272E+02  0.81486560293E+02  0.10271610752E+03  0.00000000000E+00 0. -1.
         11    1    3    3    0    0 -0.20391441793E+02  0.33383403733E+02 -0.22458055733E+02  0.45106837735E+02  0.00000000000E+00 0.  1.
          2    1    1    2  501    0  0.92278797701E+02 -0.39201015827E+02 -0.31210658442E+03  0.32781491148E+03  0.00000000000E+00 0. -1.
<scales pt_clust_5="13000.00000" pt_clust_6="13000.00000" pt_clust_7="13000.00000" pt_clust_8="13000.00000" pt_clust_9="100.26014"></scales>
<clustering>
<clus scale="   79.798">  5  6 -1 -1</clus>
<clus scale="   91.540">  7  8 -1 -1</clus>
<clus scale="  100.260">  2  9  1 -1</clus>
<clus scale="  112.509">  2  5  1 -1</clus>
<clus scale="  100.260">  2  5  1 -1</clus>
</clustering>
</event>
<event>
 9    1  0.8429841E-005  0.9372478E+02  0.7546771E-02  0.1300027E+00
         21   -1    0    0  501  502  0.00000000000E+00  0.00000000000E+00  0.84258007717E+02  0.84258007717E+02  0.00000000000E+00 0.  1.
         -2   -1    0    0    0  501 -0.00000000000E+00 -0.00000000000E+00 -0.30984186885E+03  0.30984186885E+03  0.00000000000E+00 0.  1.
        -24    2    1    2    0    0  0.83990201345E+01 -0.19150449385E+02 -0.24585233441E+03  0.25964846698E+03  0.80849692762E+02 0.  0.
         23    2    1    2    0    0 -0.30649047541E+02  0.22008329205E+02 -0.74845816025E+01  0.98765792720E+02  0.90966654221E+02 0.  0.
         11    1    3    3    0    0  0.26409290162E+02  0.20970897501E+02 -0.15609393686E+03  0.15969516672E+03  0.00000000000E+00 0. -1.
        -12    1    3    3    0    0 -0.18010270027E+02 -0.40121346887E+02 -0.89758397543E+02  0.99953300255E+02  0.00000000000E+00 0.  1.
        -13    1    4    4    0    0  0.24357000258E+02  0.23059954639E+02  0.18075763456E+02  0.38101944754E+02  0.00000000000E+00 0. -1.
         13    1    4    4    0    0 -0.55006047799E+02 -0.10516254340E+01 -0.25560345058E+02  0.60663847966E+02  0.00000000000E+00 0.  1.
         -1    1    1    2    0  502  0.22250027407E+02 -0.28578798202E+01  0.27753054874E+02  0.35685616872E+02  0.00000000000E+00 0.  1.
<scales pt_clust_5="13000.00000" pt_clust_6="13000.00000" pt_clust_7="13000.00000" pt_clust_8="13000.00000" pt_clust_9="22.43282"></scales>
<clustering>
<clus scale="   22.433">  1  9  2 -1</clus>
<clus scale="   80.850">  5  6 -1 -1</clus>
<clus scale="   83.941">  2  5  1 -1</clus>
<clus scale="   90.967">  7  8 -1 -1</clus>
<clus scale="   22.433">  1  5  2 -1</clus>
</clustering>
</event>
<event>
 9    1  0.8429841E-005  0.1237751E+03  0.7546771E-02  0.1237208E+00
         21   -1    0    0  501  502  0.00000000000E+00  0.00000000000E+00  0.21205893322E+03  0.21205893322E+03  0.00000000000E+00 0. -1.
          1   -1    0    0  502    0 -0.00000000000E+00 -0.00000000000E+00 -0.11733750300E+03  0.11733750300E+03  0.00000000000E+00 0. -1.
         23    2    1    2    0    0  0.58961727780E+02 -0.86661307105E+02 -0.95940317288E+01  0.13700523181E+03  0.87702454957E+02 0.  0.
        -24    2    1    2    0    0 -0.18728975801E+02  0.63836774081E+02  0.48069269145E+02  0.11956766533E+03  0.86947476654E+02 0.  0.
         11    1    4    4    0    0  0.16968392960E+02 -0.14027054007E+02  0.14914414928E+01  0.22066014626E+02  0.00000000000E+00 0. -1.
        -12    1    4    4    0    0 -0.35697368761E+02  0.77863828089E+02  0.46577827652E+02  0.97501650703E+02  0.00000000000E+00 0.  1.
        -11    1    3    3    0    0 -0.12736322330E+02 -0.50680969109E+02  0.12635117888E+02  0.53762633309E+02  0.00000000000E+00 0.  1.
         11    1    3    3    0    0  0.71698050109E+02 -0.35980337996E+02 -0.22229149617E+02  0.83242598497E+02  0.00000000000E+00 0. -1.
          2    1    1    2  501    0 -0.40232751979E+02  0.22824533024E+02  0.56246192807E+02  0.72823539085E+02  0.00000000000E+00 0. -1.
<scales pt_clust_5="13000.00000" pt_clust_6="13000.00000" pt_clust_7="13000.00000" pt_clust_8="13000.00000" pt_clust_9="46.25617"></scales>
<clustering>
<clus scale="   46.256">  1  9  2 -1</clus>
<clus scale="   86.947">  5  6 -1 -1</clus>
<clus scale="   87.702">  7  8 -1 -1</clus>
<clus scale="  123.241">  1  5  2 -1</clus>
<clus scale="   46.256">  1  5  2 -1</clus>
</clustering>
</event>
<event>
 9    1  0.8429841E-005  0.1072418E+03  0.7546771E-02  0.1269728E+00
         21   -1    0    0  501  502  0.00000000000E+00  0.00000000000E+00  0.18463838895E+03  0.18463838895E+03  0.00000000000E+00 0.  1.
          1   -1    0    0  502    0 -0.00000000000E+00 -0.00000000000E+00 -0.12161354980E+03  0.12161354980E+03  0.00000000000E+00 0. -1.
        -24    2    1    2    0    0  0.32960381766E+02  0.38418719808E+02  0.38705967474E+02  0.10200581016E+03  0.79653302450E+02 0.  0.
         23    2    1    2    0    0  0.23112734233E+02 -0.83499815754E+02  0.39759838549E+02  0.13065996815E+03  0.89357511161E+02 0.  0.
         13    1    3    3    0    0 -0.13105690308E+02  0.40291287987E+02  0.36376957758E+02  0.55842905206E+02  0.00000000000E+00 0. -1.
        -14    1    3    3    0    0  0.46066072073E+02 -0.18725681792E+01  0.23290097157E+01  0.46162904957E+02  0.00000000000E+00 0.  1.
        -11    1    4    4    0    0  0.35208985746E+02 -0.50041243162E+02 -0.17149615127E+02  0.63544535512E+02  0.00000000000E+00 0. -1.
         11    1    4    4    0    0 -0.12096251513E+02 -0.33458572592E+02  0.56909453675E+02  0.67115432638E+02  0.00000000000E+00 0.  1.
          2    1    1    2  501    0 -0.56073115999E+02  0.45081095946E+02 -0.15440966875E+02  0.73586160435E+02  0.00000000000E+00 0. -1.
<scales pt_clust_5="13000.00000" pt_clust_6="13000.00000" pt_clust_7="13000.00000" pt_clust_8="13000.00000" pt_clust_9="71.94793"></scales>
<clustering>
<clus scale="   71.948">  1  9  2 -1</clus>
<clus scale="   79.653">  5  6 -1 -1</clus>
<clus scale="   89.358">  7  8 -1 -1</clus>
<clus scale="   99.301">  2  5  1 -1</clus>
<clus scale="   71.948">  1  5  2 -1</clus>
</clustering>
</event>
<event>
 9    1  0.8429841E-005  0.1030097E+03  0.7546771E-02  0.1279554E+00
         -2   -1    0    0    0  501 -0.00000000000E+00  0.00000000000E+00  0.29498908195E+03  0.29498908195E+03  0.00000000000E+00 0.  1.
         21   -1    0    0  501  502  0.00000000000E+00 -0.00000000000E+00 -0.90667517575E+02  0.90667517575E+02  0.00000000000E+00 0.  1.
         23    2    1    2    0    0 -0.31258822627E+02  0.39495174209E+02  0.23139695991E+03  0.25409111630E+03  0.92091039466E+02 0.  0.
        -24    2    1    2    0    0  0.29770051785E+02 -0.16270444665E+02  0.98609878558E+01  0.87908858084E+02  0.80496862643E+02 0.  0.
         13    1    4    4    0    0  0.43460635950E+02 -0.33963748867E+02 -0.12198720401E+02  0.56490458431E+02  0.00000000000E+00 0. -1.
        -14    1    4    4    0    0 -0.13690584166E+02  0.17693304202E+02  0.22059708257E+02  0.31418399653E+02  0.00000000000E+00 0.  1.
        -11    1    3    3    0    0 -0.55318912162E+02  0.51108316032E+02  0.14132521848E+03  0.16014074868E+03  0.00000000000E+00 0.  1.
         11    1    3    3    0    0  0.24060089535E+02 -0.11613141823E+02  0.90071741428E+02  0.93950367617E+02  0.00000000000E+00 0. -1.
         -1    1    1    2    0  502  0.14887708425E+01 -0.23224729545E+02 -0.36936383388E+02  0.43656625142E+02  0.00000000000E+00 0.  1.
<scales pt_clust_5="13000.00000" pt_clust_6="13000.00000" pt_clust_7="13000.00000" pt_clust_8="13000.00000" pt_clust_9="23.27240"></scales>
<clustering>
<clus scale="   23.272">  2  9  1 -1</clus>
<clus scale="   80.497">  5  6 -1 -1</clus>
<clus scale="   92.091">  7  8 -1 -1</clus>
<clus scale="   92.790">  2  5  1 -1</clus>
<clus scale="   23.272">  2  5  1 -1</clus>
</clustering>
</event>
<event>
 9    1  0.8429841E-005  0.9637325E+02  0.7546771E-02  0.1295237E+00
         21   -1    0    0  501  502  0.00000000000E+00  0.00000000000E+00  0.55692641706E+02  0.55692641706E+02  0.00000000000E+00 0.  1.
          1   -1    0    0  502    0 -0.00000000000E+00 -0.00000000000E+00 -0.26654786420E+03  0.26654786420E+03  0.00000000000E+00 0. -1.
         23    2    1    2    0    0  0.26088107321E+02  0.89693327152E+01 -0.14517384065E+03  0.17415941638E+03  0.92168432946E+02 0.  0.
        -24    2    1    2    0    0 -0.33312821057E+02  0.22643663343E+02 -0.18849779629E+02  0.91118145656E+02  0.79528125461E+02 0.  0.
         13    1    4    4    0    0 -0.28212150834E+02  0.10164946442E+02 -0.49364053421E+02  0.57758647500E+02  0.00000000000E+00 0. -1.
        -14    1    4    4    0    0 -0.51006702228E+01  0.12478716901E+02  0.30514273792E+02  0.33359498156E+02  0.00000000000E+00 0.  1.
        -11    1    3    3    0    0  0.53122432231E+02 -0.18154802547E+02 -0.69446664895E+02  0.89299658043E+02  0.00000000000E+00 0.  1.
         11    1    3    3    0    0 -0.27034324910E+02  0.27124135262E+02 -0.75727175754E+02  0.84859758335E+02  0.00000000000E+00 0. -1.
          2    1    1    2  501    0  0.72247137360E+01 -0.31612996058E+02 -0.46831602211E+02  0.56962943867E+02  0.00000000000E+00 0. -1.
<scales pt_clust_5="13000.00000" pt_clust_6="13000.00000" pt_clust_7="13000.00000" pt_clust_8="13000.00000" pt_clust_9="32.42806"></scales>
<clustering>
<clus scale="   32.428">  1  9  2 -1</clus>
<clus scale="   79.528">  5  6 -1 -1</clus>
<clus scale="   84.365">  1  5  2 -1</clus>
<clus scale="   92.168">  7  8 -1 -1</clus>
<clus scale="   32.428">  1  5  2 -1</clus>
</clustering>
</event>
<event>
 9    1  0.1404539E-004  0.1113455E+03  0.7546771E-02  0.1263173E+00
         21   -1    0    0  501  502  0.00000000000E+00  0.00000000000E+00  0.17716836569E+03  0.17716836569E+03  0.00000000000E+00 0. -1.
         -4   -1    0    0    0  501 -0.00000000000E+00 -0.00000000000E+00 -0.34288207905E+03  0.34288207905E+03  0.00000000000E+00 0.  1.
         23    2    1    2    0    0  0.37525308335E+02  0.47354364590E+02 -0.24007219346E+03  0.26419133973E+03  0.92259532326E+02 0.  0.
        -24    2    1    2    0    0 -0.41851271302E+02 -0.78934121829E+02  0.13933263349E+03  0.18348759383E+03  0.79195895330E+02 0.  0.
         11    1    4    4    0    0 -0.37313359223E+02 -0.92810137740E+02  0.13544688835E+03  0.16838012949E+03  0.00000000000E+00 0. -1.
        -12    1    4    4    0    0 -0.45379120785E+01  0.13876015910E+02  0.38857451399E+01  0.15107464343E+02  0.00000000000E+00 0.  1.
        -11    1    3    3    0    0 -0.39135807813E+01  0.65073552949E+02 -0.14463605220E+03  0.15864889222E+03  0.00000000000E+00 0.  1.
         11    1    3    3    0    0  0.41438889116E+02 -0.17719188358E+02 -0.95436141259E+02  0.10554244751E+03  0.00000000000E+00 0. -1.
         -3    1    1    2    0  502  0.43259629670E+01  0.31579757239E+02 -0.64974153381E+02  0.72371511180E+02  0.00000000000E+00 0.  1.
<scales pt_clust_5="13000.00000" pt_clust_6="13000.00000" pt_clust_7="13000.00000" pt_clust_8="13000.00000" pt_clust_9="31.87469"></scales>
<clustering>
<clus scale="   31.875">  1  9  2 -1</clus>
<clus scale="   79.196">  5  6 -1 -1</clus>
<clus scale="   92.260">  7  8 -1 -1</clus>
<clus scale="  100.787">  1  5  2 -1</clus>
<clus scale="   31.875">  1  5  2 -1</clus>
</clustering>
</event>
<event>
 9    1  0.8429841E-005  0.1485136E+03  0.7546771E-02  0.1204708E+00
         -4   -1    0    0    0  501 -0.00000000000E+00  0.00000000000E+00  0.71386699289E+03  0.71386699289E+03  0.00000000000E+00 0.  1.
         21   -1    0    0  501  502  0.00000000000E+00 -0.00000000000E+00 -0.54550189574E+02  0.54550189574E+02  0.00000000000E+00 0. -1.
         23    2    1    2    0    0 -0.63886713183E+02 -0.12932636060E+03  0.30027736700E+03  0.34567092934E+03  0.92277161780E+02 0.  0.
        -24    2    1    2    0    0  0.15449010240E+02  0.83087774728E+02  0.94110485597E+02  0.14948526649E+03  0.79666876260E+02 0.  0.
         13    1    4    4    0    0 -0.22351205750E+02  0.56938354371E+02  0.24120745684E+02  0.65752284899E+02  0.00000000000E+00 0. -1.
        -14    1    4    4    0    0  0.37800215990E+02  0.26149420357E+02  0.69989739913E+02  0.83732981596E+02  0.00000000000E+00 0.  1.
        -13    1    3    3    0    0 -0.53725870985E+02 -0.48336755982E+02  0.21844493295E+03  0.23008933031E+03  0.00000000000E+00 0.  1.
         13    1    3    3    0    0 -0.10160842199E+02 -0.80989604613E+02  0.81832434056E+02  0.11558159902E+03  0.00000000000E+00 0. -1.
         -3    1    1    2    0  502  0.48437702943E+02  0.46238585867E+02  0.26492895071E+03  0.27326098663E+03  0.00000000000E+00 0.  1.
<scales pt_clust_5="13000.00000" pt_clust_6="13000.00000" pt_clust_7="13000.00000" pt_clust_8="13000.00000" pt_clust_9="66.96434"></scales>
<clustering>
<clus scale="   66.964">  2  9  1 -1</clus>
<clus scale="   79.667">  5  6 -1 -1</clus>
<clus scale="   92.277">  7  8 -1 -1</clus>
<clus scale="  141.025">  2  5  1 -1</clus>
<clus scale="   66.964">  2  5  1 -1</clus>
</clustering>
</event>
<event>
 9    1  0.8429841E-005  0.1404723E+03  0.7546771E-02  0.1213468E+00
         21   -1    0    0  501  502  0.00000000000E+00  0.00000000000E+00  0.45770172532E+02  0.45770172532E+02  0.00000000000E+00 0. -1.
         -2   -1    0    0    0  501 -0.00000000000E+00 -0.00000000000E+00 -0.66532669572E+03  0.66532669572E+03  0.00000000000E+00 0.  1.
        -24    2    1    2    0    0 -0.97124892459E+02 -0.65918157190E+02 -0.45792177559E+03  0.47996574533E+03  0.83044060285E+02 0.  0.
         23    2    1    2    0    0  0.66434641406E+02  0.70365782542E+02 -0.14875677048E+03  0.19755263017E+03  0.86796082820E+02 0.  0.
         13    1    3    3    0    0 -0.53751849535E+02 -0.55858269187E+02 -0.15005631131E+03  0.16889731830E+03  0.00000000000E+00 0. -1.
        -14    1    3    3    0    0 -0.43373042924E+02 -0.10059888003E+02 -0.30786546427E+03  0.31106842702E+03  0.00000000000E+00 0.  1.
        -13    1    4    4    0    0  0.41216596484E+02  0.10600056162E+02 -0.11862440400E+03  0.12602745035E+03  0.00000000000E+00 0.  1.
         13    1    4    4    0    0  0.25218044922E+02  0.59765726380E+02 -0.30132366479E+02  0.71525179825E+02  0.00000000000E+00 0. -1.
         -1    1    1    2    0  502  0.30690251052E+02 -0.44476253526E+01 -0.12877977126E+02  0.33578492756E+02  0.00000000000E+00 0.  1.
<scales pt_clust_5="13000.00000" pt_clust_6="13000.00000" pt_clust_7="13000.00000" pt_clust_8="13000.00000" pt_clust_9="31.01085"></scales>
<clustering>
<clus scale="   31.011">  1  9  2 -1</clus>
<clus scale="   83.044">  5  6 -1 -1</clus>
<clus scale="   86.796">  7  8 -1 -1</clus>
<clus scale="  138.185">  2  5  1 -1</clus>
<clus scale="   31.011">  1  5  2 -1</clus>
</clustering>
</event>
<event>
 9    1  0.8429841E-005  0.1179596E+03  0.7546771E-02  0.1263114E+00
          3   -1    0    0  502    0 -0.00000000000E+00  0.00000000000E+00  0.25500772298E+03  0.25500772298E+03  0.00000000000E+00 0. -1.
         21   -1    0    0  501  502  0.00000000000E+00 -0.00000000000E+00 -0.30146427302E+03  0.30146427302E+03  0.00000000000E+00 0. -1.
        -24    2    1    2    0    0 -0.45894755772E+01 -0.18412092781E+02  0.20720382754E+03  0.22370169519E+03  0.82152016634E+02 0.  0.
         23    2    1    2    0    0  0.46244278462E+02  0.43330287710E+02 -0.84779039782E+02  0.15705193155E+03  0.11602489601E+03 0.  0.
         13    1    3    3    0    0 -0.17439708491E+02  0.21006737669E+02  0.25606379386E+02  0.37431445671E+02  0.00000000000E+00 0. -1.
        -14    1    3    3    0    0  0.12850232914E+02 -0.39418830450E+02  0.18159744815E+03  0.18627024952E+03  0.00000000000E+00 0.  1.
        -11    1    4    4    0    0  0.67264563014E+02  0.48939124242E+02 -0.15731915820E+02  0.84658446090E+02  0.00000000000E+00 0. -1.
         11    1    4    4    0    0 -0.21020284552E+02 -0.56088365319E+01 -0.69047123962E+02  0.72393485462E+02  0.00000000000E+00 0.  1.
          4    1    1    2  501    0 -0.41654802885E+02 -0.24918194929E+02 -0.16888133780E+03  0.17571836927E+03  0.00000000000E+00 0. -1.
<scales pt_clust_5="13000.00000" pt_clust_6="13000.00000" pt_clust_7="13000.00000" pt_clust_8="13000.00000" pt_clust_9="48.53905"></scales>
<clustering>
<clus scale="   48.539">  2  9  1 -1</clus>
<clus scale="   82.152">  5  6 -1 -1</clus>
<clus scale="   84.863">  1  5  2 -1</clus>
<clus scale="  116.025">  7  8 -1 -1</clus>
<clus scale="   48.539">  2  5  1 -1</clus>
</clustering>
</event>
<event>
 9    1  0.8429841E-005  0.1935324E+03  0.7546771E-02  0.1168963E+00
         21   -1    0    0  501  502  0.00000000000E+00  0.00000000000E+00  0.41047234875E+03  0.41047234875E+03  0.00000000000E+00 0.  1.
         -2   -1    0    0    0  501 -0.00000000000E+00 -0.00000000000E+00 -0.22711506773E+03  0.22711506773E+03  0.00000000000E+00 0.  1.
         23    2    1    2    0    0  0.49996125161E+02 -0.93872217235E+02  0.20314075180E+03  0.24728867270E+03  0.92595447537E+02 0.  0.
        -24    2    1    2    0    0 -0.11800215962E+03 -0.95445607360E+02 -0.65641945388E+02  0.18397603750E+03  0.80647031805E+02 0.  0.
         13    1    4    4    0    0 -0.15583361702E+02 -0.21062977644E+02  0.18418364095E+02  0.32026962471E+02  0.00000000000E+00 0. -1.
        -14    1    4    4    0    0 -0.10241879792E+03 -0.74382629716E+02 -0.84060309483E+02  0.15194907503E+03  0.00000000000E+00 0.  1.
        -13    1    3    3    0    0  0.32214516800E+02  0.87098271642E+01  0.28101452730E+02  0.43627145534E+02  0.00000000000E+00 0. -1.
         13    1    3    3    0    0  0.17781608360E+02 -0.10258204440E+03  0.17503929907E+03  0.20366152717E+03  0.00000000000E+00 0.  1.
         -1    1    1    2    0  502  0.68006034462E+02  0.18931782459E+03  0.45858474608E+02  0.20632270628E+03  0.00000000000E+00 0.  1.
<scales pt_clust_5="13000.00000" pt_clust_6="13000.00000" pt_clust_7="13000.00000" pt_clust_8="13000.00000" pt_clust_9="175.92851"></scales>
<clustering>
<clus scale="   80.647">  5  6 -1 -1</clus>
<clus scale="   92.595">  7  8 -1 -1</clus>
<clus scale="  141.016">  2  7  1 -1</clus>
<clus scale="  175.929">  1  9  2 -1</clus>
<clus scale="  175.929">  1  5  2 -1</clus>
</clustering>
</event>
<event>
 9    1  0.8429841E-005  0.9484693E+02  0.7546771E-02  0.1295639E+00
         21   -1    0    0  501  502  0.00000000000E+00  0.00000000000E+00  0.17152502210E+03  0.17152502210E+03  0.00000000000E+00 0.  1.
         -4   -1    0    0    0  501 -0.00000000000E+00 -0.00000000000E+00 -0.87006997516E+02  0.87006997516E+02  0.00000000000E+00 0.  1.
        -24    2    1    2    0    0  0.41094080676E+02  0.25068693920E+01 -0.11433835463E+02  0.91042360258E+02  0.80392604804E+02 0.  0.
         23    2    1    2    0    0 -0.16457883076E+02 -0.12820242120E+02  0.10565852884E+03  0.13907263439E+03  0.87990069879E+02 0.  0.
         13    1    3    3    0    0  0.10945228899E+02 -0.34004775534E+02  0.12678635223E+02  0.37906075844E+02  0.00000000000E+00 0. -1.
        -14    1    3    3    0    0  0.30148851777E+02  0.36511644926E+02 -0.24112470686E+02  0.53136284414E+02  0.00000000000E+00 0.  1.
        -13    1    4    4    0    0  0.27199306325E+02  0.20701920783E+02  0.51814889187E+02  0.62073782953E+02  0.00000000000E+00 0. -1.
         13    1    4    4    0    0 -0.43657189401E+02 -0.33522162903E+02  0.53843639650E+02  0.76998851438E+02  0.00000000000E+00 0.  1.
         -3    1    1    2    0  502 -0.24636197600E+02  0.10313372728E+02 -0.97066687858E+01  0.28417024970E+02  0.00000000000E+00 0.  1.
<scales pt_clust_5="13000.00000" pt_clust_6="13000.00000" pt_clust_7="13000.00000" pt_clust_8="13000.00000" pt_clust_9="26.70784"></scales>
<clustering>
<clus scale="   26.708">  1  9  2 -1</clus>
<clus scale="   80.393">  5  6 -1 -1</clus>
<clus scale="   87.845">  2  5  1 -1</clus>
<clus scale="   87.990">  7  8 -1 -1</clus>
<clus scale="   26.708">  1  5  2 -1</clus>
</clustering>
</event>
<event>
 9    1  0.8429841E-005  0.2633938E+03  0.7546771E-02  0.1105121E+00
         21   -1    0    0  501  502  0.00000000000E+00  0.00000000000E+00  0.10559194051E+03  0.10559194051E+03  0.00000000000E+00 0.  1.
         -2   -1    0    0    0  501 -0.00000000000E+00 -0.00000000000E+00 -0.57306855573E+03  0.57306855573E+03  0.00000000000E+00 0.  1.
        -24    2    1    2    0    0 -0.54499325701E+02 -0.17406590335E+02 -0.14950995498E+03  0.17854295089E+03  0.79064484986E+02 0.  0.
         23    2    1    2    0    0 -0.11680021883E+03 -0.75207021036E+02 -0.23709409493E+03  0.28925933045E+03  0.90326979757E+02 0.  0.
         13    1    3    3    0    0 -0.50647732032E+02  0.62542167379E+01 -0.35809431916E+02  0.62342789488E+02  0.00000000000E+00 0. -1.
        -14    1    3    3    0    0 -0.38515936687E+01 -0.23660807073E+02 -0.11370052307E+03  0.11620016141E+03  0.00000000000E+00 0.  1.
        -11    1    4    4    0    0 -0.24751995948E+02 -0.50973845175E+02 -0.14959675788E+03  0.15996932257E+03  0.00000000000E+00 0. -1.
         11    1    4    4    0    0 -0.92048222880E+02 -0.24233175861E+02 -0.87497337054E+02  0.12929000789E+03  0.00000000000E+00 0.  1.
         -1    1    1    2    0  502  0.17129954453E+03  0.92613611371E+02 -0.80872565303E+02  0.21085821489E+03  0.00000000000E+00 0.  1.
<scales pt_clust_5="13000.00000" pt_clust_6="13000.00000" pt_clust_7="13000.00000" pt_clust_8="13000.00000" pt_clust_9="194.73268"></scales>
<clustering>
<clus scale="   79.064">  5  6 -1 -1</clus>
<clus scale="   90.327">  7  8 -1 -1</clus>
<clus scale="   92.550">  5  7 -1 -1</clus>
<clus scale="  194.733">  1  9  2 -1</clus>
<clus scale="  194.733">  1  5  2 -1</clus>
</clustering>
</event>
<event>
 9    1  0.8429841E-005  0.1157531E+03  0.7546771E-02  0.1253587E+00
          1   -1    0    0  502    0 -0.00000000000E+00  0.00000000000E+00  0.85315010131E+03  0.85315010131E+03  0.00000000000E+00 0. -1.
         21   -1    0    0  501  502  0.00000000000E+00 -0.00000000000E+00 -0.14371302184E+03  0.14371302184E+03  0.00000000000E+00 0.  1.
        -24    2    1    2    0    0  0.70241886694E+02  0.37937385192E+02  0.87958858907E+02  0.14419464200E+03  0.81744517125E+02 0.  0.
         23    2    1    2    0    0  0.26097400448E+02 -0.96718702292E+02 -0.69640336657E+02  0.15239613298E+03  0.91319347206E+02 0.  0.
         11    1    3    3    0    0  0.32986849357E+02 -0.15045063176E+02  0.66891290011E+02  0.76085023729E+02  0.00000000000E+00 0. -1.
        -12    1    3    3    0    0  0.37255037338E+02  0.52982448367E+02  0.21067568896E+02  0.68109618272E+02  0.00000000000E+00 0.  1.
        -11    1    4    4    0    0 -0.23665882502E+02 -0.74854275674E+02 -0.55771233236E+02  0.96299880778E+02  0.00000000000E+00 0.  1.
         11    1    4    4    0    0  0.49763282950E+02 -0.21864426617E+02 -0.13869103421E+02  0.56096252201E+02  0.00000000000E+00 0. -1.
          2    1    1    2  501    0 -0.96339287142E+02  0.58781317100E+02  0.69111855722E+03  0.70027234818E+03  0.00000000000E+00 0. -1.
<scales pt_clust_5="13000.00000" pt_clust_6="13000.00000" pt_clust_7="13000.00000" pt_clust_8="13000.00000" pt_clust_9="112.85617"></scales>
<clustering>
<clus scale="   81.745">  5  6 -1 -1</clus>
<clus scale="   91.319">  7  8 -1 -1</clus>
<clus scale="  112.856">  2  9  1 -1</clus>
<clus scale="  108.359">  1  5  2 -1</clus>
<clus scale="  112.856">  2  5  1 -1</clus>
</clustering>
</event>
<event>
 9    1  0.8429841E-005  0.9223115E+02  0.7546771E-02  0.1304069E+00
          1   -1    0    0  502    0 -0.00000000000E+00  0.00000000000E+00  0.14271629382E+03  0.14271629382E+03  0.00000000000E+00 0. -1.
         21   -1    0    0  501  502  0.00000000000E+00 -0.00000000000E+00 -0.19534926971E+03  0.19534926971E+03  0.00000000000E+00 0.  1.
         23    2    1    2    0    0 -0.23185039297E+02  0.59937418254E+01 -0.80830154854E+01  0.94593451121E+02  0.91154346398E+02 0.  0.
        -24    2    1    2    0    0 -0.29405517180E+02 -0.24322722534E+02 -0.12012790134E+03  0.14959057365E+03  0.80562694677E+02 0.  0.
         11    1    4    4    0    0  0.22977489382E+02 -0.14888300035E+02 -0.13745645422E+02  0.30636077822E+02  0.00000000000E+00 0. -1.
        -12    1    4    4    0    0 -0.52383006562E+02 -0.94344224994E+01 -0.10638225592E+03  0.11895449583E+03  0.00000000000E+00 0.  1.
        -13    1    3    3    0    0 -0.17264709437E+02  0.48362044012E+02 -0.20702747728E+01  0.51393029981E+02  0.00000000000E+00 0.  1.
         13    1    3    3    0    0 -0.59203298595E+01 -0.42368302186E+02 -0.60127407126E+01  0.43200421140E+02  0.00000000000E+00 0. -1.
          2    1    1    2  501    0  0.52590556477E+02  0.18328980709E+02  0.75577940934E+02  0.93881538762E+02  0.00000000000E+00 0. -1.
<scales pt_clust_5="13000.00000" pt_clust_6="13000.00000" pt_clust_7="13000.00000" pt_clust_8="13000.00000" pt_clust_9="55.69310"></scales>
<clustering>
<clus scale="   55.693">  2  9  1 -1</clus>
<clus scale="   80.563">  5  6 -1 -1</clus>
<clus scale="   81.779">  2  5  1 -1</clus>
<clus scale="   91.154">  7  8 -1 -1</clus>
<clus scale="   55.693">  2  5  1 -1</clus>
</clustering>
</event>
<event>
 9    1  0.8429841E-005  0.1477319E+03  0.7546771E-02  0.1205229E+00
         21   -1    0    0  501  502  0.00000000000E+00  0.00000000000E+00  0.16363459727E+03  0.16363459727E+03  0.00000000000E+00 0.  1.
         -2   -1    0    0    0  501 -0.00000000000E+00 -0.00000000000E+00 -0.17906918093E+03  0.17906918093E+03  0.00000000000E+00 0.  1.
        -24    2    1    2    0    0  0.90854721573E+02 -0.96177884686E+02 -0.59551276461E+02  0.16532840717E+03  0.79261350952E+02 0.  0.
         23    2    1    2    0    0 -0.53918706797E+02  0.76683102604E+02  0.38077562621E+02  0.13517600125E+03  0.89638860830E+02 0.  0.
         13    1    3    3    0    0  0.16572888654E+01 -0.26430170132E+02  0.14346205682E+02  0.30118335230E+02  0.00000000000E+00 0. -1.
        -14    1    3    3    0    0  0.89197432708E+02 -0.69747714554E+02 -0.73897482142E+02  0.13521007194E+03  0.00000000000E+00 0.  1.
        -11    1    4    4    0    0 -0.26570617506E+02  0.34487583865E+02  0.64928019878E+02  0.78173134265E+02  0.00000000000E+00 0.  1.
         11    1    4    4    0    0 -0.27348089292E+02  0.42195518738E+02 -0.26850457257E+02  0.57002866984E+02  0.00000000000E+00 0. -1.
         -1    1    1    2    0  502 -0.36936014776E+02  0.19494782082E+02  0.60391301803E+01  0.42199369773E+02  0.00000000000E+00 0.  1.
<scales pt_clust_5="13000.00000" pt_clust_6="13000.00000" pt_clust_7="13000.00000" pt_clust_8="13000.00000" pt_clust_9="41.76501"></scales>
<clustering>
<clus scale="   41.765">  1  9  2 -1</clus>
<clus scale="   79.261">  5  6 -1 -1</clus>
<clus scale="   89.639">  7  8 -1 -1</clus>
<clus scale="  141.676">  2  5  1 -1</clus>
<clus scale="   41.765">  1  5  2 -1</clus>
</clustering>
</event>
<event>
 9    1  0.8429841E-005  0.1078793E+03  0.7546771E-02  0.1269103E+00
         21   -1    0    0  501  502  0.00000000000E+00  0.00000000000E+00  0.89937560024E+02  0.89937560024E+02  0.00000000000E+00 0. -1.
          1   -1    0    0  502    0 -0.00000000000E+00 -0.00000000000E+00 -0.18058752947E+03  0.18058752947E+03  0.00000000000E+00 0. -1.
         23    2    1    2    0    0  0.61181347961E+02  0.12153913425E+02 -0.10105785893E+03  0.15014680430E+03  0.91872177733E+02 0.  0.
        -24    2    1    2    0    0 -0.42737699838E+02 -0.19934806942E+02 -0.68758021317E+01  0.93931424215E+02  0.80943982388E+02 0.  0.
         11    1    4    4    0    0 -0.15949504121E+02 -0.32339467299E+02  0.29850646437E+02  0.46811205064E+02  0.00000000000E+00 0. -1.
        -12    1    4    4    0    0 -0.26788195717E+02  0.12404660357E+02 -0.36726448568E+02  0.47120219151E+02  0.00000000000E+00 0.  1.
        -13    1    3    3    0    0 -0.85803877680E+01  0.32369674753E+02 -0.12812471913E+02  0.35854962480E+02  0.00000000000E+00 0.  1.
         13    1    3    3    0    0  0.69761735729E+02 -0.20215761328E+02 -0.88245387016E+02  0.11429184182E+03  0.00000000000E+00 0. -1.
          2    1    1    2  501    0 -0.18443648123E+02  0.77808935169E+01  0.17283691611E+02  0.26446860980E+02  0.00000000000E+00 0. -1.
<scales pt_clust_5="13000.00000" pt_clust_6="13000.00000" pt_clust_7="13000.00000" pt_clust_8="13000.00000" pt_clust_9="20.01775"></scales>
<clustering>
<clus scale="   20.018">  1  9  2 -1</clus>
<clus scale="   80.944">  5  6 -1 -1</clus>
<clus scale="   91.872">  7  8 -1 -1</clus>
<clus scale="   98.739">  1  5  2 -1</clus>
<clus scale="   20.018">  1  5  2 -1</clus>
</clustering>
</event>
<event>
 9    1  0.8429841E-005  0.1447644E+03  0.7546771E-02  0.1209911E+00
         21   -1    0    0  501  502  0.00000000000E+00  0.00000000000E+00  0.54972290550E+02  0.54972290550E+02  0.00000000000E+00 0. -1.
         -2   -1    0    0    0  501 -0.00000000000E+00 -0.00000000000E+00 -0.80933174696E+03  0.80933174696E+03  0.00000000000E+00 0.  1.
        -24    2    1    2    0    0  0.61846044101E+02  0.94445058987E+02 -0.47482238314E+03  0.49422899581E+03  0.77853724615E+02 0.  0.
         23    2    1    2    0    0 -0.25149277294E+02 -0.10946155805E+03 -0.78307532717E+02  0.16497634367E+03  0.92036978723E+02 0.  0.
         11    1    3    3    0    0  0.78789837936E+02  0.75637500190E+02 -0.34202382463E+03  0.35903922712E+03  0.00000000000E+00 0. -1.
        -12    1    3    3    0    0 -0.16943793836E+02  0.18807558797E+02 -0.13279855851E+03  0.13518976869E+03  0.00000000000E+00 0.  1.
        -13    1    4    4    0    0  0.26014097053E+01 -0.38695432185E+02 -0.80043018090E+02  0.88943738113E+02  0.00000000000E+00 0.  1.
         13    1    4    4    0    0 -0.27750686999E+02 -0.70766125867E+02  0.17354853732E+01  0.76032605562E+02  0.00000000000E+00 0. -1.
         -1    1    1    2    0  502 -0.36696766807E+02  0.15016499064E+02 -0.20122954055E+03  0.20509869802E+03  0.00000000000E+00 0.  1.
<scales pt_clust_5="13000.00000" pt_clust_6="13000.00000" pt_clust_7="13000.00000" pt_clust_8="13000.00000" pt_clust_9="39.65034"></scales>
<clustering>
<clus scale="   39.650">  1  9  2 -1</clus>
<clus scale="   77.854">  5  6 -1 -1</clus>
<clus scale="   92.037">  7  8 -1 -1</clus>
<clus scale="  136.188">  2  5  1 -1</clus>
<clus scale="   39.650">  1  5  2 -1</clus>
</clustering>
</event>
<event>
 9    1  0.8429841E-005  0.1595746E+03  0.7546771E-02  0.1192331E+00
         -2   -1    0    0    0  501 -0.00000000000E+00  0.00000000000E+00  0.54887374534E+03  0.54887374534E+03  0.00000000000E+00 0.  1.
         21   -1    0    0  501  502  0.00000000000E+00 -0.00000000000E+00 -0.10917656471E+03  0.10917656471E+03  0.00000000000E+00 0. -1.
        -24    2    1    2    0    0 -0.22774104392E+02 -0.13574717687E+03  0.31258803523E+03  0.35066824949E+03  0.79441711794E+02 0.  0.
         23    2    1    2    0    0  0.87361046349E+02  0.62038240564E+02 -0.20226553697E+01  0.14527252249E+03  0.98078126733E+02 0.  0.
         11    1    3    3    0    0 -0.45640501665E+02 -0.11060396886E+03  0.19996058335E+03  0.23302473734E+03  0.00000000000E+00 0. -1.
        -12    1    3    3    0    0  0.22866397274E+02 -0.25143208006E+02  0.11262745188E+03  0.11764351215E+03  0.00000000000E+00 0.  1.
        -13    1    4    4    0    0 -0.88290493357E+01  0.29275216945E+02 -0.26820938945E+02  0.40673740979E+02  0.00000000000E+00 0.  1.
         13    1    4    4    0    0  0.96190095685E+02  0.32763023620E+02  0.24798283576E+02  0.10459878151E+03  0.00000000000E+00 0. -1.
         -1    1    1    2    0  502 -0.64586941957E+02  0.73708936306E+02  0.12913180078E+03  0.16210953808E+03  0.00000000000E+00 0.  1.
<scales pt_clust_5="13000.00000" pt_clust_6="13000.00000" pt_clust_7="13000.00000" pt_clust_8="13000.00000" pt_clust_9="98.00250"></scales>
<clustering>
<clus scale="   79.442">  5  6 -1 -1</clus>
<clus scale="   98.002">  2  9  1 -1</clus>
<clus scale="   98.078">  7  8 -1 -1</clus>
<clus scale="  148.848">  1  5  2 -1</clus>
<clus scale="   98.002">  2  5  1 -1</clus>
</clustering>
</event>
<event>
 9    1  0.8429841E-005  0.1385724E+03  0.7546771E-02  0.1230990E+00
         21   -1    0    0  501  502  0.00000000000E+00  0.00000000000E+00  0.74529971701E+02  0.74529971701E+02  0.00000000000E+00 0. -1.
          1   -1    0    0  502    0 -0.00000000000E+00 -0.00000000000E+00 -0.56614309610E+03  0.56614309610E+03  0.00000000000E+00 0. -1.
         23    2    1    2    0    0  0.18341002358E+02  0.41102643084E+02 -0.75051339001E+02  0.12484799104E+03  0.89042112203E+02 0.  0.
        -24    2    1    2    0    0  0.64949576201E+02 -0.11188450361E+03 -0.36338298575E+03  0.39427106824E+03  0.81644909944E+02 0.  0.
         13    1    4    4    0    0  0.62329764796E+02 -0.75519530691E+02 -0.33208557148E+03  0.34622106504E+03  0.00000000000E+00 0. -1.
        -14    1    4    4    0    0  0.26198114053E+01 -0.36364972915E+02 -0.31297414276E+02  0.48050003197E+02  0.00000000000E+00 0.  1.
        -13    1    3    3    0    0  0.52923348204E+02  0.18882179844E+02 -0.29400739715E+02  0.63417828696E+02  0.00000000000E+00 0.  1.
         13    1    3    3    0    0 -0.34582345846E+02  0.22220463240E+02 -0.45650599285E+02  0.61430162347E+02  0.00000000000E+00 0. -1.
          2    1    1    2  501    0 -0.83290578559E+02  0.70781860521E+02 -0.53178799648E+02  0.12155400852E+03  0.00000000000E+00 0. -1.
<scales pt_clust_5="13000.00000" pt_clust_6="13000.00000" pt_clust_7="13000.00000" pt_clust_8="13000.00000" pt_clust_9="111.96610"></scales>
<clustering>
<clus scale="   81.645">  5  6 -1 -1</clus>
<clus scale="   89.042">  7  8 -1 -1</clus>
<clus scale="   99.771">  2  7  1 -1</clus>
<clus scale="  111.966">  1  9  2 -1</clus>
<clus scale="  111.966">  1  5  2 -1</clus>
</clustering>
</event>
<event>
 9    1  0.8429841E-005  0.1363063E+03  0.7546771E-02  0.1243425E+00
         21   -1    0    0  501  502  0.00000000000E+00  0.00000000000E+00  0.65601515074E+03  0.65601515074E+03  0.00000000000E+00 0. -1.
          3   -1    0    0  502    0 -0.00000000000E+00 -0.00000000000E+00 -0.14198690976E+03  0.14198690976E+03  0.00000000000E+00 0. -1.
        -24    2    1    2    0    0 -0.37082812362E+01 -0.10059225759E+02  0.18905293827E+02  0.83507650076E+02  0.80629883505E+02 0.  0.
         23    2    1    2    0    0 -0.84027987204E+02  0.67585288969E+02 -0.58998539769E+02  0.15052852226E+03  0.86888056718E+02 0.  0.
         13    1    3    3    0    0 -0.38775264822E+02 -0.23107082395E-01  0.25544830761E+02  0.46433393959E+02  0.00000000000E+00 0. -1.
        -14    1    3    3    0    0  0.35066983586E+02 -0.10036118676E+02 -0.66395369340E+01  0.37074256117E+02  0.00000000000E+00 0.  1.
        -13    1    4    4    0    0 -0.88244609536E+01 -0.18923085445E+02  0.14682187608E+01  0.20931075945E+02  0.00000000000E+00 0.  1.
         13    1    4    4    0    0 -0.75203526250E+02  0.86508374414E+02 -0.60466758530E+02  0.12959744631E+03  0.00000000000E+00 0. -1.
          4    1    1    2  501    0  0.87736268440E+02 -0.57526063211E+02  0.55412148692E+03  0.56396588817E+03  0.00000000000E+00 0. -1.
<scales pt_clust_5="13000.00000" pt_clust_6="13000.00000" pt_clust_7="13000.00000" pt_clust_8="13000.00000" pt_clust_9="105.02318"></scales>
<clustering>
<clus scale="   80.630">  5  6 -1 -1</clus>
<clus scale="   81.340">  2  5  1 -1</clus>
<clus scale="   86.888">  7  8 -1 -1</clus>
<clus scale="  105.023">  1  9  2 -1</clus>
<clus scale="  105.023">  1  5  2 -1</clus>
</clustering>
</event>
<event>
 9    1  0.8429841E-005  0.1157862E+03  0.7546771E-02  0.1254823E+00
         21   -1    0    0  501  502  0.00000000000E+00  0.00000000000E+00  0.53088954512E+02  0.53088954512E+02  0.00000000000E+00 0.  1.
         -2   -1    0    0    0  501 -0.00000000000E+00 -0.00000000000E+00 -0.47602617404E+03  0.47602617404E+03  0.00000000000E+00 0.  1.
         23    2    1    2    0    0  0.51611591234E+02 -0.28176174293E+01 -0.10838196403E+03  0.15219397817E+03  0.93512895084E+02 0.  0.
        -24    2    1    2    0    0 -0.76591132484E+02 -0.58962558983E+02 -0.13109954389E+03  0.18173722225E+03  0.80613538605E+02 0.  0.
         13    1    4    4    0    0 -0.14513558277E+02 -0.57739894889E+02 -0.87637874722E+02  0.10594779810E+03  0.00000000000E+00 0. -1.
        -14    1    4    4    0    0 -0.62077574207E+02 -0.12226640941E+01 -0.43461669168E+02  0.75789424155E+02  0.00000000000E+00 0.  1.
        -13    1    3    3    0    0  0.19284262059E+02  0.31837803401E+02 -0.96361370252E+02  0.10330073652E+03  0.00000000000E+00 0. -1.
         13    1    3    3    0    0  0.32327329175E+02 -0.34655420830E+02 -0.12020593778E+02  0.48893241653E+02  0.00000000000E+00 0.  1.
         -1    1    1    2    0  502  0.24979541250E+02  0.61780176412E+02 -0.18345571160E+03  0.19518392812E+03  0.00000000000E+00 0.  1.
<scales pt_clust_5="13000.00000" pt_clust_6="13000.00000" pt_clust_7="13000.00000" pt_clust_8="13000.00000" pt_clust_9="66.63912"></scales>
<clustering>
<clus scale="   66.639">  1  9  2 -1</clus>
<clus scale="   80.614">  5  6 -1 -1</clus>
<clus scale="   93.513">  7  8 -1 -1</clus>
<clus scale="  105.642">  1  5  2 -1</clus>
<clus scale="   66.639">  1  5  2 -1</clus>
</clustering>
</event>
<event>
 9    1  0.8429841E-005  0.1051602E+03  0.7546771E-02  0.1275745E+00
          3   -1    0    0  502    0 -0.00000000000E+00  0.00000000000E+00  0.51526419110E+02  0.51526419110E+02  0.00000000000E+00 0. -1.
         21   -1    0    0  501  502  0.00000000000E+00 -0.00000000000E+00 -0.48417032287E+03  0.48417032287E+03  0.00000000000E+00 0.  1.
         23    2    1    2    0    0 -0.27391377696E+02 -0.33434510610E+02 -0.36074400839E+02  0.11260749108E+03  0.97524000015E+02 0.  0.
        -24    2    1    2    0    0  0.27876794797E+02  0.13858243134E+01 -0.37217541856E+03  0.38280991036E+03  0.85146045641E+02 0.  0.
         11    1    4    4    0    0 -0.26160156597E+02 -0.17938132611E+02 -0.11380101000E+03  0.11813890245E+03  0.00000000000E+00 0. -1.
        -12    1    4    4    0    0  0.54036951394E+02  0.19323956924E+02 -0.25837440857E+03  0.26467100791E+03  0.00000000000E+00 0.  1.
        -11    1    3    3    0    0 -0.17740636387E+02  0.32822212593E+02 -0.17127501693E+01  0.37349181143E+02  0.00000000000E+00 0.  1.
         11    1    3    3    0    0 -0.96507413098E+01 -0.66256723203E+02 -0.34361650670E+02  0.75258309934E+02  0.00000000000E+00 0. -1.
          4    1    1    2  501    0 -0.48541710039E+00  0.32048686297E+02 -0.24394084358E+02  0.40279340546E+02  0.00000000000E+00 0. -1.
<scales pt_clust_5="13000.00000" pt_clust_6="13000.00000" pt_clust_7="13000.00000" pt_clust_8="13000.00000" pt_clust_9="32.05238"></scales>
<clustering>
<clus scale="   32.052">  2  9  1 -1</clus>
<clus scale="   85.146">  5  6 -1 -1</clus>
<clus scale="   93.795">  2  5  1 -1</clus>
<clus scale="   97.524">  7  8 -1 -1</clus>
<clus scale="   32.052">  2  5  1 -1</clus>
</clustering>
</event>
<event>
 9    1  0.8429841E-005  0.1596074E+03  0.7546771E-02  0.1190369E+00
         21   -1    0    0  501  502  0.00000000000E+00  0.00000000000E+00  0.39106686871E+02  0.39106686871E+02  0.00000000000E+00 0.  1.
         -2   -1    0    0    0  501 -0.00000000000E+00 -0.00000000000E+00 -0.81840043743E+03  0.81840043743E+03  0.00000000000E+00 0.  1.
        -24    2    1    2    0    0  0.11319808700E+03  0.77333348607E+02 -0.43167764205E+03  0.45996560669E+03  0.80178045498E+02 0.  0.
         23    2    1    2    0    0 -0.11407554292E+03 -0.55849216556E+02 -0.22469355670E+03  0.27275252931E+03  0.88172463628E+02 0.  0.
         13    1    3    3    0    0  0.35692592988E+02  0.68942874277E+02 -0.26151313734E+03  0.27279333223E+03  0.00000000000E+00 0. -1.
        -14    1    3    3    0    0  0.77505494010E+02  0.83904743301E+01 -0.17016450471E+03  0.18717227445E+03  0.00000000000E+00 0.  1.
        -13    1    4    4    0    0 -0.10800379982E+03 -0.76367072147E+02 -0.20291377346E+03  0.24222045732E+03  0.00000000000E+00 0.  1.
         13    1    4    4    0    0 -0.60717430994E+01  0.20517855592E+02 -0.21779783243E+02  0.30532071997E+02  0.00000000000E+00 0. -1.
         -1    1    1    2    0  502  0.87745591782E+00 -0.21484132052E+02 -0.12292255180E+03  0.12478898830E+03  0.00000000000E+00 0.  1.
<scales pt_clust_5="13000.00000" pt_clust_6="13000.00000" pt_clust_7="13000.00000" pt_clust_8="13000.00000" pt_clust_9="21.50205"></scales>
<clustering>
<clus scale="   21.502">  1  9  2 -1</clus>
<clus scale="   80.178">  5  6 -1 -1</clus>
<clus scale="   88.172">  7  8 -1 -1</clus>
<clus scale="  155.334">  2  5  1 -1</clus>
<clus scale="   21.502">  1  5  2 -1</clus>
</clustering>
</event>
<event>
 9    1  0.8429841E-005  0.1520271E+03  0.7546771E-02  0.1200193E+00
         21   -1    0    0  501  502  0.00000000000E+00  0.00000000000E+00  0.83675374054E+03  0.83675374054E+03  0.00000000000E+00 0. -1.
         -2   -1    0    0    0  501 -0.00000000000E+00 -0.00000000000E+00 -0.95700213788E+02  0.95700213788E+02  0.00000000000E+00 0.  1.
         23    2    1    2    0    0  0.67974555118E+02 -0.99779043520E+02  0.90470312146E+02  0.17650557352E+03  0.91613003627E+02 0.  0.
        -24    2    1    2    0    0 -0.25662161067E+02  0.13076837377E+03  0.67887014381E+03  0.69635955935E+03  0.79328744123E+02 0.  0.
         13    1    4    4    0    0 -0.48614099123E+01  0.10228332541E+03  0.61437243953E+03  0.62284749852E+03  0.00000000000E+00 0. -1.
        -14    1    4    4    0    0 -0.20800751155E+02  0.28485048362E+02  0.64497704287E+02  0.73512060827E+02  0.00000000000E+00 0.  1.
        -13    1    3    3    0    0  0.23160461129E+02 -0.95667693913E+02  0.87001801265E+02  0.13136981404E+03  0.00000000000E+00 0.  1.
         13    1    3    3    0    0  0.44814093989E+02 -0.41113496077E+01  0.34685108814E+01  0.45135759475E+02  0.00000000000E+00 0. -1.
         -1    1    1    2    0  502 -0.42312394051E+02 -0.30989330248E+02 -0.28286929206E+02  0.59588821464E+02  0.00000000000E+00 0.  1.
<scales pt_clust_5="13000.00000" pt_clust_6="13000.00000" pt_clust_7="13000.00000" pt_clust_8="13000.00000" pt_clust_9="52.44693"></scales>
<clustering>
<clus scale="   52.447">  1  9  2 -1</clus>
<clus scale="   79.329">  5  6 -1 -1</clus>
<clus scale="   91.613">  7  8 -1 -1</clus>
<clus scale="  144.956">  1  5  2 -1</clus>
<clus scale="   52.447">  1  5  2 -1</clus>
</clustering>
</event>
<event>
 9    1  0.8429841E-005  0.1361300E+03  0.7546771E-02  0.1233583E+00
         -2   -1    0    0    0  501 -0.00000000000E+00  0.00000000000E+00  0.13189790197E+03  0.13189790197E+03  0.00000000000E+00 0.  1.
         21   -1    0    0  501  502  0.00000000000E+00 -0.00000000000E+00 -0.29684222442E+03  0.29684222442E+03  0.00000000000E+00 0. -1.
         23    2    1    2    0    0  0.46431144066E+02 -0.16156826270E+02 -0.87748709602E+02  0.13286955260E+03  0.86819282396E+02 0.  0.
        -24    2    1    2    0    0  0.20115149714E+02 -0.81569093764E+02  0.46045094798E+02  0.12508697774E+03  0.80426767558E+02 0.  0.
         13    1    4    4    0    0 -0.56153431942E+01 -0.88035246233E+02  0.26416118431E+02  0.92084461075E+02  0.00000000000E+00 0. -1.
        -14    1    4    4    0    0  0.25730492908E+02  0.64661524691E+01  0.19628976367E+02  0.33002516665E+02  0.00000000000E+00 0.  1.
        -11    1    3    3    0    0  0.67835585649E+02 -0.63559881756E+01 -0.85345140531E+02  0.10920557805E+03  0.00000000000E+00 0. -1.
         11    1    3    3    0    0 -0.21404441582E+02 -0.98008380945E+01 -0.24035690710E+01  0.23663974541E+02  0.00000000000E+00 0.  1.
         -1    1    1    2    0  502 -0.66546293780E+02  0.97725920034E+02 -0.12324070764E+03  0.17078359605E+03  0.00000000000E+00 0.  1.
<scales pt_clust_5="13000.00000" pt_clust_6="13000.00000" pt_clust_7="13000.00000" pt_clust_8="13000.00000" pt_clust_9="109.83125"></scales>
<clustering>
<clus scale="   80.427">  5  6 -1 -1</clus>
<clus scale="   86.819">  7  8 -1 -1</clus>
<clus scale="   99.772">  1  7  2 -1</clus>
<clus scale="  109.831">  2  9  1 -1</clus>
<clus scale="  109.831">  2  5  1 -1</clus>
</clustering>
</event>
<event>
 9    1  0.8429841E-005  0.1532404E+03  0.7546771E-02  0.1207944E+00
         -4   -1    0    0    0  501 -0.00000000000E+00  0.00000000000E+00  0.13003182383E+03  0.13003182383E+03  0.00000000000E+00 0.  1.
         21   -1    0    0  501  502  0.00000000000E+00 -0.00000000000E+00 -0.33097152426E+03  0.33097152426E+03  0.00000000000E+00 0.  1.
         23    2    1    2    0    0 -0.56110985871E+02 -0.54907666870E+02 -0.92009602805E+02  0.15101710935E+03  0.90427350346E+02 0.  0.
        -24    2    1    2    0    0 -0.66743850893E+02 -0.14661638694E+02  0.16716711199E+02  0.12098803833E+03  0.98432472818E+02 0.  0.
         11    1    4    4    0    0 -0.72492823287E+02  0.51418620456E+01  0.45378658212E+02  0.85678881847E+02  0.00000000000E+00 0. -1.
        -12    1    4    4    0    0  0.57489723944E+01 -0.19803500740E+02 -0.28661947013E+02  0.35309156486E+02  0.00000000000E+00 0.  1.
        -13    1    3    3    0    0 -0.40854517795E+02 -0.79788792297E+02 -0.60963222421E+02  0.10840598456E+03  0.00000000000E+00 0.  1.
         13    1    3    3    0    0 -0.15256468075E+02  0.24881125427E+02 -0.31046380384E+02  0.42611124786E+02  0.00000000000E+00 0. -1.
         -3    1    1    2    0  502  0.12285483676E+03  0.69569305565E+02 -0.12564680882E+03  0.18899820042E+03  0.00000000000E+00 0.  1.
<scales pt_clust_5="13000.00000" pt_clust_6="13000.00000" pt_clust_7="13000.00000" pt_clust_8="13000.00000" pt_clust_9="117.44650"></scales>
<clustering>
<clus scale="   90.427">  7  8 -1 -1</clus>
<clus scale="   98.432">  5  6 -1 -1</clus>
<clus scale="  119.751">  1  7  2 -1</clus>
<clus scale="  117.447">  2  9  1 -1</clus>
<clus scale="  117.447">  2  5  1 -1</clus>
</clustering>
</event>
<event>
 9    1  0.8429841E-005  0.2390245E+03  0.7546771E-02  0.1121176E+00
         21   -1    0    0  501  502  0.00000000000E+00  0.00000000000E+00  0.58173463301E+03  0.58173463301E+03  0.00000000000E+00 0.  1.
          3   -1    0    0  502    0 -0.00000000000E+00 -0.00000000000E+00 -0.19450715219E+03  0.19450715219E+03  0.00000000000E+00 0. -1.
        -24    2    1    2    0    0 -0.88635047255E+02  0.19652428385E+03 -0.18747146771E+02  0.23074947099E+03  0.80099295274E+02 0.  0.
         23    2    1    2    0    0  0.29289428834E+02 -0.23865188782E+03  0.19689243915E+03  0.32410577676E+03  0.92007215634E+02 0.  0.
         11    1    3    3    0    0 -0.10115185038E+03  0.18154007011E+03 -0.26976057225E+02  0.20956192773E+03  0.00000000000E+00 0. -1.
        -12    1    3    3    0    0  0.12516803126E+02  0.14984213739E+02  0.82289104540E+01  0.21187543253E+02  0.00000000000E+00 0.  1.
        -11    1    4    4    0    0 -0.17036002538E+02 -0.12200608898E+02  0.76448679811E+00  0.20968182563E+02  0.00000000000E+00 0. -1.
         11    1    4    4    0    0  0.46325431371E+02 -0.22645127893E+03  0.19612795235E+03  0.30313759419E+03  0.00000000000E+00 0.  1.
          4    1    1    2  501    0  0.59345618422E+02  0.42127603975E+02  0.20908218844E+03  0.22138653746E+03  0.00000000000E+00 0. -1.
<scales pt_clust_5="13000.00000" pt_clust_6="13000.00000" pt_clust_7="13000.00000" pt_clust_8="13000.00000" pt_clust_9="72.77800"></scales>
<clustering>
<clus scale="   72.778">  1  9  2 -1</clus>
<clus scale="   80.099">  5  6 -1 -1</clus>
<clus scale="   92.007">  7  8 -1 -1</clus>
<clus scale="  234.698">  2  5  1 -1</clus>
<clus scale="   72.778">  1  5  2 -1</clus>
</clustering>
</event>
<event>
 9    1  0.8429841E-005  0.2007920E+03  0.7546771E-02  0.1149893E+00
         21   -1    0    0  501  502  0.00000000000E+00  0.00000000000E+00  0.23323048767E+03  0.23323048767E+03  0.00000000000E+00 0. -1.
          1   -1    0    0  502    0 -0.00000000000E+00 -0.00000000000E+00 -0.30442607790E+03  0.30442607790E+03  0.00000000000E+00 0. -1.
        -24    2    1    2    0    0 -0.14810735146E+03  0.81965594251E+02 -0.98853387262E+02  0.21276891630E+03  0.82731332486E+02 0.  0.
         23    2    1    2    0    0  0.13374053064E+03 -0.16576544909E+03  0.49597152275E+02  0.23708015232E+03  0.91555488456E+02 0.  0.
         13    1    3    3    0    0 -0.83964626647E+02  0.22613662304E+02 -0.89653008585E+02  0.12489634982E+03  0.00000000000E+00 0. -1.
        -14    1    3    3    0    0 -0.64142724809E+02  0.59351931947E+02 -0.92003786765E+01  0.87872566479E+02  0.00000000000E+00 0.  1.
        -13    1    4    4    0    0 -0.15254312230E+01 -0.21587223419E+02 -0.17997118850E+02  0.28146606230E+02  0.00000000000E+00 0.  1.
         13    1    4    4    0    0  0.13526596186E+03 -0.14417822567E+03  0.67594271126E+02  0.20893354609E+03  0.00000000000E+00 0. -1.
          2    1    1    2  501    0  0.14366820820E+02  0.83799854834E+02 -0.21939355243E+02  0.87807496942E+02  0.00000000000E+00 0. -1.
<scales pt_clust_5="13000.00000" pt_clust_6="13000.00000" pt_clust_7="13000.00000" pt_clust_8="13000.00000" pt_clust_9="85.02252"></scales>
<clustering>
<clus scale="   82.731">  5  6 -1 -1</clus>
<clus scale="   85.023">  1  9  2 -1</clus>
<clus scale="   91.555">  7  8 -1 -1</clus>
<clus scale="  196.925">  2  5  1 -1</clus>
<clus scale="   85.023">  1  5  2 -1</clus>
</clustering>
</event>
<event>
 9    1  0.8429841E-005  0.9800116E+02  0.7546771E-02  0.1290946E+00
          3   -1    0    0  502    0 -0.00000000000E+00  0.00000000000E+00  0.40038311600E+03  0.40038311600E+03  0.00000000000E+00 0. -1.
         21   -1    0    0  501  502  0.00000000000E+00 -0.00000000000E+00 -0.28263540542E+03  0.28263540542E+03  0.00000000000E+00 0. -1.
         23    2    1    2    0    0 -0.10529042193E+02 -0.34172566691E+02  0.33691572506E+03  0.35124331297E+03  0.92633871081E+02 0.  0.
        -24    2    1    2    0    0  0.29671350566E+02  0.35858747809E+01  0.21188334114E+02  0.88725526279E+02  0.80808576084E+02 0.  0.
         13    1    4    4    0    0 -0.44042897046E+01 -0.33206278350E+02 -0.18301988064E+01  0.33547046328E+02  0.00000000000E+00 0. -1.
        -14    1    4    4    0    0  0.34075640271E+02  0.36792153131E+02  0.23018532920E+02  0.55178479951E+02  0.00000000000E+00 0.  1.
        -11    1    3    3    0    0 -0.41760986392E+00 -0.57603395938E+02  0.30493641378E+03  0.31032973121E+03  0.00000000000E+00 0. -1.
         11    1    3    3    0    0 -0.10111432329E+02  0.23430829246E+02  0.31979311274E+02  0.40913581761E+02  0.00000000000E+00 0.  1.
          4    1    1    2  501    0 -0.19142308373E+02  0.30586691910E+02 -0.24035634859E+03  0.24304968216E+03  0.00000000000E+00 0. -1.
<scales pt_clust_5="13000.00000" pt_clust_6="13000.00000" pt_clust_7="13000.00000" pt_clust_8="13000.00000" pt_clust_9="36.08287"></scales>
<clustering>
<clus scale="   36.083">  2  9  1 -1</clus>
<clus scale="   80.809">  5  6 -1 -1</clus>
<clus scale="   86.909">  2  5  1 -1</clus>
<clus scale="   92.634">  7  8 -1 -1</clus>
<clus scale="   36.083">  2  5  1 -1</clus>
</clustering>
</event>
<event>
 9    1  0.8429841E-005  0.1927082E+03  0.7546771E-02  0.1157185E+00
          3   -1    0    0  502    0 -0.00000000000E+00  0.00000000000E+00  0.57429612622E+03  0.57429612622E+03  0.00000000000E+00 0. -1.
         21   -1    0    0  501  502  0.00000000000E+00 -0.00000000000E+00 -0.27758858093E+03  0.27758858093E+03  0.00000000000E+00 0. -1.
         23    2    1    2    0    0 -0.79042420167E+02  0.15145133140E+03  0.47582209806E+03  0.51390089118E+03  0.92207629749E+02 0.  0.
        -24    2    1    2    0    0  0.92516316053E+02 -0.13239302319E+03 -0.25360952069E+02  0.18246875332E+03  0.81021520138E+02 0.  0.
         13    1    4    4    0    0  0.20290359079E+02  0.28094995280E+01  0.13249782354E+02  0.24395669525E+02  0.00000000000E+00 0. -1.
        -14    1    4    4    0    0  0.72225956974E+02 -0.13520252271E+03 -0.38610734423E+02  0.15807308380E+03  0.00000000000E+00 0.  1.
        -13    1    3    3    0    0 -0.22736224840E+02  0.13238172807E+03  0.31496793983E+03  0.34241299766E+03  0.00000000000E+00 0. -1.
         13    1    3    3    0    0 -0.56306195326E+02  0.19069603331E+02  0.16085415823E+03  0.17148789351E+03  0.00000000000E+00 0.  1.
          4    1    1    2  501    0 -0.13473895887E+02 -0.19058308217E+02 -0.15375360070E+03  0.15551506265E+03  0.00000000000E+00 0. -1.
<scales pt_clust_5="13000.00000" pt_clust_6="13000.00000" pt_clust_7="13000.00000" pt_clust_8="13000.00000" pt_clust_9="23.34020"></scales>
<clustering>
<clus scale="   23.340">  2  9  1 -1</clus>
<clus scale="   81.022">  5  6 -1 -1</clus>
<clus scale="   92.208">  7  8 -1 -1</clus>
<clus scale="  187.613">  2  5  1 -1</clus>
<clus scale="   23.340">  2  5  1 -1</clus>
</clustering>
</event>
<event>
 9    1  0.8429841E-005  0.9444588E+02  0.7546771E-02  0.1297368E+00
         -2   -1    0    0    0  501 -0.00000000000E+00  0.00000000000E+00  0.32412971128E+03  0.32412971128E+03  0.00000000000E+00 0.  1.
         21   -1    0    0  501  502  0.00000000000E+00 -0.00000000000E+00 -0.64905879550E+02  0.64905879550E+02  0.00000000000E+00 0. -1.
         23    2    1    2    0    0 -0.22665783813E+02  0.84132205346E+00  0.11381633131E+03  0.14815525691E+03  0.92094393416E+02 0.  0.
        -24    2    1    2    0    0 -0.29196700306E+02  0.60397871497E+02  0.56646683708E+02  0.12122065538E+03  0.83577810001E+02 0.  0.
         11    1    4    4    0    0 -0.35879919462E+02  0.61920901812E+02  0.79061762568E+01  0.72000516142E+02  0.00000000000E+00 0. -1.
        -12    1    4    4    0    0  0.66832191558E+01 -0.15230303144E+01  0.48740507451E+02  0.49220139234E+02  0.00000000000E+00 0.  1.
        -11    1    3    3    0    0  0.74739141178E+01 -0.32446898860E+02  0.95640079187E+01  0.34642905267E+02  0.00000000000E+00 0.  1.
         11    1    3    3    0    0 -0.30139697931E+02  0.33288220914E+02  0.10425232339E+03  0.11351235164E+03  0.00000000000E+00 0. -1.
         -1    1    1    2    0  502  0.51862484119E+02 -0.61239193551E+02  0.88760816713E+02  0.11965967854E+03  0.00000000000E+00 0.  1.
<scales pt_clust_5="13000.00000" pt_clust_6="13000.00000" pt_clust_7="13000.00000" pt_clust_8="13000.00000" pt_clust_9="80.24938"></scales>
<clustering>
<clus scale="   80.249">  2  9  1 -1</clus>
<clus scale="   83.578">  5  6 -1 -1</clus>
<clus scale="   86.162">  2  5  1 -1</clus>
<clus scale="   92.094">  7  8 -1 -1</clus>
<clus scale="   80.249">  2  5  1 -1</clus>
</clustering>
</event>
<event>
 9    1  0.8429841E-005  0.1079974E+03  0.7546771E-02  0.1268554E+00
          1   -1    0    0  502    0 -0.00000000000E+00  0.00000000000E+00  0.49218659081E+03  0.49218659081E+03  0.00000000000E+00 0. -1.
         21   -1    0    0  501  502  0.00000000000E+00 -0.00000000000E+00 -0.26931610304E+02  0.26931610304E+02  0.00000000000E+00 0. -1.
        -24    2    1    2    0    0  0.50396025101E+02 -0.33708201251E+01  0.20083760460E+03  0.22242674889E+03  0.81159062507E+02 0.  0.
         23    2    1    2    0    0 -0.63905571346E+02  0.18631103883E+02  0.23630246595E+03  0.26196635666E+03  0.91413765517E+02 0.  0.
         11    1    3    3    0    0  0.19739899087E+02 -0.12713839533E+02  0.50285223183E+01  0.24012317013E+02  0.00000000000E+00 0. -1.
        -12    1    3    3    0    0  0.30656126014E+02  0.93430194080E+01  0.19580908228E+03  0.19841443188E+03  0.00000000000E+00 0.  1.
        -13    1    4    4    0    0 -0.50557405369E+02 -0.18612005428E+02  0.20369092986E+03  0.21069516580E+03  0.00000000000E+00 0. -1.
         13    1    4    4    0    0 -0.13348165977E+02  0.37243109311E+02  0.32611536094E+02  0.51271190863E+02  0.00000000000E+00 0.  1.
          2    1    1    2  501    0  0.13509546245E+02 -0.15260283758E+02  0.28114909954E+02  0.34725095563E+02  0.00000000000E+00 0. -1.
<scales pt_clust_5="13000.00000" pt_clust_6="13000.00000" pt_clust_7="13000.00000" pt_clust_8="13000.00000" pt_clust_9="20.38097"></scales>
<clustering>
<clus scale="   20.381">  2  9  1 -1</clus>
<clus scale="   81.159">  5  6 -1 -1</clus>
<clus scale="   91.414">  7  8 -1 -1</clus>
<clus scale="   99.467">  1  5  2 -1</clus>
<clus scale="   20.381">  2  5  1 -1</clus>
</clustering>
</event>
<event>
 9    1  0.8429841E-005  0.1072185E+03  0.7546771E-02  0.1273344E+00
         21   -1    0    0  501  502  0.00000000000E+00  0.00000000000E+00  0.44702277778E+03  0.44702277778E+03  0.00000000000E+00 0.  1.
         -4   -1    0    0    0  501 -0.00000000000E+00 -0.00000000000E+00 -0.76492035007E+02  0.76492035007E+02  0.00000000000E+00 0.  1.
        -24    2    1    2    0    0  0.55243661903E+02 -0.33658267027E+01  0.11057473312E+02  0.97501640341E+02  0.79505416064E+02 0.  0.
         23    2    1    2    0    0 -0.13251465141E+02 -0.76469220275E+02  0.12933968466E+03  0.17883217365E+03  0.96067941192E+02 0.  0.
         11    1    3    3    0    0  0.24608919444E+02 -0.23294752256E+02 -0.28040035381E+02  0.43982814633E+02  0.00000000000E+00 0. -1.
        -12    1    3    3    0    0  0.30634742458E+02  0.19928925553E+02  0.39097508693E+02  0.53518825708E+02  0.00000000000E+00 0.  1.
        -11    1    4    4    0    0 -0.31412120840E+02 -0.35035405164E+02  0.12478757711E+03  0.13336468930E+03  0.00000000000E+00 0. -1.
         11    1    4    4    0    0  0.18160655699E+02 -0.41433815111E+02  0.45521075563E+01  0.45467484352E+02  0.00000000000E+00 0.  1.
         -3    1    1    2    0  502 -0.41992196762E+02  0.79835046977E+02  0.23013358479E+03  0.24718099879E+03  0.00000000000E+00 0.  1.
<scales pt_clust_5="13000.00000" pt_clust_6="13000.00000" pt_clust_7="13000.00000" pt_clust_8="13000.00000" pt_clust_9="90.20521"></scales>
<clustering>
<clus scale="   79.505">  5  6 -1 -1</clus>
<clus scale="   90.205">  1  9  2 -1</clus>
<clus scale="   92.671">  2  5  1 -1</clus>
<clus scale="   96.068">  7  8 -1 -1</clus>
<clus scale="   90.205">  1  5  2 -1</clus>
</clustering>
</event>
<event>
 9    1  0.8429841E-005  0.1118387E+03  0.7546771E-02  0.1260459E+00
         21   -1    0    0  501  502  0.00000000000E+00  0.00000000000E+00  0.42419493363E+03  0.42419493363E+03  0.00000000000E+00 0. -1.
          1   -1    0    0  502    0 -0.00000000000E+00 -0.00000000000E+00 -0.83081171765E+02  0.83081171765E+02  0.00000000000E+00 0. -1.
        -24    2    1    2    0    0 -0.84894517078E+02 -0.47610403576E+02  0.16145271276E+02  0.12927781278E+03  0.83535941569E+02 0.  0.
         23    2    1    2    0    0  0.35774112560E+01  0.68633900699E+01  0.10455282540E+03  0.13955363180E+03  0.92108733875E+02 0.  0.
         11    1    3    3    0    0 -0.90377077222E+02 -0.56153185944E+02 -0.42608870021E+01  0.10648639132E+03  0.00000000000E+00 0. -1.
        -12    1    3    3    0    0  0.54825601445E+01  0.85427823682E+01  0.20406158278E+02  0.22791421456E+02  0.00000000000E+00 0.  1.
        -13    1    4    4    0    0  0.46866997411E+02 -0.38209190001E+01  0.62923854500E+02  0.78552697812E+02  0.00000000000E+00 0.  1.
         13    1    4    4    0    0 -0.43289586155E+02  0.10684309070E+02  0.41628970900E+02  0.61000933992E+02  0.00000000000E+00 0. -1.
          2    1    1    2  501    0  0.81317105822E+02  0.40747013506E+02  0.22041566519E+03  0.23844466081E+03  0.00000000000E+00 0. -1.
<scales pt_clust_5="13000.00000" pt_clust_6="13000.00000" pt_clust_7="13000.00000" pt_clust_8="13000.00000" pt_clust_9="90.95488"></scales>
<clustering>
<clus scale="   83.536">  5  6 -1 -1</clus>
<clus scale="   90.955">  1  9  2 -1</clus>
<clus scale="   92.109">  7  8 -1 -1</clus>
<clus scale="  104.891">  2  5  1 -1</clus>
<clus scale="   90.955">  1  5  2 -1</clus>
</clustering>
</event>
<event>
 9    1  0.8429841E-005  0.1903370E+03  0.7546771E-02  0.1159486E+00
         21   -1    0    0  501  502  0.00000000000E+00  0.00000000000E+00  0.75753531460E+03  0.75753531460E+03  0.00000000000E+00 0. -1.
          3   -1    0    0  502    0 -0.00000000000E+00 -0.00000000000E+00 -0.80849984958E+02  0.80849984958E+02  0.00000000000E+00 0. -1.
        -24    2    1    2    0    0  0.17846163285E+03  0.21239762149E+02  0.16609213881E+03  0.25727186290E+03  0.79388481348E+02 0.  0.
         23    2    1    2    0    0 -0.12675653102E+03 -0.67994602633E+02  0.47085503571E+03  0.50087283823E+03  0.92079592089E+02 0.  0.
         11    1    3    3    0    0  0.12199003852E+03  0.86747823843E+01  0.59527040330E+02  0.13601577070E+03  0.00000000000E+00 0. -1.
        -12    1    3    3    0    0  0.56471594328E+02  0.12564979765E+02  0.10656509848E+03  0.12125609220E+03  0.00000000000E+00 0.  1.
        -13    1    4    4    0    0 -0.12918669330E+02 -0.21638587068E+02  0.16349629842E+02  0.30040487072E+02  0.00000000000E+00 0.  1.
         13    1    4    4    0    0 -0.11383786169E+03 -0.46356015565E+02  0.45450540587E+03  0.47083235116E+03  0.00000000000E+00 0. -1.
          4    1    1    2  501    0 -0.51705101827E+02  0.46754840484E+02  0.39738155123E+02  0.80240598428E+02  0.00000000000E+00 0. -1.
<scales pt_clust_5="13000.00000" pt_clust_6="13000.00000" pt_clust_7="13000.00000" pt_clust_8="13000.00000" pt_clust_9="69.70967"></scales>
<clustering>
<clus scale="   69.710">  1  9  2 -1</clus>
<clus scale="   79.388">  5  6 -1 -1</clus>
<clus scale="   92.080">  7  8 -1 -1</clus>
<clus scale="  184.532">  2  5  1 -1</clus>
<clus scale="   69.710">  1  5  2 -1</clus>
</clustering>
</event>
<event>
 9    1  0.8429841E-005  0.1390094E+03  0.7546771E-02  0.1218734E+00
         21   -1    0    0  501  502  0.00000000000E+00  0.00000000000E+00  0.11942419442E+03  0.11942419442E+03  0.00000000000E+00 0.  1.
          1   -1    0    0  502    0 -0.00000000000E+00 -0.00000000000E+00 -0.17908854720E+03  0.17908854720E+03  0.00000000000E+00 0. -1.
         23    2    1    2    0    0 -0.10773331686E+02  0.95352704940E+02 -0.37856017640E+02  0.13873871385E+03  0.92774725186E+02 0.  0.
        -24    2    1    2    0    0  0.27380726062E+02 -0.10884554717E+03 -0.27742714995E+02  0.13756864095E+03  0.74554781462E+02 0.  0.
         13    1    4    4    0    0 -0.17579093242E+02 -0.45482829150E+02 -0.34272954927E+02  0.59601574695E+02  0.00000000000E+00 0. -1.
        -14    1    4    4    0    0  0.44959819303E+02 -0.63362718021E+02  0.65302399321E+01  0.77967066255E+02  0.00000000000E+00 0.  1.
        -13    1    3    3    0    0 -0.31096729841E+02  0.58087626218E+02  0.18265792254E+02  0.68372641408E+02  0.00000000000E+00 0.  1.
         13    1    3    3    0    0  0.20323398155E+02  0.37265078722E+02 -0.56121809894E+02  0.70366072439E+02  0.00000000000E+00 0. -1.
          2    1    1    2  501    0 -0.16607394376E+02  0.13492842232E+02  0.59343798537E+01  0.22205386817E+02  0.00000000000E+00 0. -1.
<scales pt_clust_5="13000.00000" pt_clust_6="13000.00000" pt_clust_7="13000.00000" pt_clust_8="13000.00000" pt_clust_9="21.39772"></scales>
<clustering>
<clus scale="   21.398">  1  9  2 -1</clus>
<clus scale="   74.555">  5  6 -1 -1</clus>
<clus scale="   92.775">  7  8 -1 -1</clus>
<clus scale="  127.573">  1  5  2 -1</clus>
<clus scale="   21.398">  1  5  2 -1</clus>
</clustering>
</event>
<event>
 9    1  0.8429841E-005  0.9668579E+02  0.7546771E-02  0.1292803E+00
         21   -1    0    0  501  502  0.00000000000E+00  0.00000000000E+00  0.15443918512E+03  0.15443918512E+03  0.00000000000E+00 0. -1.
         -4   -1    0    0    0  501 -0.00000000000E+00 -0.00000000000E+00 -0.94466949682E+02  0.94466949682E+02  0.00000000000E+00 0.  1.
        -24    2    1    2    0    0 -0.18043576697E+02  0.32760168592E+02 -0.21335992660E+02  0.92412334699E+02  0.81768060485E+02 0.  0.
         23    2    1    2    0    0 -0.14133932759E+02 -0.24384065320E+02  0.41011194474E+02  0.10425011972E+03  0.91606870338E+02 0.  0.
         13    1    3    3    0    0 -0.43307901090E+02  0.24515348222E+02  0.10583137391E+02  0.50878083615E+02  0.00000000000E+00 0. -1.
        -14    1    3    3    0    0  0.25264324393E+02  0.82448203698E+01 -0.31919130051E+02  0.41534251084E+02  0.00000000000E+00 0.  1.
        -11    1    4    4    0    0  0.36718636598E+02 -0.24040306009E+01  0.27044840450E+01  0.36896502148E+02  0.00000000000E+00 0.  1.
         11    1    4    4    0    0 -0.50852569357E+02 -0.21980034719E+02  0.38306710429E+02  0.67353617574E+02  0.00000000000E+00 0. -1.
         -3    1    1    2    0  502  0.32177509456E+02 -0.83761032726E+01  0.40297033619E+02  0.52243680377E+02  0.00000000000E+00 0.  1.
<scales pt_clust_5="13000.00000" pt_clust_6="13000.00000" pt_clust_7="13000.00000" pt_clust_8="13000.00000" pt_clust_9="33.24983"></scales>
<clustering>
<clus scale="   33.250">  1  9  2 -1</clus>
<clus scale="   81.768">  5  6 -1 -1</clus>
<clus scale="   87.420">  2  5  1 -1</clus>
<clus scale="   91.607">  7  8 -1 -1</clus>
<clus scale="   33.250">  1  5  2 -1</clus>
</clustering>
</event>
<event>
 9    1  0.8429841E-005  0.1487333E+03  0.7546771E-02  0.1205027E+00
          1   -1    0    0  502    0 -0.00000000000E+00  0.00000000000E+00  0.56144191035E+03  0.56144191035E+03  0.00000000000E+00 0. -1.
         21   -1    0    0  501  502  0.00000000000E+00 -0.00000000000E+00 -0.60008841414E+02  0.60008841414E+02  0.00000000000E+00 0. -1.
         23    2    1    2    0    0 -0.98639671585E+02  0.43653145347E+02  0.31273232516E+03  0.34424200464E+03  0.95213804936E+02 0.  0.
        -24    2    1    2    0    0  0.10796501324E+03 -0.77082540549E+02  0.10643032520E+03  0.18791760404E+03  0.79921521788E+02 0.  0.
         11    1    4    4    0    0  0.98845569615E+02 -0.92951534380E+02  0.86774231735E+02  0.16105962147E+03  0.00000000000E+00 0. -1.
        -12    1    4    4    0    0  0.91194436199E+01  0.15868993831E+02  0.19656093461E+02  0.26857982562E+02  0.00000000000E+00 0.  1.
        -13    1    3    3    0    0 -0.76355368572E+02 -0.17310832333E+02  0.15424578501E+03  0.17297852300E+03  0.00000000000E+00 0. -1.
         13    1    3    3    0    0 -0.22284303013E+02  0.60963977679E+02  0.15848654015E+03  0.17126348164E+03  0.00000000000E+00 0.  1.
          2    1    1    2  501    0 -0.93253416500E+01  0.33429395202E+02  0.82270418581E+02  0.89291143088E+02  0.00000000000E+00 0. -1.
<scales pt_clust_5="13000.00000" pt_clust_6="13000.00000" pt_clust_7="13000.00000" pt_clust_8="13000.00000" pt_clust_9="34.70573"></scales>
<clustering>
<clus scale="   34.706">  2  9  1 -1</clus>
<clus scale="   79.922">  5  6 -1 -1</clus>
<clus scale="   95.214">  7  8 -1 -1</clus>
<clus scale="  139.439">  2  5  1 -1</clus>
<clus scale="   34.706">  2  5  1 -1</clus>
</clustering>
</event>
<event>
 9    1  0.8429841E-005  0.1300562E+03  0.7546771E-02  0.1229217E+00
         21   -1    0    0  501  502  0.00000000000E+00  0.00000000000E+00  0.74317823157E+02  0.74317823157E+02  0.00000000000E+00 0.  1.
         -2   -1    0    0    0  501 -0.00000000000E+00 -0.00000000000E+00 -0.12936151083E+04  0.12936151083E+04  0.00000000000E+00 0.  1.
        -24    2    1    2    0    0 -0.88821659760E+02  0.64627518064E+02 -0.11109122782E+04  0.11192887815E+04  0.81334390842E+02 0.  0.
         23    2    1    2    0    0  0.43021824340E+02 -0.72442801799E+01 -0.13778995131E+03  0.16955488596E+03  0.88653435943E+02 0.  0.
         11    1    3    3    0    0 -0.40784579242E+02  0.62587389181E+02 -0.41149704286E+03  0.41822288253E+03  0.00000000000E+00 0. -1.
        -12    1    3    3    0    0 -0.48037080518E+02  0.20401288826E+01 -0.69941523539E+03  0.70106589899E+03  0.00000000000E+00 0.  1.
        -13    1    4    4    0    0 -0.34645967884E+01  0.31150432490E+02 -0.80493176481E+02  0.86379999625E+02  0.00000000000E+00 0.  1.
         13    1    4    4    0    0  0.46486421128E+02 -0.38394712670E+02 -0.57296774832E+02  0.83174886333E+02  0.00000000000E+00 0. -1.
         -1    1    1    2    0  502  0.45799835420E+02 -0.57383237884E+02  0.29404944447E+02  0.79089263952E+02  0.00000000000E+00 0.  1.
<scales pt_clust_5="13000.00000" pt_clust_6="13000.00000" pt_clust_7="13000.00000" pt_clust_8="13000.00000" pt_clust_9="73.41976"></scales>
<clustering>
<clus scale="   73.420">  1  9  2 -1</clus>
<clus scale="   81.334">  5  6 -1 -1</clus>
<clus scale="   88.653">  7  8 -1 -1</clus>
<clus scale="  125.182">  2  5  1 -1</clus>
<clus scale="   73.420">  1  5  2 -1</clus>
</clustering>
</event>
<event>
 9    1  0.8429841E-005  0.1012067E+03  0.7546771E-02  0.1285176E+00
         -4   -1    0    0    0  501 -0.00000000000E+00  0.00000000000E+00  0.12917666514E+03  0.12917666514E+03  0.00000000000E+00 0.  1.
         21   -1    0    0  501  502  0.00000000000E+00 -0.00000000000E+00 -0.14673870650E+03  0.14673870650E+03  0.00000000000E+00 0. -1.
         23    2    1    2    0    0  0.35692471944E+02 -0.19302525034E+02  0.79416921955E+02  0.12880278399E+03  0.92933146100E+02 0.  0.
        -24    2    1    2    0    0 -0.22627506278E+02  0.36004625602E+02 -0.73674035593E+02  0.11560428481E+03  0.78282501503E+02 0.  0.
         11    1    4    4    0    0 -0.43685502847E+02  0.44554042780E+02 -0.37248609469E+02  0.72670109360E+02  0.00000000000E+00 0. -1.
        -12    1    4    4    0    0  0.21057996569E+02 -0.85494171782E+01 -0.36425426123E+02  0.42934175453E+02  0.00000000000E+00 0.  1.
        -11    1    3    3    0    0  0.26212832903E+01  0.32028422159E+02  0.49705852582E+01  0.32517651666E+02  0.00000000000E+00 0. -1.
         11    1    3    3    0    0  0.33071188654E+02 -0.51330947193E+02  0.74446336696E+02  0.96285132322E+02  0.00000000000E+00 0.  1.
         -3    1    1    2    0  502 -0.13064965666E+02 -0.16702100568E+02 -0.23304927728E+02  0.31508302837E+02  0.00000000000E+00 0.  1.
<scales pt_clust_5="13000.00000" pt_clust_6="13000.00000" pt_clust_7="13000.00000" pt_clust_8="13000.00000" pt_clust_9="21.20503"></scales>
<clustering>
<clus scale="   21.205">  2  9  1 -1</clus>
<clus scale="   78.283">  5  6 -1 -1</clus>
<clus scale="   87.945">  2  5  1 -1</clus>
<clus scale="   92.933">  7  8 -1 -1</clus>
<clus scale="   21.205">  2  5  1 -1</clus>
</clustering>
</event>
<event>
 9    1  0.8429841E-005  0.1125538E+03  0.7546771E-02  0.1262983E+00
         21   -1    0    0  501  502  0.00000000000E+00  0.00000000000E+00  0.49006614559E+03  0.49006614559E+03  0.00000000000E+00 0. -1.
          1   -1    0    0  502    0 -0.00000000000E+00 -0.00000000000E+00 -0.55946566497E+02  0.55946566497E+02  0.00000000000E+00 0. -1.
        -24    2    1    2    0    0  0.58245512525E+01  0.83492062887E+02  0.68580629430E+02  0.13500211929E+03  0.80730536466E+02 0.  0.
         23    2    1    2    0    0  0.17163388699E+02  0.19066974104E+01  0.19596702997E+03  0.21976198603E+03  0.97949151394E+02 0.  0.
         13    1    3    3    0    0  0.33851585859E+02  0.78886615012E+02  0.61874831090E+02  0.10581834725E+03  0.00000000000E+00 0. -1.
        -14    1    3    3    0    0 -0.28027034607E+02  0.46054478742E+01  0.67057983399E+01  0.29183772038E+02  0.00000000000E+00 0.  1.
        -13    1    4    4    0    0 -0.31075935720E+02  0.16952002810E+02  0.30417682677E+02  0.46672471539E+02  0.00000000000E+00 0.  1.
         13    1    4    4    0    0  0.48239324419E+02 -0.15045305400E+02  0.16554934730E+03  0.17308951449E+03  0.00000000000E+00 0. -1.
          2    1    1    2  501    0 -0.22987939952E+02 -0.85398760297E+02  0.16957191969E+03  0.19124860677E+03  0.00000000000E+00 0. -1.
<scales pt_clust_5="13000.00000" pt_clust_6="13000.00000" pt_clust_7="13000.00000" pt_clust_8="13000.00000" pt_clust_9="88.43864"></scales>
<clustering>
<clus scale="   80.731">  5  6 -1 -1</clus>
<clus scale="   88.439">  1  9  2 -1</clus>
<clus scale="   97.937">  2  5  1 -1</clus>
<clus scale="   97.949">  7  8 -1 -1</clus>
<clus scale="   88.439">  1  5  2 -1</clus>
</clustering>
</event>
<event>
 9    1  0.8429841E-005  0.1061850E+03  0.7546771E-02  0.1274641E+00
         21   -1    0    0  501  502  0.00000000000E+00  0.00000000000E+00  0.10748927450E+03  0.10748927450E+03  0.00000000000E+00 0.  1.
         -2   -1    0    0    0  501 -0.00000000000E+00 -0.00000000000E+00 -0.27236789117E+03  0.27236789117E+03  0.00000000000E+00 0.  1.
        -24    2    1    2    0    0 -0.74672829600E+02  0.19748996297E+02 -0.13997243038E+03  0.17686468126E+03  0.75649057325E+02 0.  0.
         23    2    1    2    0    0 -0.23550615068E+02 -0.30159401453E+02  0.68307384723E+01  0.99245416934E+02  0.91316881397E+02 0.  0.
         13    1    3    3    0    0 -0.30746882199E+02 -0.26964612876E+02 -0.34857679903E+02  0.53735639577E+02  0.00000000000E+00 0. -1.
        -14    1    3    3    0    0 -0.43925947401E+02  0.46713609174E+02 -0.10511475048E+03  0.12312904168E+03  0.00000000000E+00 0.  1.
        -13    1    4    4    0    0  0.24481707453E+02  0.91503275988E+01  0.23317675218E+02  0.35025654491E+02  0.00000000000E+00 0. -1.
         13    1    4    4    0    0 -0.48032322521E+02 -0.39309729052E+02 -0.16486936745E+02  0.64219762442E+02  0.00000000000E+00 0.  1.
         -1    1    1    2    0  502  0.98223444668E+02  0.10410405156E+02 -0.31736924758E+02  0.10374706748E+03  0.00000000000E+00 0.  1.
<scales pt_clust_5="13000.00000" pt_clust_6="13000.00000" pt_clust_7="13000.00000" pt_clust_8="13000.00000" pt_clust_9="98.77359"></scales>
<clustering>
<clus scale="   75.649">  5  6 -1 -1</clus>
<clus scale="   91.317">  7  8 -1 -1</clus>
<clus scale="   98.774">  1  9  2 -1</clus>
<clus scale="   93.055">  2  5  1 -1</clus>
<clus scale="   98.774">  1  5  2 -1</clus>
</clustering>
</event>
<event>
 9    1  0.8429841E-005  0.2900301E+03  0.7546771E-02  0.1119796E+00
         21   -1    0    0  501  502  0.00000000000E+00  0.00000000000E+00  0.17949307435E+03  0.17949307435E+03  0.00000000000E+00 0. -1.
          1   -1    0    0  502    0 -0.00000000000E+00 -0.00000000000E+00 -0.81957265844E+03  0.81957265844E+03  0.00000000000E+00 0. -1.
        -24    2    1    2    0    0  0.29543218609E+02  0.10620616690E+03 -0.22372687023E+03  0.26181050679E+03  0.79614554911E+02 0.  0.
         23    2    1    2    0    0  0.86504657215E+02  0.22198067044E+03 -0.12230582868E+03  0.28158288716E+03  0.87015704579E+02 0.  0.
         13    1    3    3    0    0  0.42767698463E+02  0.11286886807E+03 -0.19182052781E+03  0.22663532889E+03  0.00000000000E+00 0. -1.
        -14    1    3    3    0    0 -0.13224479853E+02 -0.66627011721E+01 -0.31906342420E+02  0.35175177909E+02  0.00000000000E+00 0.  1.
        -11    1    4    4    0    0  0.67235867831E+02  0.21156433984E+03 -0.13128853165E+03  0.25790853099E+03  0.00000000000E+00 0. -1.
         11    1    4    4    0    0  0.19268789384E+02  0.10416330603E+02  0.89827029685E+01  0.23674356172E+02  0.00000000000E+00 0.  1.
          2    1    1    2  501    0 -0.11604787582E+03 -0.32818683734E+03 -0.29404688518E+03  0.45567233883E+03  0.00000000000E+00 0. -1.
<scales pt_clust_5="13000.00000" pt_clust_6="13000.00000" pt_clust_7="13000.00000" pt_clust_8="13000.00000" pt_clust_9="276.66914"></scales>
<clustering>
<clus scale="   79.615">  5  6 -1 -1</clus>
<clus scale="   87.016">  7  8 -1 -1</clus>
<clus scale="  135.982">  2  5  1 -1</clus>
<clus scale="  276.669">  1  9  2 -1</clus>
<clus scale="  276.669">  1  5  2 -1</clus>
</clustering>
</event>
<event>
 9    1  0.8429841E-005  0.1493635E+03  0.7546771E-02  0.1202962E+00
         21   -1    0    0  501  502  0.00000000000E+00  0.00000000000E+00  0.47139490975E+02  0.47139490975E+02  0.00000000000E+00 0. -1.
          1   -1    0    0  502    0 -0.00000000000E+00 -0.00000000000E+00 -0.60462158118E+03  0.60462158118E+03  0.00000000000E+00 0. -1.
         23    2    1    2    0    0  0.12417199626E+03  0.12479309206E+02 -0.34010557108E+03  0.37322618014E+03  0.89730509013E+02 0.  0.
        -24    2    1    2    0    0 -0.10833800060E+03 -0.35399018441E+02 -0.20523720004E+03  0.24814753350E+03  0.80403216490E+02 0.  0.
         11    1    4    4    0    0 -0.55144336314E+02 -0.52419696945E+02 -0.76866133765E+02  0.10815324764E+03  0.00000000000E+00 0. -1.
        -12    1    4    4    0    0 -0.53193664284E+02  0.17020678504E+02 -0.12837106627E+03  0.13999428586E+03  0.00000000000E+00 0.  1.
        -13    1    3    3    0    0  0.89101515556E+02 -0.20328236270E+02 -0.13817985213E+03  0.16566830958E+03  0.00000000000E+00 0.  1.
         13    1    3    3    0    0  0.35070480700E+02  0.32807545476E+02 -0.20192571896E+03  0.20755787056E+03  0.00000000000E+00 0. -1.
          2    1    1    2  501    0 -0.15833995658E+02  0.22919709235E+02 -0.12139319089E+02  0.30387358520E+02  0.00000000000E+00 0. -1.
<scales pt_clust_5="13000.00000" pt_clust_6="13000.00000" pt_clust_7="13000.00000" pt_clust_8="13000.00000" pt_clust_9="27.85729"></scales>
<clustering>
<clus scale="   27.857">  1  9  2 -1</clus>
<clus scale="   80.403">  5  6 -1 -1</clus>
<clus scale="   89.731">  7  8 -1 -1</clus>
<clus scale="  143.953">  1  5  2 -1</clus>
<clus scale="   27.857">  1  5  2 -1</clus>
</clustering>
</event>
<event>
 9    1  0.8429841E-005  0.3527080E+03  0.7546771E-02  0.1079862E+00
          1   -1    0    0  502    0 -0.00000000000E+00  0.00000000000E+00  0.95051044053E+02  0.95051044053E+02  0.00000000000E+00 0. -1.
         21   -1    0    0  501  502  0.00000000000E+00 -0.00000000000E+00 -0.23674912651E+04  0.23674912651E+04  0.00000000000E+00 0. -1.
         23    2    1    2    0    0  0.19182422170E+03 -0.67254246171E+01 -0.63992273173E+03  0.67451581151E+03  0.92890871612E+02 0.  0.
        -24    2    1    2    0    0 -0.44825875103E+03  0.69095338962E+02 -0.11373324346E+04  0.12269053766E+04  0.77856679955E+02 0.  0.
         13    1    4    4    0    0 -0.41978380585E+03  0.44164332696E+02 -0.10541365586E+04  0.11355055333E+04  0.00000000000E+00 0. -1.
        -14    1    4    4    0    0 -0.28474945184E+02  0.24931006266E+02 -0.83195875954E+02  0.91399843285E+02  0.00000000000E+00 0.  1.
        -13    1    3    3    0    0  0.16893676640E+03 -0.24058867202E+02 -0.60840365110E+03  0.63188089289E+03  0.00000000000E+00 0.  1.
         13    1    3    3    0    0  0.22887455298E+02  0.17333442585E+02 -0.31519080632E+02  0.42634918620E+02  0.00000000000E+00 0. -1.
          2    1    1    2  501    0  0.25643452933E+03 -0.62369914345E+02 -0.49518505470E+03  0.56112112102E+03  0.00000000000E+00 0. -1.
<scales pt_clust_5="13000.00000" pt_clust_6="13000.00000" pt_clust_7="13000.00000" pt_clust_8="13000.00000" pt_clust_9="344.00766"></scales>
<clustering>
<clus scale="   77.857">  5  6 -1 -1</clus>
<clus scale="   92.891">  7  8 -1 -1</clus>
<clus scale="  213.238">  1  7  2 -1</clus>
<clus scale="  344.008">  2  9  1 -1</clus>
<clus scale="  344.008">  2  5  1 -1</clus>
</clustering>
</event>
<event>
 9    1  0.8429841E-005  0.9766962E+02  0.7546771E-02  0.1291082E+00
         21   -1    0    0  501  502  0.00000000000E+00  0.00000000000E+00  0.59538870955E+03  0.59538870955E+03  0.00000000000E+00 0. -1.
          1   -1    0    0  502    0 -0.00000000000E+00 -0.00000000000E+00 -0.11646031725E+03  0.11646031725E+03  0.00000000000E+00 0. -1.
         23    2    1    2    0    0  0.22566524639E+02 -0.28433008545E+02 -0.85377074058E+02  0.13005487415E+03  0.91144618633E+02 0.  0.
        -24    2    1    2    0    0  0.21506381154E+02  0.38688833174E+02  0.30136468839E+03  0.31498812633E+03  0.80233995765E+02 0.  0.
         11    1    4    4    0    0  0.36691835428E+02  0.51551120409E+02  0.27363958987E+03  0.28086016796E+03  0.00000000000E+00 0. -1.
        -12    1    4    4    0    0 -0.15185454274E+02 -0.12862287235E+02  0.27725098526E+02  0.34127958373E+02  0.00000000000E+00 0.  1.
        -11    1    3    3    0    0 -0.20002550119E+00 -0.44452979671E+02 -0.46895152824E+01  0.44700100284E+02  0.00000000000E+00 0.  1.
         11    1    3    3    0    0  0.22766550140E+02  0.16019971126E+02 -0.80687558776E+02  0.85354773864E+02  0.00000000000E+00 0. -1.
          2    1    1    2  501    0 -0.44072905793E+02 -0.10255824629E+02  0.26294077797E+03  0.26680602632E+03  0.00000000000E+00 0. -1.
<scales pt_clust_5="13000.00000" pt_clust_6="13000.00000" pt_clust_7="13000.00000" pt_clust_8="13000.00000" pt_clust_9="45.25045"></scales>
<clustering>
<clus scale="   45.250">  1  9  2 -1</clus>
<clus scale="   80.234">  5  6 -1 -1</clus>
<clus scale="   87.576">  1  5  2 -1</clus>
<clus scale="   91.145">  7  8 -1 -1</clus>
<clus scale="   45.250">  1  5  2 -1</clus>
</clustering>
</event>
<event>
 9    1  0.8429841E-005  0.1024865E+03  0.7546771E-02  0.1280475E+00
         21   -1    0    0  501  502  0.00000000000E+00  0.00000000000E+00  0.13073114973E+03  0.13073114973E+03  0.00000000000E+00 0. -1.
         -2   -1    0    0    0  501 -0.00000000000E+00 -0.00000000000E+00 -0.16563976135E+03  0.16563976135E+03  0.00000000000E+00 0.  1.
         23    2    1    2    0    0  0.53532307430E+01 -0.34538330076E+02 -0.10214554579E+03  0.14492474076E+03  0.96684614267E+02 0.  0.
        -24    2    1    2    0    0  0.28469999430E+02  0.31558630924E+02  0.67687323112E+02  0.11748895671E+03  0.86113838523E+02 0.  0.
         13    1    4    4    0    0  0.19939879137E+02  0.58002912915E+01  0.83527174454E+02  0.86069919433E+02  0.00000000000E+00 0. -1.
        -14    1    4    4    0    0  0.85301202929E+01  0.25758339632E+02 -0.15839851342E+02  0.31419037276E+02  0.00000000000E+00 0.  1.
        -13    1    3    3    0    0  0.33757923469E+02 -0.28923626460E+02 -0.10672257892E+03  0.11561090959E+03  0.00000000000E+00 0. -1.
         13    1    3    3    0    0 -0.28404692726E+02 -0.56147036156E+01  0.45770331325E+01  0.29313831169E+02  0.00000000000E+00 0.  1.
         -1    1    1    2    0  502 -0.33823230173E+02  0.29796991524E+01 -0.45038893923E+00  0.33957213616E+02  0.00000000000E+00 0.  1.
<scales pt_clust_5="13000.00000" pt_clust_6="13000.00000" pt_clust_7="13000.00000" pt_clust_8="13000.00000" pt_clust_9="33.95423"></scales>
<clustering>
<clus scale="   33.954">  1  9  2 -1</clus>
<clus scale="   86.114">  5  6 -1 -1</clus>
<clus scale="   92.581">  1  5  2 -1</clus>
<clus scale="   96.685">  7  8 -1 -1</clus>
<clus scale="   33.954">  1  5  2 -1</clus>
</clustering>
</event>
<event>
 9    1  0.8429841E-005  0.9485764E+02  0.7546771E-02  0.1297479E+00
         21   -1    0    0  501  502  0.00000000000E+00  0.00000000000E+00  0.17323739943E+03  0.17323739943E+03  0.00000000000E+00 0. -1.
         -2   -1    0    0    0  501 -0.00000000000E+00 -0.00000000000E+00 -0.10467863850E+03  0.10467863850E+03  0.00000000000E+00 0.  1.
         23    2    1    2    0    0  0.38033871587E+02 -0.15266716418E+02 -0.24744746055E+02  0.10258008289E+03  0.90723331786E+02 0.  0.
        -24    2    1    2    0    0  0.12602398664E+02  0.30034273228E+02  0.27172845197E+02  0.90746493362E+02  0.80222718235E+02 0.  0.
         11    1    4    4    0    0  0.22807826573E+02  0.11091090280E+02  0.52022641691E+02  0.57875422116E+02  0.00000000000E+00 0. -1.
        -12    1    4    4    0    0 -0.10205427909E+02  0.18943182948E+02 -0.24849796495E+02  0.32871071246E+02  0.00000000000E+00 0.  1.
        -13    1    3    3    0    0  0.24662575996E+02 -0.48876955658E+02  0.60431344623E+01  0.55079205906E+02  0.00000000000E+00 0.  1.
         13    1    3    3    0    0  0.13371295591E+02  0.33610239240E+02 -0.30787880517E+02  0.47500876984E+02  0.00000000000E+00 0. -1.
         -1    1    1    2    0  502 -0.50636270251E+02 -0.14767556810E+02  0.66130661784E+02  0.84589461678E+02  0.00000000000E+00 0.  1.
<scales pt_clust_5="13000.00000" pt_clust_6="13000.00000" pt_clust_7="13000.00000" pt_clust_8="13000.00000" pt_clust_9="52.74574"></scales>
<clustering>
<clus scale="   52.746">  1  9  2 -1</clus>
<clus scale="   80.223">  5  6 -1 -1</clus>
<clus scale="   84.870">  1  5  2 -1</clus>
<clus scale="   90.723">  7  8 -1 -1</clus>
<clus scale="   52.746">  1  5  2 -1</clus>
</clustering>
</event>
<event>
 9    1  0.8429841E-005  0.3045797E+03  0.7546771E-02  0.1129178E+00
         21   -1    0    0  501  502  0.00000000000E+00  0.00000000000E+00  0.20308039707E+04  0.20308039707E+04  0.00000000000E+00 0. -1.
          1   -1    0    0  502    0 -0.00000000000E+00 -0.00000000000E+00 -0.80302517628E+02  0.80302517628E+02  0.00000000000E+00 0. -1.
         23    2    1    2    0    0 -0.25510060414E+01  0.13522492862E+02  0.32306251813E+02  0.98482780658E+02  0.92009775214E+02 0.  0.
        -24    2    1    2    0    0  0.25376918715E+03 -0.15301201828E+03  0.12034309202E+04  0.12422628314E+04  0.84613736996E+02 0.  0.
         13    1    4    4    0    0  0.10932042299E+03 -0.10159018051E+03  0.47591946488E+03  0.49876934219E+03  0.00000000000E+00 0. -1.
        -14    1    4    4    0    0  0.14444876415E+03 -0.51421837778E+02  0.72751145535E+03  0.74349348924E+03  0.00000000000E+00 0.  1.
        -13    1    3    3    0    0  0.82264215216E+01  0.50742984038E+02  0.30323152463E+02  0.59682644173E+02  0.00000000000E+00 0.  1.
         13    1    3    3    0    0 -0.10777427563E+02 -0.37220491176E+02  0.19830993501E+01  0.38800136486E+02  0.00000000000E+00 0. -1.
          2    1    1    2  501    0 -0.25121818110E+03  0.13948952542E+03  0.71476428106E+03  0.77036087628E+03  0.00000000000E+00 0. -1.
<scales pt_clust_5="13000.00000" pt_clust_6="13000.00000" pt_clust_7="13000.00000" pt_clust_8="13000.00000" pt_clust_9="292.59083"></scales>
<clustering>
<clus scale="   84.614">  5  6 -1 -1</clus>
<clus scale="   92.010">  7  8 -1 -1</clus>
<clus scale="   93.033">  2  7  1 -1</clus>
<clus scale="  292.591">  1  9  2 -1</clus>
<clus scale="  292.591">  1  5  2 -1</clus>
</clustering>
</event>
<event>
 9    1  0.8429841E-005  0.1451794E+03  0.7546771E-02  0.1210061E+00
         21   -1    0    0  501  502  0.00000000000E+00  0.00000000000E+00  0.81334203006E+02  0.81334203006E+02  0.00000000000E+00 0.  1.
          1   -1    0    0  502    0 -0.00000000000E+00 -0.00000000000E+00 -0.29789282421E+03  0.29789282421E+03  0.00000000000E+00 0. -1.
         23    2    1    2    0    0 -0.86983338357E+02  0.67288135211E+02 -0.96118601194E+02  0.17233252942E+03  0.91465408266E+02 0.  0.
        -24    2    1    2    0    0  0.76493819232E+02 -0.88279879135E+02 -0.78348933319E+02  0.15870380468E+03  0.73509868901E+02 0.  0.
         11    1    4    4    0    0  0.16349225625E+02 -0.64372921513E+02 -0.64366128472E+02  0.92488749030E+02  0.00000000000E+00 0. -1.
        -12    1    4    4    0    0  0.60144593607E+02 -0.23906957621E+02 -0.13982804847E+02  0.66215055646E+02  0.00000000000E+00 0.  1.
        -13    1    3    3    0    0 -0.91246531169E+02  0.36382521489E+02 -0.10084169031E+03  0.14077877619E+03  0.00000000000E+00 0.  1.
         13    1    3    3    0    0  0.42631928115E+01  0.30905613721E+02  0.47230891137E+01  0.31553753235E+02  0.00000000000E+00 0. -1.
          2    1    1    2  501    0  0.10489519126E+02  0.20991743924E+02 -0.42091086689E+02  0.48190693117E+02  0.00000000000E+00 0. -1.
<scales pt_clust_5="13000.00000" pt_clust_6="13000.00000" pt_clust_7="13000.00000" pt_clust_8="13000.00000" pt_clust_9="23.46665"></scales>
<clustering>
<clus scale="   23.467">  1  9  2 -1</clus>
<clus scale="   73.510">  5  6 -1 -1</clus>
<clus scale="   91.465">  7  8 -1 -1</clus>
<clus scale="  134.591">  1  5  2 -1</clus>
<clus scale="   23.467">  1  5  2 -1</clus>
</clustering>
</event>
<event>
 9    1  0.8429841E-005  0.1623475E+03  0.7546771E-02  0.1186906E+00
         21   -1    0    0  501  502  0.00000000000E+00  0.00000000000E+00  0.64572073891E+02  0.64572073891E+02  0.00000000000E+00 0. -1.
          1   -1    0    0  502    0 -0.00000000000E+00 -0.00000000000E+00 -0.11932093573E+04  0.11932093573E+04  0.00000000000E+00 0. -1.
        -24    2    1    2    0    0  0.91582882458E+02 -0.14806490251E+03 -0.27890607054E+03  0.33866644297E+03  0.81214060947E+02 0.  0.
         23    2    1    2    0    0  0.89281386787E+00  0.10914689194E+03 -0.12457694397E+03  0.18705277799E+03  0.86922296602E+02 0.  0.
         13    1    3    3    0    0  0.86889488297E+02 -0.10503885818E+03 -0.25517870500E+03  0.28930799572E+03  0.00000000000E+00 0. -1.
        -14    1    3    3    0    0  0.46933941609E+01 -0.43026044326E+02 -0.23727365544E+02  0.49358447248E+02  0.00000000000E+00 0.  1.
        -11    1    4    4    0    0  0.31909146578E+02  0.26112777199E+02 -0.10427171138E+02  0.42529950227E+02  0.00000000000E+00 0.  1.
         11    1    4    4    0    0 -0.31016332711E+02  0.83034114737E+02 -0.11414977283E+03  0.14452282776E+03  0.00000000000E+00 0. -1.
          2    1    1    2  501    0 -0.92475696326E+02  0.38918010571E+02 -0.72515426893E+03  0.73206221027E+03  0.00000000000E+00 0. -1.
<scales pt_clust_5="13000.00000" pt_clust_6="13000.00000" pt_clust_7="13000.00000" pt_clust_8="13000.00000" pt_clust_9="100.33133"></scales>
<clustering>
<clus scale="   81.214">  5  6 -1 -1</clus>
<clus scale="   86.922">  7  8 -1 -1</clus>
<clus scale="  100.331">  1  9  2 -1</clus>
<clus scale="  159.364">  2  5  1 -1</clus>
<clus scale="  100.331">  1  5  2 -1</clus>
</clustering>
</event>
<event>
 9    1  0.8429841E-005  0.9558053E+02  0.7546771E-02  0.1293241E+00
         21   -1    0    0  501  502  0.00000000000E+00  0.00000000000E+00  0.65787349922E+03  0.65787349922E+03  0.00000000000E+00 0. -1.
         -2   -1    0    0    0  501 -0.00000000000E+00 -0.00000000000E+00 -0.25781811330E+02  0.25781811330E+02  0.00000000000E+00 0.  1.
        -24    2    1    2    0    0 -0.29651623773E+02  0.44018606223E+02  0.21062752243E+03  0.23165385665E+03  0.80515213525E+02 0.  0.
         23    2    1    2    0    0  0.44466060337E+02  0.18203628020E+02  0.25791647678E+03  0.27639131627E+03  0.86963487295E+02 0.  0.
         13    1    3    3    0    0 -0.77204586692E+01  0.56098562338E+02  0.76326789268E+02  0.95039112677E+02  0.00000000000E+00 0. -1.
        -14    1    3    3    0    0 -0.21931165104E+02 -0.12079956116E+02  0.13430073316E+03  0.13661474397E+03  0.00000000000E+00 0.  1.
        -13    1    4    4    0    0  0.24221387094E+02  0.42806655571E+02  0.68585767689E+02  0.84398417541E+02  0.00000000000E+00 0.  1.
         13    1    4    4    0    0  0.20244673242E+02 -0.24603027550E+02  0.18933070909E+03  0.19199289873E+03  0.00000000000E+00 0. -1.
         -1    1    1    2    0  502 -0.14814436564E+02 -0.62222234243E+02  0.16354768868E+03  0.17561013763E+03  0.00000000000E+00 0.  1.
<scales pt_clust_5="13000.00000" pt_clust_6="13000.00000" pt_clust_7="13000.00000" pt_clust_8="13000.00000" pt_clust_9="63.96150"></scales>
<clustering>
<clus scale="   63.962">  1  9  2 -1</clus>
<clus scale="   80.515">  5  6 -1 -1</clus>
<clus scale="   86.963">  7  8 -1 -1</clus>
<clus scale="   89.753">  2  5  1 -1</clus>
<clus scale="   63.962">  1  5  2 -1</clus>
</clustering>
</event>
<event>
 9    1  0.8429841E-005  0.8871295E+02  0.7546771E-02  0.1311948E+00
          3   -1    0    0  502    0 -0.00000000000E+00  0.00000000000E+00  0.35687628290E+03  0.35687628290E+03  0.00000000000E+00 0. -1.
         21   -1    0    0  501  502  0.00000000000E+00 -0.00000000000E+00 -0.51246503388E+02  0.51246503388E+02  0.00000000000E+00 0.  1.
         23    2    1    2    0    0  0.71693386744E+01  0.84076472814E+00  0.15741045568E+03  0.18070284324E+03  0.88449758027E+02 0.  0.
        -24    2    1    2    0    0  0.32517302521E+02 -0.23101621713E+02  0.19516212776E+02  0.90909628278E+02  0.79326023872E+02 0.  0.
         13    1    4    4    0    0  0.39874309948E+02  0.17125842828E+02  0.24298919097E+02  0.49736229810E+02  0.00000000000E+00 0. -1.
        -14    1    4    4    0    0 -0.73570074266E+01 -0.40227464540E+02 -0.47827063217E+01  0.41173398468E+02  0.00000000000E+00 0.  1.
        -11    1    3    3    0    0  0.20907625274E+02 -0.38711513941E+02  0.10334191693E+03  0.11231768294E+03  0.00000000000E+00 0. -1.
         11    1    3    3    0    0 -0.13738286600E+02  0.39552278669E+02  0.54068538747E+02  0.68385160297E+02  0.00000000000E+00 0.  1.
          4    1    1    2  501    0 -0.39686641196E+02  0.22260856985E+02  0.12870311106E+03  0.13651031478E+03  0.00000000000E+00 0. -1.
<scales pt_clust_5="13000.00000" pt_clust_6="13000.00000" pt_clust_7="13000.00000" pt_clust_8="13000.00000" pt_clust_9="45.50360"></scales>
<clustering>
<clus scale="   45.504">  2  9  1 -1</clus>
<clus scale="   79.326">  5  6 -1 -1</clus>
<clus scale="   79.619">  2  5  1 -1</clus>
<clus scale="   88.450">  7  8 -1 -1</clus>
<clus scale="   45.504">  2  5  1 -1</clus>
</clustering>
</event>
<event>
 9    1  0.8429841E-005  0.9675496E+02  0.7546771E-02  0.1295670E+00
          1   -1    0    0  502    0 -0.00000000000E+00  0.00000000000E+00  0.29417152597E+03  0.29417152597E+03  0.00000000000E+00 0. -1.
         21   -1    0    0  501  502  0.00000000000E+00 -0.00000000000E+00 -0.29210721767E+03  0.29210721767E+03  0.00000000000E+00 0. -1.
         23    2    1    2    0    0  0.13831070539E+02  0.27920246402E+02  0.26272657811E+03  0.28004658089E+03  0.91814998503E+02 0.  0.
        -24    2    1    2    0    0  0.43879440888E+02 -0.40604226788E+02 -0.12653735390E+03  0.15966859444E+03  0.76865138740E+02 0.  0.
         11    1    4    4    0    0  0.23772891594E+02 -0.14824283452E+02 -0.12372140455E+03  0.12685383597E+03  0.00000000000E+00 0. -1.
        -12    1    4    4    0    0  0.20106549293E+02 -0.25779943336E+02 -0.28159493417E+01  0.32814758473E+02  0.00000000000E+00 0.  1.
        -13    1    3    3    0    0 -0.18227751333E+02 -0.26730186386E+02  0.68703862647E+02  0.75940598664E+02  0.00000000000E+00 0.  1.
         13    1    3    3    0    0  0.32058821871E+02  0.54650432788E+02  0.19402271546E+03  0.20410598222E+03  0.00000000000E+00 0. -1.
          2    1    1    2  501    0 -0.57710511426E+02  0.12683980386E+02 -0.13412491591E+03  0.14656356831E+03  0.00000000000E+00 0. -1.
<scales pt_clust_5="13000.00000" pt_clust_6="13000.00000" pt_clust_7="13000.00000" pt_clust_8="13000.00000" pt_clust_9="59.08796"></scales>
<clustering>
<clus scale="   59.088">  2  9  1 -1</clus>
<clus scale="   76.865">  5  6 -1 -1</clus>
<clus scale="   82.703">  2  5  1 -1</clus>
<clus scale="   91.815">  7  8 -1 -1</clus>
<clus scale="   59.088">  2  5  1 -1</clus>
</clustering>
</event>
<event>
 9    1  0.8429841E-005  0.1151078E+03  0.7546771E-02  0.1254823E+00
          1   -1    0    0  502    0 -0.00000000000E+00  0.00000000000E+00  0.76199607887E+03  0.76199607887E+03  0.00000000000E+00 0. -1.
         21   -1    0    0  501  502  0.00000000000E+00 -0.00000000000E+00 -0.92455011362E+02  0.92455011362E+02  0.00000000000E+00 0. -1.
         23    2    1    2    0    0  0.77446317556E+02  0.22083186165E+02  0.68385748984E+03  0.69452693358E+03  0.90669707441E+02 0.  0.
        -24    2    1    2    0    0 -0.11492145960E+02  0.24308106718E+01  0.16144759384E+02  0.83251003696E+02  0.80821396310E+02 0.  0.
         13    1    4    4    0    0  0.11540035065E+01  0.38409029429E+02 -0.63908076476E+01  0.38954174208E+02  0.00000000000E+00 0. -1.
        -14    1    4    4    0    0 -0.12646149467E+02 -0.35978218758E+02  0.22535567032E+02  0.44296829489E+02  0.00000000000E+00 0.  1.
        -11    1    3    3    0    0  0.35879760116E+02 -0.35328023513E+02  0.27541844254E+03  0.27998347259E+03  0.00000000000E+00 0.  1.
         11    1    3    3    0    0  0.41566557440E+02  0.57411209678E+02  0.40843904730E+03  0.41454346099E+03  0.00000000000E+00 0. -1.
          2    1    1    2  501    0 -0.65954171596E+02 -0.24513996837E+02 -0.30461181718E+02  0.76673152951E+02  0.00000000000E+00 0. -1.
<scales pt_clust_5="13000.00000" pt_clust_6="13000.00000" pt_clust_7="13000.00000" pt_clust_8="13000.00000" pt_clust_9="70.36255"></scales>
<clustering>
<clus scale="   70.363">  2  9  1 -1</clus>
<clus scale="   80.821">  5  6 -1 -1</clus>
<clus scale="   90.670">  7  8 -1 -1</clus>
<clus scale="  107.522">  2  5  1 -1</clus>
<clus scale="   70.363">  2  5  1 -1</clus>
</clustering>
</event>
<event>
 9    1  0.8429841E-005  0.1071871E+03  0.7546771E-02  0.1271144E+00
         -2   -1    0    0    0  501 -0.00000000000E+00  0.00000000000E+00  0.12466654166E+03  0.12466654166E+03  0.00000000000E+00 0.  1.
         21   -1    0    0  501  502  0.00000000000E+00 -0.00000000000E+00 -0.50975708994E+03  0.50975708994E+03  0.00000000000E+00 0. -1.
        -24    2    1    2    0    0  0.25525180824E+02 -0.38196895230E+02 -0.53017588663E+02  0.10550110280E+03  0.78797717748E+02 0.  0.
         23    2    1    2    0    0 -0.19927861421E+02  0.11455187730E+03 -0.40008111419E+03  0.42651880641E+03  0.91291522270E+02 0.  0.
         11    1    3    3    0    0  0.57429134148E+01  0.19424903075E+02 -0.37518710531E+02  0.42637560365E+02  0.00000000000E+00 0. -1.
        -12    1    3    3    0    0  0.19782267409E+02 -0.57621798305E+02 -0.15498878132E+02  0.62863542432E+02  0.00000000000E+00 0.  1.
        -11    1    4    4    0    0 -0.45473552851E+02  0.22111017498E+02 -0.11178865170E+03  0.12269247635E+03  0.00000000000E+00 0.  1.
         11    1    4    4    0    0  0.25545691430E+02  0.92440859799E+02 -0.28829246249E+03  0.30382633006E+03  0.00000000000E+00 0. -1.
         -1    1    1    2    0  502 -0.55973194030E+01 -0.76354982066E+02  0.68008154576E+02  0.10240372239E+03  0.00000000000E+00 0.  1.
<scales pt_clust_5="13000.00000" pt_clust_6="13000.00000" pt_clust_7="13000.00000" pt_clust_8="13000.00000" pt_clust_9="76.55991"></scales>
<clustering>
<clus scale="   76.560">  2  9  1 -1</clus>
<clus scale="   78.798">  5  6 -1 -1</clus>
<clus scale="   91.292">  7  8 -1 -1</clus>
<clus scale="   96.768">  1  5  2 -1</clus>
<clus scale="   76.560">  2  5  1 -1</clus>
</clustering>
</event>
<event>
 9    1  0.8429841E-005  0.1117526E+03  0.7546771E-02  0.1261017E+00
          1   -1    0    0  502    0 -0.00000000000E+00  0.00000000000E+00  0.19756881848E+02  0.19756881848E+02  0.00000000000E+00 0. -1.
         21   -1    0    0  501  502  0.00000000000E+00 -0.00000000000E+00 -0.12039309906E+04  0.12039309906E+04  0.00000000000E+00 0. -1.
         23    2    1    2    0    0  0.19158747808E+02 -0.36173843672E+02 -0.29781814390E+03  0.31377960922E+03  0.89924366779E+02 0.  0.
        -24    2    1    2    0    0 -0.50439482395E+02  0.89163426714E+02 -0.42435207568E+03  0.44382460779E+03  0.80070845452E+02 0.  0.
         13    1    4    4    0    0 -0.13830934724E+02  0.92230242430E+02 -0.30062278515E+03  0.31475668591E+03  0.00000000000E+00 0. -1.
        -14    1    4    4    0    0 -0.36608547671E+02 -0.30668157161E+01 -0.12372929053E+03  0.12906792187E+03  0.00000000000E+00 0.  1.
        -11    1    3    3    0    0 -0.32922671342E+02 -0.31462094800E+02 -0.16070735318E+03  0.16703478399E+03  0.00000000000E+00 0.  1.
         11    1    3    3    0    0  0.52081419150E+02 -0.47117488719E+01 -0.13711079072E+03  0.14674482522E+03  0.00000000000E+00 0. -1.
          2    1    1    2  501    0  0.31280734587E+02 -0.52989583042E+02 -0.46200388917E+03  0.46608365545E+03  0.00000000000E+00 0. -1.
<scales pt_clust_5="13000.00000" pt_clust_6="13000.00000" pt_clust_7="13000.00000" pt_clust_8="13000.00000" pt_clust_9="61.53357"></scales>
<clustering>
<clus scale="   61.534">  2  9  1 -1</clus>
<clus scale="   80.071">  5  6 -1 -1</clus>
<clus scale="   89.924">  7  8 -1 -1</clus>
<clus scale="  103.988">  2  5  1 -1</clus>
<clus scale="   61.534">  2  5  1 -1</clus>
</clustering>
</event>
<event>
 9    1  0.8429841E-005  0.1018918E+03  0.7546771E-02  0.1285168E+00
          1   -1    0    0  502    0 -0.00000000000E+00  0.00000000000E+00  0.22188867376E+03  0.22188867376E+03  0.00000000000E+00 0. -1.
         21   -1    0    0  501  502  0.00000000000E+00 -0.00000000000E+00 -0.78842117074E+02  0.78842117074E+02  0.00000000000E+00 0. -1.
        -24    2    1    2    0    0  0.10343608664E+01 -0.31338167007E+02  0.14747207614E+03  0.17042970637E+03  0.79467735315E+02 0.  0.
         23    2    1    2    0    0 -0.19074282455E+02  0.42624053391E+02 -0.12106735917E+02  0.10767784225E+03  0.96266850358E+02 0.  0.
         13    1    3    3    0    0 -0.31189398566E+02  0.98635534163E+01  0.65038274300E+02  0.72801410651E+02  0.00000000000E+00 0. -1.
        -14    1    3    3    0    0  0.32223759432E+02 -0.41201720423E+02  0.82433801844E+02  0.97628295715E+02  0.00000000000E+00 0.  1.
        -11    1    4    4    0    0 -0.53895320558E+02  0.31259900293E+02  0.12506752637E+02  0.63547665621E+02  0.00000000000E+00 0. -1.
         11    1    4    4    0    0  0.34821038103E+02  0.11364153098E+02 -0.24613488554E+02  0.44130176626E+02  0.00000000000E+00 0.  1.
          2    1    1    2  501    0  0.18039921589E+02 -0.11285886384E+02  0.76812164624E+01  0.22623242224E+02  0.00000000000E+00 0. -1.
<scales pt_clust_5="13000.00000" pt_clust_6="13000.00000" pt_clust_7="13000.00000" pt_clust_8="13000.00000" pt_clust_9="21.27933"></scales>
<clustering>
<clus scale="   21.279">  2  9  1 -1</clus>
<clus scale="   79.468">  5  6 -1 -1</clus>
<clus scale="   86.196">  1  5  2 -1</clus>
<clus scale="   96.267">  7  8 -1 -1</clus>
<clus scale="   21.279">  2  5  1 -1</clus>
</clustering>
</event>
<event>
 9    1  0.8429841E-005  0.1387761E+03  0.7546771E-02  0.1226548E+00
         21   -1    0    0  501  502  0.00000000000E+00  0.00000000000E+00  0.79624599355E+03  0.79624599355E+03  0.00000000000E+00 0. -1.
          1   -1    0    0  502    0 -0.00000000000E+00 -0.00000000000E+00 -0.66732947628E+02  0.66732947628E+02  0.00000000000E+00 0. -1.
         23    2    1    2    0    0  0.60878500747E+02  0.48485296367E+01  0.48330306460E+02  0.11913873398E+03  0.90158301446E+02 0.  0.
        -24    2    1    2    0    0  0.57848155217E+01 -0.11199956742E+03  0.52600676537E+03  0.54382789365E+03  0.80549944183E+02 0.  0.
         11    1    4    4    0    0 -0.15680728344E+01 -0.91962180903E+02  0.50691409999E+03  0.51519065048E+03  0.00000000000E+00 0. -1.
        -12    1    4    4    0    0  0.73528883562E+01 -0.20037386514E+02  0.19092665381E+02  0.28637243178E+02  0.00000000000E+00 0.  1.
        -11    1    3    3    0    0  0.15325574309E+02  0.27599797053E+02  0.59183102745E+02  0.67076535956E+02  0.00000000000E+00 0. -1.
         11    1    3    3    0    0  0.45552926438E+02 -0.22751267417E+02 -0.10852796285E+02  0.52062198027E+02  0.00000000000E+00 0.  1.
          2    1    1    2  501    0 -0.66663316269E+02  0.10715103778E+03  0.15517597409E+03  0.20001231354E+03  0.00000000000E+00 0. -1.
<scales pt_clust_5="13000.00000" pt_clust_6="13000.00000" pt_clust_7="13000.00000" pt_clust_8="13000.00000" pt_clust_9="113.00675"></scales>
<clustering>
<clus scale="   80.550">  5  6 -1 -1</clus>
<clus scale="   90.158">  7  8 -1 -1</clus>
<clus scale="  108.895">  2  7  1 -1</clus>
<clus scale="  113.007">  1  9  2 -1</clus>
<clus scale="  113.007">  1  5  2 -1</clus>
</clustering>
</event>
<event>
 9    1  0.8429841E-005  0.2393992E+03  0.7546771E-02  0.1121087E+00
          1   -1    0    0  502    0 -0.00000000000E+00  0.00000000000E+00  0.66924866316E+03  0.66924866316E+03  0.00000000000E+00 0. -1.
         21   -1    0    0  501  502  0.00000000000E+00 -0.00000000000E+00 -0.11404168583E+03  0.11404168583E+03  0.00000000000E+00 0. -1.
        -24    2    1    2    0    0  0.21263009176E+03 -0.59224791650E+02  0.26277565981E+03  0.35164078346E+03  0.76688078178E+02 0.  0.
         23    2    1    2    0    0 -0.19247229421E+03  0.12077108863E+03  0.18814062315E+03  0.30888624688E+03  0.91556428210E+02 0.  0.
         13    1    3    3    0    0  0.18222725505E+03 -0.46747058113E+02  0.25664233972E+03  0.31820960146E+03  0.00000000000E+00 0. -1.
        -14    1    3    3    0    0  0.30402836710E+02 -0.12477733537E+02  0.61333200864E+01  0.33431181994E+02  0.00000000000E+00 0.  1.
        -11    1    4    4    0    0 -0.74465845503E+02  0.84050653238E+01  0.95682902417E+02  0.12153610609E+03  0.00000000000E+00 0.  1.
         11    1    4    4    0    0 -0.11800644870E+03  0.11236602331E+03  0.92457720730E+02  0.18735014079E+03  0.00000000000E+00 0. -1.
          2    1    1    2  501    0 -0.20157797553E+02 -0.61546296982E+02  0.10429069437E+03  0.12276331865E+03  0.00000000000E+00 0. -1.
<scales pt_clust_5="13000.00000" pt_clust_6="13000.00000" pt_clust_7="13000.00000" pt_clust_8="13000.00000" pt_clust_9="64.76332"></scales>
<clustering>
<clus scale="   64.763">  2  9  1 -1</clus>
<clus scale="   76.688">  5  6 -1 -1</clus>
<clus scale="   91.556">  7  8 -1 -1</clus>
<clus scale="  234.116">  1  5  2 -1</clus>
<clus scale="   64.763">  2  5  1 -1</clus>
</clustering>
</event>
<event>
 9    1  0.8429841E-005  0.1245116E+03  0.7546771E-02  0.1237156E+00
         21   -1    0    0  501  502  0.00000000000E+00  0.00000000000E+00  0.66281156652E+02  0.66281156652E+02  0.00000000000E+00 0. -1.
          3   -1    0    0  502    0 -0.00000000000E+00 -0.00000000000E+00 -0.42557979216E+03  0.42557979216E+03  0.00000000000E+00 0. -1.
         23    2    1    2    0    0 -0.10293659523E+03 -0.28468023568E+02 -0.29451368293E+03  0.32483997323E+03  0.85885550444E+02 0.  0.
        -24    2    1    2    0    0  0.47791383389E+02  0.16983689178E+02 -0.27419685206E+02  0.99426245528E+02  0.81001710715E+02 0.  0.
         13    1    4    4    0    0  0.53045408347E+02  0.37252497731E+02  0.13371492088E+00  0.64819609792E+02  0.00000000000E+00 0. -1.
        -14    1    4    4    0    0 -0.52540249588E+01 -0.20268808552E+02 -0.27553400127E+02  0.34606635736E+02  0.00000000000E+00 0.  1.
        -13    1    3    3    0    0 -0.30406620961E+02 -0.32422454740E+02 -0.38774140220E+02  0.58984846523E+02  0.00000000000E+00 0.  1.
         13    1    3    3    0    0 -0.72529974266E+02  0.39544311712E+01 -0.25573954271E+03  0.26585512671E+03  0.00000000000E+00 0. -1.
          4    1    1    2  501    0  0.55145211838E+02  0.11484334390E+02 -0.37365267375E+02  0.67594730054E+02  0.00000000000E+00 0. -1.
<scales pt_clust_5="13000.00000" pt_clust_6="13000.00000" pt_clust_7="13000.00000" pt_clust_8="13000.00000" pt_clust_9="56.32836"></scales>
<clustering>
<clus scale="   56.328">  1  9  2 -1</clus>
<clus scale="   81.002">  5  6 -1 -1</clus>
<clus scale="   85.886">  7  8 -1 -1</clus>
<clus scale="  121.194">  1  5  2 -1</clus>
<clus scale="   56.328">  1  5  2 -1</clus>
</clustering>
</event>
<event>
 9    1  0.8429841E-005  0.1877383E+03  0.7546771E-02  0.1168576E+00
          1   -1    0    0  502    0 -0.00000000000E+00  0.00000000000E+00  0.13931612719E+04  0.13931612719E+04  0.00000000000E+00 0. -1.
         21   -1    0    0  501  502  0.00000000000E+00 -0.00000000000E+00 -0.80669913831E+02  0.80669913831E+02  0.00000000000E+00 0. -1.
         23    2    1    2    0    0  0.10743247186E+03  0.62375540230E+02  0.45143749473E+03  0.47758536236E+03  0.94125037424E+02 0.  0.
        -24    2    1    2    0    0 -0.72560735966E+02  0.15046010872E+03  0.11080125474E+03  0.21560888590E+03  0.79416427197E+02 0.  0.
         11    1    4    4    0    0 -0.56796336939E+02  0.67584656020E+02  0.17821527522E+02  0.90061736949E+02  0.00000000000E+00 0. -1.
        -12    1    4    4    0    0 -0.15764399027E+02  0.82875452696E+02  0.92979727222E+02  0.12554714895E+03  0.00000000000E+00 0.  1.
        -11    1    3    3    0    0  0.90586381408E+02  0.38987231564E+02  0.43128143194E+03  0.44241334774E+03  0.00000000000E+00 0. -1.
         11    1    3    3    0    0  0.16846090452E+02  0.23388308666E+02  0.20156062790E+02  0.35172014628E+02  0.00000000000E+00 0.  1.
          2    1    1    2  501    0 -0.34871735894E+02 -0.21283564895E+03  0.75025260861E+03  0.78063693748E+03  0.00000000000E+00 0. -1.
<scales pt_clust_5="13000.00000" pt_clust_6="13000.00000" pt_clust_7="13000.00000" pt_clust_8="13000.00000" pt_clust_9="170.11386"></scales>
<clustering>
<clus scale="   79.416">  5  6 -1 -1</clus>
<clus scale="   94.125">  7  8 -1 -1</clus>
<clus scale="  155.859">  1  7  2 -1</clus>
<clus scale="  170.114">  2  9  1 -1</clus>
<clus scale="  170.114">  2  5  1 -1</clus>
</clustering>
</event>
<event>
 9    1  0.8429841E-005  0.2064532E+03  0.7546771E-02  0.1180062E+00
         21   -1    0    0  501  502  0.00000000000E+00  0.00000000000E+00  0.72556588672E+03  0.72556588672E+03  0.00000000000E+00 0. -1.
          1   -1    0    0  502    0 -0.00000000000E+00 -0.00000000000E+00 -0.82593382719E+02  0.82593382719E+02  0.00000000000E+00 0. -1.
         23    2    1    2    0    0 -0.50810208864E+01 -0.12295799339E+02  0.92712639871E+02  0.12941859033E+03  0.89311446510E+02 0.  0.
        -24    2    1    2    0    0 -0.73924844067E+02 -0.16697331569E+03  0.24605699403E+03  0.31691374744E+03  0.80903079568E+02 0.  0.
         11    1    4    4    0    0 -0.42728884587E+02 -0.16176814126E+03  0.21656402557E+03  0.27366889899E+03  0.00000000000E+00 0. -1.
        -12    1    4    4    0    0 -0.31195959480E+02 -0.52051744272E+01  0.29492968461E+02  0.43244848448E+02  0.00000000000E+00 0.  1.
        -11    1    3    3    0    0 -0.32295728062E+02  0.27245869972E+02  0.41446337497E+02  0.59187417358E+02  0.00000000000E+00 0.  1.
         11    1    3    3    0    0  0.27214707176E+02 -0.39541669311E+02  0.51266302374E+02  0.70231172976E+02  0.00000000000E+00 0. -1.
          2    1    1    2  501    0  0.79005864953E+02  0.17926911503E+03  0.30420287010E+03  0.36182693166E+03  0.00000000000E+00 0. -1.
<scales pt_clust_5="13000.00000" pt_clust_6="13000.00000" pt_clust_7="13000.00000" pt_clust_8="13000.00000" pt_clust_9="189.94112"></scales>
<clustering>
<clus scale="   80.903">  5  6 -1 -1</clus>
<clus scale="   89.311">  7  8 -1 -1</clus>
<clus scale="   90.297">  2  7  1 -1</clus>
<clus scale="  189.941">  1  9  2 -1</clus>
<clus scale="  189.941">  1  5  2 -1</clus>
</clustering>
</event>
<event>
 9    1  0.8429841E-005  0.1400216E+03  0.7546771E-02  0.1214948E+00
          1   -1    0    0  502    0 -0.00000000000E+00  0.00000000000E+00  0.19181183232E+03  0.19181183232E+03  0.00000000000E+00 0. -1.
         21   -1    0    0  501  502  0.00000000000E+00 -0.00000000000E+00 -0.43621799075E+03  0.43621799075E+03  0.00000000000E+00 0. -1.
         23    2    1    2    0    0 -0.10139802475E+03 -0.52656864963E+02  0.92698916300E+02  0.17149707059E+03  0.88112719215E+02 0.  0.
        -24    2    1    2    0    0  0.11214945807E+03 -0.80876860789E+02 -0.24997246953E+03  0.29672367852E+03  0.80250472365E+02 0.  0.
         13    1    4    4    0    0  0.11477397498E+03 -0.68812064810E+02 -0.17274506425E+03  0.21851549789E+03  0.00000000000E+00 0. -1.
        -14    1    4    4    0    0 -0.26245169106E+01 -0.12064795979E+02 -0.77227405276E+02  0.78208180625E+02  0.00000000000E+00 0.  1.
        -13    1    3    3    0    0 -0.48565682218E+02 -0.30403649305E+02  0.98420939272E+02  0.11388454095E+03  0.00000000000E+00 0. -1.
         13    1    3    3    0    0 -0.52832342537E+02 -0.22253215658E+02 -0.57220229722E+01  0.57612529644E+02  0.00000000000E+00 0.  1.
          2    1    1    2  501    0 -0.10751433311E+02  0.13353372575E+03 -0.87132605199E+02  0.15980907396E+03  0.00000000000E+00 0. -1.
<scales pt_clust_5="13000.00000" pt_clust_6="13000.00000" pt_clust_7="13000.00000" pt_clust_8="13000.00000" pt_clust_9="133.96585"></scales>
<clustering>
<clus scale="   80.250">  5  6 -1 -1</clus>
<clus scale="   88.113">  7  8 -1 -1</clus>
<clus scale="  133.966">  2  9  1 -1</clus>
<clus scale="  135.212">  2  5  1 -1</clus>
<clus scale="  133.966">  2  5  1 -1</clus>
</clustering>
</event>
<event>
 9    1  0.8429841E-005  0.1155697E+03  0.7546771E-02  0.1258090E+00
         21   -1    0    0  501  502  0.00000000000E+00  0.00000000000E+00  0.65717050994E+03  0.65717050994E+03  0.00000000000E+00 0. -1.
          3   -1    0    0  502    0 -0.00000000000E+00 -0.00000000000E+00 -0.47026149411E+02  0.47026149411E+02  0.00000000000E+00 0. -1.
         23    2    1    2    0    0  0.11299704706E+02 -0.36950111024E+02  0.75398914529E+02  0.12491512237E+03  0.91792142651E+02 0.  0.
        -24    2    1    2    0    0  0.69913903525E+02 -0.31889437690E+02  0.34685572868E+03  0.36332533887E+03  0.76102005266E+02 0.  0.
         11    1    4    4    0    0  0.34144579343E+02 -0.45195507298E+02  0.28552936982E+03  0.29109363993E+03  0.00000000000E+00 0. -1.
        -12    1    4    4    0    0  0.35769324182E+02  0.13306069608E+02  0.61326358864E+02  0.72231698944E+02  0.00000000000E+00 0.  1.
        -13    1    3    3    0    0  0.12230139629E+02 -0.60202905927E+02  0.19641453187E+02  0.64496146247E+02  0.00000000000E+00 0. -1.
         13    1    3    3    0    0 -0.93043492276E+00  0.23252794904E+02  0.55757461342E+02  0.60418976119E+02  0.00000000000E+00 0.  1.
          4    1    1    2  501    0 -0.81213608231E+02  0.68839548714E+02  0.18788971732E+03  0.21595619811E+03  0.00000000000E+00 0. -1.
<scales pt_clust_5="13000.00000" pt_clust_6="13000.00000" pt_clust_7="13000.00000" pt_clust_8="13000.00000" pt_clust_9="86.97620"></scales>
<clustering>
<clus scale="   76.102">  5  6 -1 -1</clus>
<clus scale="   91.792">  7  8 -1 -1</clus>
<clus scale="   99.593">  2  7  1 -1</clus>
<clus scale="   86.976">  1  9  2 -1</clus>
<clus scale="   86.976">  1  5  2 -1</clus>
</clustering>
</event>
<event>
 9    1  0.8429841E-005  0.2486489E+03  0.7546771E-02  0.1114162E+00
          1   -1    0    0  502    0 -0.00000000000E+00  0.00000000000E+00  0.28361741676E+03  0.28361741676E+03  0.00000000000E+00 0. -1.
         21   -1    0    0  501  502  0.00000000000E+00 -0.00000000000E+00 -0.15689252220E+03  0.15689252220E+03  0.00000000000E+00 0.  1.
        -24    2    1    2    0    0 -0.84085181422E+02  0.22228696503E+02  0.41739607233E+02  0.12570230633E+03  0.80588102850E+02 0.  0.
         23    2    1    2    0    0 -0.74227517996E+02  0.39568239336E+02  0.63667348580E+01  0.12755740201E+03  0.95681688434E+02 0.  0.
         13    1    3    3    0    0 -0.29734413558E+02  0.25741656945E+02  0.56898440974E+02  0.69167917687E+02  0.00000000000E+00 0. -1.
        -14    1    3    3    0    0 -0.54350767864E+02 -0.35129604425E+01 -0.15158833741E+02  0.56534388640E+02  0.00000000000E+00 0.  1.
        -13    1    4    4    0    0 -0.52759441583E+00  0.29850526904E+02 -0.32115981265E+02  0.43849385001E+02  0.00000000000E+00 0.  1.
         13    1    4    4    0    0 -0.73699923580E+02  0.97177124312E+01  0.38482716123E+02  0.83708017004E+02  0.00000000000E+00 0. -1.
          2    1    1    2  501    0  0.15831269942E+03 -0.61796935838E+02  0.78618552473E+02  0.18725023062E+03  0.00000000000E+00 0. -1.
<scales pt_clust_5="13000.00000" pt_clust_6="13000.00000" pt_clust_7="13000.00000" pt_clust_8="13000.00000" pt_clust_9="169.94646"></scales>
<clustering>
<clus scale="   80.588">  5  6 -1 -1</clus>
<clus scale="   95.682">  7  8 -1 -1</clus>
<clus scale="  104.365">  5  7 -1 -1</clus>
<clus scale="  169.946">  2  9  1 -1</clus>
<clus scale="  169.946">  2  5  1 -1</clus>
</clustering>
</event>
<event>
 9    1  0.8429841E-005  0.1283856E+03  0.7546771E-02  0.1232902E+00
          1   -1    0    0  502    0 -0.00000000000E+00  0.00000000000E+00  0.96873096007E+02  0.96873096007E+02  0.00000000000E+00 0. -1.
         21   -1    0    0  501  502  0.00000000000E+00 -0.00000000000E+00 -0.30940069878E+03  0.30940069878E+03  0.00000000000E+00 0. -1.
         23    2    1    2    0    0 -0.54278813706E+02  0.63949860218E+02 -0.89782491073E+02  0.15199031041E+03  0.89467225941E+02 0.  0.
        -24    2    1    2    0    0  0.11518284955E+03 -0.68719867837E+01 -0.76230266728E+02  0.15872818091E+03  0.77905512103E+02 0.  0.
         11    1    4    4    0    0  0.53644174435E+02  0.32375157734E+02 -0.53190986324E+02  0.82189593717E+02  0.00000000000E+00 0. -1.
        -12    1    4    4    0    0  0.61538675112E+02 -0.39247144518E+02 -0.23039280404E+02  0.76538587189E+02  0.00000000000E+00 0.  1.
        -13    1    3    3    0    0 -0.69822925831E+02  0.50382209257E+02 -0.34101399517E+02  0.92609467282E+02  0.00000000000E+00 0. -1.
         13    1    3    3    0    0  0.15544112125E+02  0.13567650960E+02 -0.55681091556E+02  0.59380843133E+02  0.00000000000E+00 0.  1.
          2    1    1    2  501    0 -0.60904035841E+02 -0.57077873434E+02 -0.46514844969E+02  0.95555303463E+02  0.00000000000E+00 0. -1.
<scales pt_clust_5="13000.00000" pt_clust_6="13000.00000" pt_clust_7="13000.00000" pt_clust_8="13000.00000" pt_clust_9="83.46971"></scales>
<clustering>
<clus scale="   77.906">  5  6 -1 -1</clus>
<clus scale="   83.470">  2  9  1 -1</clus>
<clus scale="   89.467">  7  8 -1 -1</clus>
<clus scale="  120.614">  2  5  1 -1</clus>
<clus scale="   83.470">  2  5  1 -1</clus>
</clustering>
</event>
<event>
 9    1  0.8429841E-005  0.1818766E+03  0.7546771E-02  0.1167263E+00
         21   -1    0    0  501  502  0.00000000000E+00  0.00000000000E+00  0.11009710394E+03  0.11009710394E+03  0.00000000000E+00 0. -1.
          1   -1    0    0  502    0 -0.00000000000E+00 -0.00000000000E+00 -0.75313761373E+03  0.75313761373E+03  0.00000000000E+00 0. -1.
        -24    2    1    2    0    0  0.53234712186E+02 -0.15213333393E+03 -0.17806790380E+03  0.25314146583E+03  0.79962100296E+02 0.  0.
         23    2    1    2    0    0  0.69345718904E+02  0.16606273225E+03 -0.10043862455E+03  0.22524910957E+03  0.90904258906E+02 0.  0.
         11    1    3    3    0    0  0.63093778752E+02 -0.59362123807E+02 -0.85911299450E+02  0.12200589344E+03  0.00000000000E+00 0. -1.
        -12    1    3    3    0    0 -0.98590665663E+01 -0.92771210118E+02 -0.92156604352E+02  0.13113557239E+03  0.00000000000E+00 0.  1.
        -13    1    4    4    0    0  0.38104708947E+02  0.15241903721E+02  0.59826813104E+00  0.41044395449E+02  0.00000000000E+00 0.  1.
         13    1    4    4    0    0  0.31241009957E+02  0.15082082853E+03 -0.10103689268E+03  0.18420471412E+03  0.00000000000E+00 0. -1.
          2    1    1    2  501    0 -0.12258043109E+03 -0.13929398326E+02 -0.36453398144E+03  0.38484414228E+03  0.00000000000E+00 0. -1.
<scales pt_clust_5="13000.00000" pt_clust_6="13000.00000" pt_clust_7="13000.00000" pt_clust_8="13000.00000" pt_clust_9="123.36939"></scales>
<clustering>
<clus scale="   79.962">  5  6 -1 -1</clus>
<clus scale="   90.904">  7  8 -1 -1</clus>
<clus scale="  123.369">  1  9  2 -1</clus>
<clus scale="  176.662">  2  5  1 -1</clus>
<clus scale="  123.369">  1  5  2 -1</clus>
</clustering>
</event>
<event>
 9    1  0.8429841E-005  0.9634684E+02  0.7546771E-02  0.1292877E+00
         21   -1    0    0  501  502  0.00000000000E+00  0.00000000000E+00  0.53346015198E+02  0.53346015198E+02  0.00000000000E+00 0. -1.
          1   -1    0    0  502    0 -0.00000000000E+00 -0.00000000000E+00 -0.42271556517E+03  0.42271556517E+03  0.00000000000E+00 0. -1.
         23    2    1    2    0    0 -0.12115221843E+02 -0.33144638496E+02 -0.33129683386E+03  0.34564423167E+03  0.92016287142E+02 0.  0.
        -24    2    1    2    0    0  0.12632371473E+02  0.37358452527E+00 -0.46760102647E+02  0.96510415673E+02  0.83474767202E+02 0.  0.
         13    1    4    4    0    0  0.47596640425E+02 -0.73626835506E+01 -0.31722967612E+02  0.57671448421E+02  0.00000000000E+00 0. -1.
        -14    1    4    4    0    0 -0.34964268953E+02  0.77362680759E+01 -0.15037135035E+02  0.38838967252E+02  0.00000000000E+00 0.  1.
        -11    1    3    3    0    0  0.21133471648E+02 -0.48518019855E+02 -0.26168783315E+03  0.26698528778E+03  0.00000000000E+00 0. -1.
         11    1    3    3    0    0 -0.33248693491E+02  0.15373381360E+02 -0.69609000715E+02  0.78658943890E+02  0.00000000000E+00 0.  1.
          2    1    1    2  501    0 -0.51714962969E+00  0.32771053970E+02  0.86873865386E+01  0.33906933022E+02  0.00000000000E+00 0. -1.
<scales pt_clust_5="13000.00000" pt_clust_6="13000.00000" pt_clust_7="13000.00000" pt_clust_8="13000.00000" pt_clust_9="32.77513"></scales>
<clustering>
<clus scale="   32.775">  1  9  2 -1</clus>
<clus scale="   83.475">  5  6 -1 -1</clus>
<clus scale="   88.226">  1  5  2 -1</clus>
<clus scale="   92.016">  7  8 -1 -1</clus>
<clus scale="   32.775">  1  5  2 -1</clus>
</clustering>
</event>
<event>
 9    1  0.8429841E-005  0.1234433E+03  0.7546771E-02  0.1246096E+00
          1   -1    0    0  502    0 -0.00000000000E+00  0.00000000000E+00  0.12348852137E+03  0.12348852137E+03  0.00000000000E+00 0. -1.
         21   -1    0    0  501  502  0.00000000000E+00 -0.00000000000E+00 -0.24041594849E+03  0.24041594849E+03  0.00000000000E+00 0.  1.
        -24    2    1    2    0    0 -0.19199508047E+02 -0.54207552446E+02 -0.18934270530E+02  0.10044207386E+03  0.80143769252E+02 0.  0.
         23    2    1    2    0    0  0.13852080657E+02  0.90520326011E+02 -0.14701734783E+03  0.20222038567E+03  0.10437037060E+03 0.  0.
         13    1    3    3    0    0 -0.49858879169E+02 -0.29798430171E+02 -0.30776234571E+01  0.58166365184E+02  0.00000000000E+00 0. -1.
        -14    1    3    3    0    0  0.30659371122E+02 -0.24409122276E+02 -0.15856647073E+02  0.42275708678E+02  0.00000000000E+00 0.  1.
        -13    1    4    4    0    0  0.41859256890E+02  0.94710751054E+02 -0.84725877605E+02  0.13379386417E+03  0.00000000000E+00 0. -1.
         13    1    4    4    0    0 -0.28007176233E+02 -0.41904250424E+01 -0.62291470221E+02  0.68426521502E+02  0.00000000000E+00 0.  1.
          2    1    1    2  501    0  0.53474273896E+01 -0.36312773565E+02  0.49024191233E+02  0.61242010334E+02  0.00000000000E+00 0. -1.
<scales pt_clust_5="13000.00000" pt_clust_6="13000.00000" pt_clust_7="13000.00000" pt_clust_8="13000.00000" pt_clust_9="36.70441"></scales>
<clustering>
<clus scale="   36.704">  2  9  1 -1</clus>
<clus scale="   80.144">  5  6 -1 -1</clus>
<clus scale="  103.770">  1  5  2 -1</clus>
<clus scale="  104.370">  7  8 -1 -1</clus>
<clus scale="   36.704">  2  5  1 -1</clus>
</clustering>
</event>
<event>
 9    1  0.8429841E-005  0.1769674E+03  0.7546771E-02  0.1177984E+00
         21   -1    0    0  501  502  0.00000000000E+00  0.00000000000E+00  0.14936391626E+03  0.14936391626E+03  0.00000000000E+00 0. -1.
          1   -1    0    0  502    0 -0.00000000000E+00 -0.00000000000E+00 -0.64527791910E+03  0.64527791910E+03  0.00000000000E+00 0. -1.
         23    2    1    2    0    0  0.53413097307E+01  0.11952268980E+03 -0.20449332245E+03  0.25375040676E+03  0.90871046210E+02 0.  0.
        -24    2    1    2    0    0 -0.84653230770E+02  0.10860917778E+03  0.15449939125E+01  0.16120285076E+03  0.83796474332E+02 0.  0.
         13    1    4    4    0    0 -0.74233288428E+02  0.11558901134E+03 -0.17412388662E+02  0.13847235079E+03  0.00000000000E+00 0. -1.
        -14    1    4    4    0    0 -0.10419942343E+02 -0.69798335643E+01  0.18957382575E+02  0.22730499975E+02  0.00000000000E+00 0.  1.
        -13    1    3    3    0    0  0.41165161200E+02  0.10097398799E+03 -0.16075783718E+03  0.19425086606E+03  0.00000000000E+00 0. -1.
         13    1    3    3    0    0 -0.35823851469E+02  0.18548701804E+02 -0.43735485270E+02  0.59499540708E+02  0.00000000000E+00 0.  1.
          2    1    1    2  501    0  0.79311921040E+02 -0.22813186758E+03 -0.29296567430E+03  0.37968857784E+03  0.00000000000E+00 0. -1.
<scales pt_clust_5="13000.00000" pt_clust_6="13000.00000" pt_clust_7="13000.00000" pt_clust_8="13000.00000" pt_clust_9="155.87059"></scales>
<clustering>
<clus scale="   83.796">  5  6 -1 -1</clus>
<clus scale="   90.871">  7  8 -1 -1</clus>
<clus scale="  150.239">  2  7  1 -1</clus>
<clus scale="  155.871">  1  9  2 -1</clus>
<clus scale="  155.871">  1  5  2 -1</clus>
</clustering>
</event>
<event>
 9    1  0.8429841E-005  0.1069482E+03  0.7546771E-02  0.1276229E+00
          1   -1    0    0  502    0 -0.00000000000E+00  0.00000000000E+00  0.33956630907E+03  0.33956630907E+03  0.00000000000E+00 0. -1.
         21   -1    0    0  501  502  0.00000000000E+00 -0.00000000000E+00 -0.13311029139E+03  0.13311029139E+03  0.00000000000E+00 0. -1.
         23    2    1    2    0    0 -0.50232183054E+02  0.28023807151E+02  0.26782677948E+03  0.28833455546E+03  0.89983476737E+02 0.  0.
        -24    2    1    2    0    0  0.37509861704E+02 -0.50689456871E+02  0.24120759084E+02  0.94986635079E+02  0.66814961362E+02 0.  0.
         13    1    4    4    0    0  0.50161441365E+01 -0.40087103452E+02  0.40394822935E+02  0.57130370952E+02  0.00000000000E+00 0. -1.
        -14    1    4    4    0    0  0.32493717567E+02 -0.10602353419E+02 -0.16274063851E+02  0.37856264126E+02  0.00000000000E+00 0.  1.
        -11    1    3    3    0    0  0.15365481925E+02  0.32740713912E+02  0.13981180036E+03  0.14441396021E+03  0.00000000000E+00 0. -1.
         11    1    3    3    0    0 -0.65597664979E+02 -0.47169067605E+01  0.12801497911E+03  0.14392059525E+03  0.00000000000E+00 0.  1.
          2    1    1    2  501    0  0.12722321350E+02  0.22665649720E+02 -0.85491520886E+02  0.89355409915E+02  0.00000000000E+00 0. -1.
<scales pt_clust_5="13000.00000" pt_clust_6="13000.00000" pt_clust_7="13000.00000" pt_clust_8="13000.00000" pt_clust_9="25.99210"></scales>
<clustering>
<clus scale="   25.992">  2  9  1 -1</clus>
<clus scale="   66.815">  5  6 -1 -1</clus>
<clus scale="   88.347">  2  5  1 -1</clus>
<clus scale="   89.983">  7  8 -1 -1</clus>
<clus scale="   25.992">  2  5  1 -1</clus>
</clustering>
</event>
<event>
 9    1  0.1122624E-004  0.9470533E+02  0.7546771E-02  0.1298110E+00
         21   -1    0    0  501  502  0.00000000000E+00  0.00000000000E+00  0.15607997373E+03  0.15607997373E+03  0.00000000000E+00 0.  1.
         -2   -1    0    0    0  501 -0.00000000000E+00 -0.00000000000E+00 -0.51544204027E+03  0.51544204027E+03  0.00000000000E+00 0.  1.
        -24    2    1    2    0    0 -0.20944447390E+02  0.10799774400E+02 -0.40466017452E+03  0.41324919855E+03  0.80434683172E+02 0.  0.
         23    2    1    2    0    0  0.43958705449E+02  0.16945851740E+02 -0.78528246660E+02  0.12930599046E+03  0.91289780196E+02 0.  0.
         11    1    3    3    0    0  0.29082057350E+01 -0.30648551980E+02 -0.93561065460E+02  0.98496011945E+02  0.00000000000E+00 0. -1.
        -12    1    3    3    0    0 -0.23852653125E+02  0.41448326380E+02 -0.31109910906E+03  0.31475318661E+03  0.00000000000E+00 0.  1.
        -13    1    4    4    0    0  0.11048178883E+02  0.51969430128E+02 -0.52308105296E+02  0.74558847927E+02  0.00000000000E+00 0.  1.
         13    1    4    4    0    0  0.32910526565E+02 -0.35023578388E+02 -0.26220141364E+02  0.54747142529E+02  0.00000000000E+00 0. -1.
         -1    1    1    2    0  502 -0.23014258059E+02 -0.27745626140E+02  0.12382635464E+03  0.12896682499E+03  0.00000000000E+00 0.  1.
<scales pt_clust_5="13000.00000" pt_clust_6="13000.00000" pt_clust_7="13000.00000" pt_clust_8="13000.00000" pt_clust_9="36.04824"></scales>
<clustering>
<clus scale="   36.048">  1  9  2 -1</clus>
<clus scale="   80.435">  5  6 -1 -1</clus>
<clus scale="   84.291">  2  5  1 -1</clus>
<clus scale="   91.290">  7  8 -1 -1</clus>
<clus scale="   36.048">  1  5  2 -1</clus>
</clustering>
</event>
<event>
 9    1  0.8429841E-005  0.1018002E+03  0.7546771E-02  0.1278244E+00
         21   -1    0    0  501  502  0.00000000000E+00  0.00000000000E+00  0.18708641121E+03  0.18708641121E+03  0.00000000000E+00 0.  1.
         -4   -1    0    0    0  501 -0.00000000000E+00 -0.00000000000E+00 -0.65349066711E+03  0.65349066711E+03  0.00000000000E+00 0.  1.
        -24    2    1    2    0    0 -0.37168479836E+02  0.44069652509E+02 -0.54947431838E+03  0.55910346790E+03  0.85738154228E+02 0.  0.
         23    2    1    2    0    0  0.35132863235E+01 -0.87279095764E+01 -0.74336556787E+02  0.11667508302E+03  0.89435069949E+02 0.  0.
         13    1    3    3    0    0 -0.26361792626E+02  0.41566497512E+01 -0.40811439536E+02  0.48762643946E+02  0.00000000000E+00 0. -1.
        -14    1    3    3    0    0 -0.10806687210E+02  0.39913002758E+02 -0.50866287884E+03  0.51034082395E+03  0.00000000000E+00 0.  1.
        -13    1    4    4    0    0 -0.34082188219E+02 -0.10842307046E+02 -0.70210153881E+02  0.78794777009E+02  0.00000000000E+00 0.  1.
         13    1    4    4    0    0  0.37595474542E+02  0.21143974700E+01 -0.41264029058E+01  0.37880306013E+02  0.00000000000E+00 0. -1.
         -3    1    1    2    0  502  0.33655193513E+02 -0.35341742933E+02  0.15740661926E+03  0.16479852740E+03  0.00000000000E+00 0.  1.
<scales pt_clust_5="13000.00000" pt_clust_6="13000.00000" pt_clust_7="13000.00000" pt_clust_8="13000.00000" pt_clust_9="48.80277"></scales>
<clustering>
<clus scale="   48.803">  1  9  2 -1</clus>
<clus scale="   85.738">  5  6 -1 -1</clus>
<clus scale="   89.435">  7  8 -1 -1</clus>
<clus scale="   98.568">  2  5  1 -1</clus>
<clus scale="   48.803">  1  5  2 -1</clus>
</clustering>
</event>
<event>
 9    1  0.8429841E-005  0.9821515E+02  0.7546771E-02  0.1288903E+00
         21   -1    0    0  501  502  0.00000000000E+00  0.00000000000E+00  0.34164936921E+03  0.34164936921E+03  0.00000000000E+00 0.  1.
         -2   -1    0    0    0  501 -0.00000000000E+00 -0.00000000000E+00 -0.79521914005E+02  0.79521914005E+02  0.00000000000E+00 0.  1.
         23    2    1    2    0    0  0.22199852532E+02 -0.39333269258E+02 -0.31764569959E+02  0.10531792632E+03  0.89682429591E+02 0.  0.
        -24    2    1    2    0    0 -0.97523357870E+01  0.10531677591E+02  0.17807232769E+03  0.19585887919E+03  0.80280273933E+02 0.  0.
         11    1    4    4    0    0  0.82178252593E+01  0.24718243783E+02  0.12827766013E+02  0.29035767746E+02  0.00000000000E+00 0. -1.
        -12    1    4    4    0    0 -0.17970161046E+02 -0.14186566192E+02  0.16524456168E+03  0.16682311145E+03  0.00000000000E+00 0.  1.
        -11    1    3    3    0    0 -0.14109440555E+02 -0.27506267043E+02 -0.53197329755E+02  0.61527448610E+02  0.00000000000E+00 0.  1.
         11    1    3    3    0    0  0.36309293088E+02 -0.11827002216E+02  0.21432759796E+02  0.43790477714E+02  0.00000000000E+00 0. -1.
         -1    1    1    2    0  502 -0.12447516745E+02  0.28801591668E+02  0.11581969747E+03  0.11999447770E+03  0.00000000000E+00 0.  1.
<scales pt_clust_5="13000.00000" pt_clust_6="13000.00000" pt_clust_7="13000.00000" pt_clust_8="13000.00000" pt_clust_9="31.37630"></scales>
<clustering>
<clus scale="   31.376">  1  9  2 -1</clus>
<clus scale="   80.280">  5  6 -1 -1</clus>
<clus scale="   89.682">  7  8 -1 -1</clus>
<clus scale="   89.712">  1  5  2 -1</clus>
<clus scale="   31.376">  1  5  2 -1</clus>
</clustering>
</event>
<event>
 9    1  0.8429841E-005  0.1024719E+03  0.7546771E-02  0.1285304E+00
         21   -1    0    0  501  502  0.00000000000E+00  0.00000000000E+00  0.57480507895E+03  0.57480507895E+03  0.00000000000E+00 0. -1.
          1   -1    0    0  502    0 -0.00000000000E+00 -0.00000000000E+00 -0.18711463785E+03  0.18711463785E+03  0.00000000000E+00 0. -1.
         23    2    1    2    0    0  0.17138111692E+02 -0.33943895115E+02 -0.16422837173E+03  0.19405748745E+03  0.96132447527E+02 0.  0.
        -24    2    1    2    0    0 -0.91007596663E+01 -0.10121348304E+02  0.22991957784E+03  0.24276247229E+03  0.76715970701E+02 0.  0.
         11    1    4    4    0    0 -0.20577855671E+02 -0.31481259768E+01  0.11215129462E+02  0.23646098410E+02  0.00000000000E+00 0. -1.
        -12    1    4    4    0    0  0.11477096005E+02 -0.69732223273E+01  0.21870444838E+03  0.21911637388E+03  0.00000000000E+00 0.  1.
        -13    1    3    3    0    0 -0.86187879941E+01 -0.33081963592E+02 -0.16477138691E+03  0.16828044975E+03  0.00000000000E+00 0. -1.
         13    1    3    3    0    0  0.25756899686E+02 -0.86193152347E+00  0.54301518446E+00  0.25777037706E+02  0.00000000000E+00 0.  1.
          2    1    1    2  501    0 -0.80373520258E+01  0.44065243419E+02  0.32199923499E+03  0.32509975706E+03  0.00000000000E+00 0. -1.
<scales pt_clust_5="13000.00000" pt_clust_6="13000.00000" pt_clust_7="13000.00000" pt_clust_8="13000.00000" pt_clust_9="44.79224"></scales>
<clustering>
<clus scale="   44.792">  1  9  2 -1</clus>
<clus scale="   76.716">  5  6 -1 -1</clus>
<clus scale="   84.524">  1  5  2 -1</clus>
<clus scale="   96.132">  7  8 -1 -1</clus>
<clus scale="   44.792">  1  5  2 -1</clus>
</clustering>
</event>
<event>
 9    1  0.8429841E-005  0.1224219E+03  0.7546771E-02  0.1242258E+00
          3   -1    0    0  502    0 -0.00000000000E+00  0.00000000000E+00  0.19361902559E+03  0.19361902559E+03  0.00000000000E+00 0. -1.
         21   -1    0    0  501  502  0.00000000000E+00 -0.00000000000E+00 -0.13772386664E+03  0.13772386664E+03  0.00000000000E+00 0. -1.
        -24    2    1    2    0    0 -0.93810134918E+02  0.20720190452E+02  0.70802812385E+01  0.12516062776E+03  0.79908601875E+02 0.  0.
         23    2    1    2    0    0  0.69677156996E+02  0.33065882161E+02 -0.14519521504E+02  0.11965719091E+03  0.90325899176E+02 0.  0.
         13    1    3    3    0    0 -0.99869815844E+02  0.37639634465E+02  0.88952017715E+01  0.10709737071E+03  0.00000000000E+00 0. -1.
        -14    1    3    3    0    0  0.60596809260E+01 -0.16919444013E+02 -0.18149205331E+01  0.18063257048E+02  0.00000000000E+00 0.  1.
        -13    1    4    4    0    0  0.22192077282E+02  0.45303967865E+02  0.25349226351E+02  0.56458135596E+02  0.00000000000E+00 0. -1.
         13    1    4    4    0    0  0.47485079714E+02 -0.12238085704E+02 -0.39868747856E+02  0.63199055315E+02  0.00000000000E+00 0.  1.
          4    1    1    2  501    0  0.24132977922E+02 -0.53786072613E+02  0.63334399216E+02  0.86525073560E+02  0.00000000000E+00 0. -1.
<scales pt_clust_5="13000.00000" pt_clust_6="13000.00000" pt_clust_7="13000.00000" pt_clust_8="13000.00000" pt_clust_9="58.95206"></scales>
<clustering>
<clus scale="   58.952">  2  9  1 -1</clus>
<clus scale="   79.909">  5  6 -1 -1</clus>
<clus scale="   90.326">  7  8 -1 -1</clus>
<clus scale="  114.951">  1  5  2 -1</clus>
<clus scale="   58.952">  2  5  1 -1</clus>
</clustering>
</event>
<event>
 9    1  0.8429841E-005  0.1107063E+03  0.7546771E-02  0.1263661E+00
         21   -1    0    0  501  502  0.00000000000E+00  0.00000000000E+00  0.64886715840E+03  0.64886715840E+03  0.00000000000E+00 0.  1.
          3   -1    0    0  502    0 -0.00000000000E+00 -0.00000000000E+00 -0.33238443480E+02  0.33238443480E+02  0.00000000000E+00 0. -1.
         23    2    1    2    0    0 -0.90134848080E+01  0.73852044314E+02  0.13086918710E+03  0.17623313173E+03  0.91629718056E+02 0.  0.
        -24    2    1    2    0    0  0.28844949980E+02 -0.27572692815E+02  0.36689419373E+03  0.37770343189E+03  0.80350784332E+02 0.  0.
         13    1    4    4    0    0  0.15496499078E+02 -0.49381654939E+02  0.13801255379E+03  0.14739794548E+03  0.00000000000E+00 0. -1.
        -14    1    4    4    0    0  0.13348450902E+02  0.21808962124E+02  0.22888163993E+03  0.23030548641E+03  0.00000000000E+00 0.  1.
        -11    1    3    3    0    0  0.11886863226E+02  0.38206527114E+02  0.10827468383E+01  0.40027597632E+02  0.00000000000E+00 0. -1.
         11    1    3    3    0    0 -0.20900348034E+02  0.35645517200E+02  0.12978644026E+03  0.13620553410E+03  0.00000000000E+00 0.  1.
          4    1    1    2  501    0 -0.19831465172E+02 -0.46279351500E+02  0.11786533410E+03  0.12816903826E+03  0.00000000000E+00 0. -1.
<scales pt_clust_5="13000.00000" pt_clust_6="13000.00000" pt_clust_7="13000.00000" pt_clust_8="13000.00000" pt_clust_9="50.34943"></scales>
<clustering>
<clus scale="   50.349">  1  9  2 -1</clus>
<clus scale="   80.351">  5  6 -1 -1</clus>
<clus scale="   91.630">  7  8 -1 -1</clus>
<clus scale="  101.568">  1  5  2 -1</clus>
<clus scale="   50.349">  1  5  2 -1</clus>
</clustering>
</event>
<event>
 9    1  0.8429841E-005  0.1744916E+03  0.7546771E-02  0.1185185E+00
          1   -1    0    0  502    0 -0.00000000000E+00  0.00000000000E+00  0.81635948303E+03  0.81635948303E+03  0.00000000000E+00 0. -1.
         21   -1    0    0  501  502  0.00000000000E+00 -0.00000000000E+00 -0.72430289824E+02  0.72430289824E+02  0.00000000000E+00 0. -1.
         23    2    1    2    0    0 -0.65729946363E+02 -0.79353538324E+02  0.28468408950E+03  0.31437266338E+03  0.84662451962E+02 0.  0.
        -24    2    1    2    0    0 -0.12517514640E+02  0.19008547824E+03  0.24269981168E+03  0.31892524822E+03  0.80752325987E+02 0.  0.
         13    1    4    4    0    0  0.54728758404E+00  0.19040233196E+03  0.20872379527E+03  0.28252251282E+03  0.00000000000E+00 0. -1.
        -14    1    4    4    0    0 -0.13064802224E+02 -0.31685371984E+00  0.33976016407E+02  0.36402735396E+02  0.00000000000E+00 0.  1.
        -11    1    3    3    0    0 -0.19448204976E+02 -0.48812161174E+02  0.23203177393E+03  0.23790671253E+03  0.00000000000E+00 0. -1.
         11    1    3    3    0    0 -0.46281741387E+02 -0.30541377150E+02  0.52652315573E+02  0.76465950849E+02  0.00000000000E+00 0.  1.
          2    1    1    2  501    0  0.78247461003E+02 -0.11073193991E+03  0.21654529202E+03  0.25549186125E+03  0.00000000000E+00 0. -1.
<scales pt_clust_5="13000.00000" pt_clust_6="13000.00000" pt_clust_7="13000.00000" pt_clust_8="13000.00000" pt_clust_9="154.68153"></scales>
<clustering>
<clus scale="   80.752">  5  6 -1 -1</clus>
<clus scale="   84.662">  7  8 -1 -1</clus>
<clus scale="  133.361">  1  7  2 -1</clus>
<clus scale="  154.682">  2  9  1 -1</clus>
<clus scale="  154.682">  2  5  1 -1</clus>
</clustering>
</event>
<event>
 9    1  0.8429841E-005  0.1173729E+03  0.7546771E-02  0.1251759E+00
          1   -1    0    0  502    0 -0.00000000000E+00  0.00000000000E+00  0.74566163018E+03  0.74566163018E+03  0.00000000000E+00 0. -1.
         21   -1    0    0  501  502  0.00000000000E+00 -0.00000000000E+00 -0.25035932186E+02  0.25035932186E+02  0.00000000000E+00 0. -1.
         23    2    1    2    0    0  0.74575308415E+02 -0.38002431749E+02  0.36382004255E+03  0.38425163806E+03  0.90987013065E+02 0.  0.
        -24    2    1    2    0    0 -0.70112970342E+02 -0.41159668646E+01  0.27308162197E+03  0.29261849898E+03  0.78225596145E+02 0.  0.
         13    1    4    4    0    0 -0.37309783329E+02 -0.39156618813E+02  0.17911131678E+03  0.18709923711E+03  0.00000000000E+00 0. -1.
        -14    1    4    4    0    0 -0.32803187014E+02  0.35040651948E+02  0.93970305193E+02  0.10551926187E+03  0.00000000000E+00 0.  1.
        -13    1    3    3    0    0  0.52641774707E+02  0.17738763897E+02  0.10725654828E+03  0.12078819204E+03  0.00000000000E+00 0. -1.
         13    1    3    3    0    0  0.21933533708E+02 -0.55741195646E+02  0.25656349428E+03  0.26346344602E+03  0.00000000000E+00 0.  1.
          2    1    1    2  501    0 -0.44623380726E+01  0.42118398614E+02  0.83724033463E+02  0.93827425320E+02  0.00000000000E+00 0. -1.
<scales pt_clust_5="13000.00000" pt_clust_6="13000.00000" pt_clust_7="13000.00000" pt_clust_8="13000.00000" pt_clust_9="42.35413"></scales>
<clustering>
<clus scale="   42.354">  2  9  1 -1</clus>
<clus scale="   78.226">  5  6 -1 -1</clus>
<clus scale="   90.987">  7  8 -1 -1</clus>
<clus scale="  107.782">  2  5  1 -1</clus>
<clus scale="   42.354">  2  5  1 -1</clus>
</clustering>
</event>
<event>
 9    1  0.8429841E-005  0.1449419E+03  0.7546771E-02  0.1213789E+00
         21   -1    0    0  501  502  0.00000000000E+00  0.00000000000E+00  0.20773295885E+03  0.20773295885E+03  0.00000000000E+00 0.  1.
         -4   -1    0    0    0  501 -0.00000000000E+00 -0.00000000000E+00 -0.23741456266E+03  0.23741456266E+03  0.00000000000E+00 0.  1.
         23    2    1    2    0    0  0.49760329175E+02 -0.69357476780E+02 -0.96601562430E+02  0.15792806963E+03  0.91229728537E+02 0.  0.
        -24    2    1    2    0    0  0.81717819489E+02  0.73655828790E+02 -0.85016938512E+00  0.13924050184E+03  0.85347591806E+02 0.  0.
         13    1    4    4    0    0  0.12921270462E+02  0.65552898553E+02  0.14308661154E+02  0.68329199637E+02  0.00000000000E+00 0. -1.
        -14    1    4    4    0    0  0.68796549026E+02  0.81029302371E+01 -0.15158830539E+02  0.70911302200E+02  0.00000000000E+00 0.  1.
        -13    1    3    3    0    0  0.63772471978E+01 -0.63916723980E+02 -0.15945977544E+02  0.66183767541E+02  0.00000000000E+00 0. -1.
         13    1    3    3    0    0  0.43383081977E+02 -0.54407528000E+01 -0.80655584886E+02  0.91744302091E+02  0.00000000000E+00 0.  1.
         -3    1    1    2    0  502 -0.13147814866E+03 -0.42983520103E+01  0.67770128003E+02  0.14797895004E+03  0.00000000000E+00 0.  1.
<scales pt_clust_5="13000.00000" pt_clust_6="13000.00000" pt_clust_7="13000.00000" pt_clust_8="13000.00000" pt_clust_9="117.14923"></scales>
<clustering>
<clus scale="   85.348">  5  6 -1 -1</clus>
<clus scale="   91.230">  7  8 -1 -1</clus>
<clus scale="  124.938">  2  7  1 -1</clus>
<clus scale="  117.149">  1  9  2 -1</clus>
<clus scale="  117.149">  1  5  2 -1</clus>
</clustering>
</event>
<event>
 9    1  0.8429841E-005  0.1015657E+03  0.7546771E-02  0.1282831E+00
         21   -1    0    0  501  502  0.00000000000E+00  0.00000000000E+00  0.62128321780E+03  0.62128321780E+03  0.00000000000E+00 0.  1.
         -2   -1    0    0    0  501 -0.00000000000E+00 -0.00000000000E+00 -0.31301959538E+02  0.31301959538E+02  0.00000000000E+00 0.  1.
        -24    2    1    2    0    0  0.39803871578E+02 -0.28378267521E+02  0.13964760517E+03  0.16804447008E+03  0.79673182655E+02 0.  0.
         23    2    1    2    0    0  0.18412788644E+02  0.59830609415E+02  0.31341241858E+03  0.33246883676E+03  0.91593944583E+02 0.  0.
         13    1    3    3    0    0 -0.16168411664E+02  0.14906860975E+02  0.24761815928E+02  0.33117662476E+02  0.00000000000E+00 0. -1.
        -14    1    3    3    0    0  0.55972283242E+02 -0.43285128496E+02  0.11488578924E+03  0.13492680760E+03  0.00000000000E+00 0.  1.
        -13    1    4    4    0    0  0.22776679597E+00  0.79645452262E+02  0.18747609012E+03  0.20369274486E+03  0.00000000000E+00 0.  1.
         13    1    4    4    0    0  0.18185021848E+02 -0.19814842846E+02  0.12593632846E+03  0.12877609189E+03  0.00000000000E+00 0. -1.
         -1    1    1    2    0  502 -0.58216660222E+02 -0.31452341894E+02  0.13692123451E+03  0.15207187050E+03  0.00000000000E+00 0.  1.
<scales pt_clust_5="13000.00000" pt_clust_6="13000.00000" pt_clust_7="13000.00000" pt_clust_8="13000.00000" pt_clust_9="66.16973"></scales>
<clustering>
<clus scale="   66.170">  1  9  2 -1</clus>
<clus scale="   79.673">  5  6 -1 -1</clus>
<clus scale="   90.961">  2  5  1 -1</clus>
<clus scale="   91.594">  7  8 -1 -1</clus>
<clus scale="   66.170">  1  5  2 -1</clus>
</clustering>
</event>
<event>
 9    1  0.8429841E-005  0.1113587E+03  0.7546771E-02  0.1259631E+00
          1   -1    0    0  502    0 -0.00000000000E+00  0.00000000000E+00  0.36168386183E+03  0.36168386183E+03  0.00000000000E+00 0. -1.
         21   -1    0    0  501  502  0.00000000000E+00 -0.00000000000E+00 -0.77079790435E+02  0.77079790435E+02  0.00000000000E+00 0.  1.
         23    2    1    2    0    0 -0.59927922504E+02  0.42907970304E+02  0.27258169336E+03  0.29238811496E+03  0.75878721681E+02 0.  0.
        -24    2    1    2    0    0  0.78599895481E+02 -0.51458123918E+02  0.17779044672E+02  0.12504745928E+03  0.80590883820E+02 0.  0.
         13    1    4    4    0    0  0.60945699999E+01  0.19894376059E+02  0.98274219880E+01  0.23011045287E+02  0.00000000000E+00 0. -1.
        -14    1    4    4    0    0  0.72505325481E+02 -0.71352499978E+02  0.79516226839E+01  0.10203641399E+03  0.00000000000E+00 0.  1.
        -11    1    3    3    0    0 -0.56152930450E+01  0.42695575538E+02  0.17973871679E+03  0.18482545821E+03  0.00000000000E+00 0. -1.
         11    1    3    3    0    0 -0.54312629459E+02  0.21239476601E+00  0.92842976564E+02  0.10756265675E+03  0.00000000000E+00 0.  1.
          2    1    1    2  501    0 -0.18671972977E+02  0.85501536142E+01 -0.57566666371E+01  0.21328078030E+02  0.00000000000E+00 0. -1.
<scales pt_clust_5="13000.00000" pt_clust_6="13000.00000" pt_clust_7="13000.00000" pt_clust_8="13000.00000" pt_clust_9="20.53650"></scales>
<clustering>
<clus scale="   20.536">  2  9  1 -1</clus>
<clus scale="   75.879">  7  8 -1 -1</clus>
<clus scale="   80.591">  5  6 -1 -1</clus>
<clus scale="  107.997">  1  7  2 -1</clus>
<clus scale="   20.536">  2  5  1 -1</clus>
</clustering>
</event>
<event>
 9    1  0.8429841E-005  0.1576947E+03  0.7546771E-02  0.1209469E+00
         -4   -1    0    0    0  501 -0.00000000000E+00  0.00000000000E+00  0.18122459350E+03  0.18122459350E+03  0.00000000000E+00 0.  1.
         21   -1    0    0  501  502  0.00000000000E+00 -0.00000000000E+00 -0.29770878460E+03  0.29770878460E+03  0.00000000000E+00 0.  1.
         23    2    1    2    0    0 -0.52165672967E+02 -0.16939771907E+02 -0.65251711247E+02  0.12477972018E+03  0.91126173185E+02 0.  0.
        -24    2    1    2    0    0  0.70104076611E+02  0.14544581841E+03  0.52238670381E+02  0.18819622589E+03  0.81362602639E+02 0.  0.
         13    1    4    4    0    0  0.50813595985E+02  0.52283136525E+02  0.57586391584E+02  0.92907160098E+02  0.00000000000E+00 0. -1.
        -14    1    4    4    0    0  0.19290480626E+02  0.93162681882E+02 -0.53477212035E+01  0.95289065796E+02  0.00000000000E+00 0.  1.
        -11    1    3    3    0    0 -0.43736503551E+02  0.32641763576E+02 -0.23517625708E+02  0.59425963948E+02  0.00000000000E+00 0.  1.
         11    1    3    3    0    0 -0.84291694164E+01 -0.49581535484E+02 -0.41734085539E+02  0.65353756233E+02  0.00000000000E+00 0. -1.
         -3    1    1    2    0  502 -0.17938403644E+02 -0.12850604650E+03 -0.10347115024E+03  0.16595743202E+03  0.00000000000E+00 0.  1.
<scales pt_clust_5="13000.00000" pt_clust_6="13000.00000" pt_clust_7="13000.00000" pt_clust_8="13000.00000" pt_clust_9="135.08417"></scales>
<clustering>
<clus scale="   81.363">  5  6 -1 -1</clus>
<clus scale="   91.126">  7  8 -1 -1</clus>
<clus scale="  106.359">  1  7  2 -1</clus>
<clus scale="  135.084">  2  9  1 -1</clus>
<clus scale="  135.084">  2  5  1 -1</clus>
</clustering>
</event>
<event>
 9    1  0.8429841E-005  0.1496145E+03  0.7546771E-02  0.1203074E+00
         -2   -1    0    0    0  501 -0.00000000000E+00  0.00000000000E+00  0.88473185661E+02  0.88473185661E+02  0.00000000000E+00 0.  1.
         21   -1    0    0  501  502  0.00000000000E+00 -0.00000000000E+00 -0.33649352267E+03  0.33649352267E+03  0.00000000000E+00 0.  1.
        -24    2    1    2    0    0  0.28655415701E+02 -0.10579568344E+03 -0.47543833842E+02  0.14416129441E+03  0.80673435433E+02 0.  0.
         23    2    1    2    0    0 -0.23388324812E+02  0.13494249831E+03 -0.18298377579E+03  0.24640665560E+03  0.92068920561E+02 0.  0.
         13    1    3    3    0    0 -0.26251145206E+02 -0.16218228688E+02 -0.77818506981E+01  0.31823116860E+02  0.00000000000E+00 0. -1.
        -14    1    3    3    0    0  0.54906560907E+02 -0.89577454755E+02 -0.39761983144E+02  0.11233817755E+03  0.00000000000E+00 0.  1.
        -13    1    4    4    0    0  0.34215834302E+00  0.13450134310E+03 -0.12445223746E+03  0.18324597615E+03  0.00000000000E+00 0.  1.
         13    1    4    4    0    0 -0.23730483155E+02  0.44115521216E+00 -0.58531538332E+02  0.63160679447E+02  0.00000000000E+00 0. -1.
         -1    1    1    2    0  502 -0.52670908891E+01 -0.29146814867E+02 -0.17492727379E+02  0.34398758328E+02  0.00000000000E+00 0.  1.
<scales pt_clust_5="13000.00000" pt_clust_6="13000.00000" pt_clust_7="13000.00000" pt_clust_8="13000.00000" pt_clust_9="29.61891"></scales>
<clustering>
<clus scale="   29.619">  2  9  1 -1</clus>
<clus scale="   80.673">  5  6 -1 -1</clus>
<clus scale="   92.069">  7  8 -1 -1</clus>
<clus scale="  142.885">  1  5  2 -1</clus>
<clus scale="   29.619">  2  5  1 -1</clus>
</clustering>
</event>
<event>
 9    1  0.8429841E-005  0.9518378E+02  0.7546771E-02  0.1298143E+00
          1   -1    0    0  502    0 -0.00000000000E+00  0.00000000000E+00  0.31093891997E+03  0.31093891997E+03  0.00000000000E+00 0. -1.
         21   -1    0    0  501  502  0.00000000000E+00 -0.00000000000E+00 -0.65953653885E+02  0.65953653885E+02  0.00000000000E+00 0. -1.
         23    2    1    2    0    0 -0.20471029718E+02 -0.23454955220E+02  0.14303986687E+03  0.17300736725E+03  0.92206006458E+02 0.  0.
        -24    2    1    2    0    0 -0.55829394040E+02  0.20817966969E+02  0.67427749663E+02  0.12009871304E+03  0.79541752949E+02 0.  0.
         13    1    4    4    0    0 -0.37787037225E+02  0.33501858863E+01 -0.95578035300E+01  0.39120781383E+02  0.00000000000E+00 0. -1.
        -14    1    4    4    0    0 -0.18042356815E+02  0.17467781083E+02  0.76985553193E+02  0.80977931659E+02  0.00000000000E+00 0.  1.
        -11    1    3    3    0    0 -0.36738055844E+02 -0.49207313965E+02  0.65927432003E+02  0.90097007638E+02  0.00000000000E+00 0. -1.
         11    1    3    3    0    0  0.16267026126E+02  0.25752358745E+02  0.77112434870E+02  0.82910359615E+02  0.00000000000E+00 0.  1.
          2    1    1    2  501    0  0.76300423758E+02  0.26369882512E+01  0.34517649549E+02  0.83786493560E+02  0.00000000000E+00 0. -1.
<scales pt_clust_5="13000.00000" pt_clust_6="13000.00000" pt_clust_7="13000.00000" pt_clust_8="13000.00000" pt_clust_9="76.34598"></scales>
<clustering>
<clus scale="   76.346">  2  9  1 -1</clus>
<clus scale="   79.542">  5  6 -1 -1</clus>
<clus scale="   82.975">  2  5  1 -1</clus>
<clus scale="   92.206">  7  8 -1 -1</clus>
<clus scale="   76.346">  2  5  1 -1</clus>
</clustering>
</event>
<event>
 9    1  0.8429841E-005  0.2462974E+03  0.7546771E-02  0.1115702E+00
         21   -1    0    0  501  502  0.00000000000E+00  0.00000000000E+00  0.78203401078E+02  0.78203401078E+02  0.00000000000E+00 0. -1.
          1   -1    0    0  502    0 -0.00000000000E+00 -0.00000000000E+00 -0.15343774055E+04  0.15343774055E+04  0.00000000000E+00 0. -1.
         23    2    1    2    0    0  0.21505523236E+03  0.40887864755E+02 -0.85724814506E+03  0.88891890540E+03  0.85917796311E+02 0.  0.
        -24    2    1    2    0    0 -0.26820765168E+03  0.56261259438E+02 -0.49276088810E+03  0.57025351439E+03  0.85294220785E+02 0.  0.
         13    1    4    4    0    0 -0.14962206064E+03  0.53853781720E+02 -0.35152367814E+03  0.38581846396E+03  0.00000000000E+00 0. -1.
        -14    1    4    4    0    0 -0.11858559104E+03  0.24074777174E+01 -0.14123720996E+03  0.18443505043E+03  0.00000000000E+00 0.  1.
        -13    1    3    3    0    0  0.77167352486E+02  0.27713801614E+02 -0.18209892285E+03  0.19970696731E+03  0.00000000000E+00 0.  1.
         13    1    3    3    0    0  0.13788787987E+03  0.13174063141E+02 -0.67514922221E+03  0.68921193809E+03  0.00000000000E+00 0. -1.
          2    1    1    2  501    0  0.53152419323E+02 -0.97149124192E+02 -0.10616497124E+03  0.15340838677E+03  0.00000000000E+00 0. -1.
<scales pt_clust_5="13000.00000" pt_clust_6="13000.00000" pt_clust_7="13000.00000" pt_clust_8="13000.00000" pt_clust_9="110.73903"></scales>
<clustering>
<clus scale="   85.294">  5  6 -1 -1</clus>
<clus scale="   85.918">  7  8 -1 -1</clus>
<clus scale="  110.739">  1  9  2 -1</clus>
<clus scale="  246.081">  1  5  2 -1</clus>
<clus scale="  110.739">  1  5  2 -1</clus>
</clustering>
</event>
<event>
 9    1  0.8429841E-005  0.1418223E+03  0.7546771E-02  0.1226168E+00
          1   -1    0    0  502    0 -0.00000000000E+00  0.00000000000E+00  0.62461355535E+03  0.62461355535E+03  0.00000000000E+00 0. -1.
         21   -1    0    0  501  502  0.00000000000E+00 -0.00000000000E+00 -0.50913713931E+02  0.50913713931E+02  0.00000000000E+00 0. -1.
        -24    2    1    2    0    0  0.35536816612E+01 -0.64834307637E+02  0.12289864850E+03  0.16024883079E+03  0.79746434824E+02 0.  0.
         23    2    1    2    0    0 -0.59978028244E+01 -0.62477991864E+02  0.25518046483E+03  0.28186493290E+03  0.10193771462E+03 0.  0.
         13    1    3    3    0    0 -0.34320613910E+02 -0.19730782760E+02  0.73055926397E+02  0.83092579147E+02  0.00000000000E+00 0. -1.
        -14    1    3    3    0    0  0.37874295572E+02 -0.45103524877E+02  0.49842722103E+02  0.77156251646E+02  0.00000000000E+00 0.  1.
        -11    1    4    4    0    0  0.91309908821E+01 -0.81917605297E+02  0.12744824212E+03  0.15177919314E+03  0.00000000000E+00 0. -1.
         11    1    4    4    0    0 -0.15128793706E+02  0.19439613433E+02  0.12773222272E+03  0.13008573976E+03  0.00000000000E+00 0.  1.
          2    1    1    2  501    0  0.24441211632E+01  0.12731229950E+03  0.19562072808E+03  0.23341350558E+03  0.00000000000E+00 0. -1.
<scales pt_clust_5="13000.00000" pt_clust_6="13000.00000" pt_clust_7="13000.00000" pt_clust_8="13000.00000" pt_clust_9="98.60163"></scales>
<clustering>
<clus scale="   79.746">  5  6 -1 -1</clus>
<clus scale="  101.938">  7  8 -1 -1</clus>
<clus scale="  102.838">  1  5  2 -1</clus>
<clus scale="   98.602">  2  9  1 -1</clus>
<clus scale="   98.602">  2  5  1 -1</clus>
</clustering>
</event>
<event>
 9    1  0.8429841E-005  0.2084917E+03  0.7546771E-02  0.1143575E+00
         21   -1    0    0  501  502  0.00000000000E+00  0.00000000000E+00  0.10781248738E+03  0.10781248738E+03  0.00000000000E+00 0. -1.
          3   -1    0    0  502    0 -0.00000000000E+00 -0.00000000000E+00 -0.47563872669E+03  0.47563872669E+03  0.00000000000E+00 0. -1.
        -24    2    1    2    0    0  0.41067333046E+02  0.17104037767E+03 -0.15913374578E+03  0.25038080263E+03  0.80160218586E+02 0.  0.
         23    2    1    2    0    0 -0.31386146042E+02 -0.20146103159E+03 -0.15797994284E+03  0.27314625633E+03  0.89886470596E+02 0.  0.
         11    1    3    3    0    0  0.41987652239E+02  0.35959379027E+02 -0.27408158808E+02  0.61702893367E+02  0.00000000000E+00 0. -1.
        -12    1    3    3    0    0 -0.92031919285E+00  0.13508099864E+03 -0.13172558697E+03  0.18867790926E+03  0.00000000000E+00 0.  1.
        -13    1    4    4    0    0 -0.46808048543E+02 -0.45058657034E+02 -0.56211848075E+02  0.85913024892E+02  0.00000000000E+00 0.  1.
         13    1    4    4    0    0  0.15421902501E+02 -0.15640237456E+03 -0.10176809476E+03  0.18723323144E+03  0.00000000000E+00 0. -1.
          4    1    1    2  501    0 -0.96811870045E+01  0.30420653922E+02 -0.50712550691E+02  0.59924155100E+02  0.00000000000E+00 0. -1.
<scales pt_clust_5="13000.00000" pt_clust_6="13000.00000" pt_clust_7="13000.00000" pt_clust_8="13000.00000" pt_clust_9="31.92401"></scales>
<clustering>
<clus scale="   31.924">  1  9  2 -1</clus>
<clus scale="   80.160">  5  6 -1 -1</clus>
<clus scale="   89.886">  7  8 -1 -1</clus>
<clus scale="  204.487">  2  5  1 -1</clus>
<clus scale="   31.924">  1  5  2 -1</clus>
</clustering>
</event>
<event>
 9    1  0.8429841E-005  0.1128365E+03  0.7546771E-02  0.1267597E+00
         21   -1    0    0  501  502  0.00000000000E+00  0.00000000000E+00  0.14503465423E+03  0.14503465423E+03  0.00000000000E+00 0. -1.
         -4   -1    0    0    0  501 -0.00000000000E+00 -0.00000000000E+00 -0.30611734744E+03  0.30611734744E+03  0.00000000000E+00 0.  1.
         23    2    1    2    0    0  0.19945000732E+02  0.30522514291E+02 -0.25251410092E+03  0.27611824237E+03  0.10558638963E+03 0.  0.
        -24    2    1    2    0    0 -0.61192981611E+02 -0.34747498100E+02  0.53532755248E+02  0.11885943889E+03  0.79434505766E+02 0.  0.
         11    1    4    4    0    0 -0.49839603732E+02  0.16483194625E+02  0.35510007612E+02  0.63376986721E+02  0.00000000000E+00 0. -1.
        -12    1    4    4    0    0 -0.11353377879E+02 -0.51230692726E+02  0.18022747636E+02  0.55482452170E+02  0.00000000000E+00 0.  1.
        -13    1    3    3    0    0  0.47714154409E+02  0.61702550303E+00 -0.21647848520E+03  0.22167533874E+03  0.00000000000E+00 0.  1.
         13    1    3    3    0    0 -0.27769153677E+02  0.29905488788E+02 -0.36035615725E+02  0.54442903635E+02  0.00000000000E+00 0. -1.
         -3    1    1    2    0  502  0.41247980878E+02  0.42249838094E+01  0.37898652461E+02  0.56174320406E+02  0.00000000000E+00 0.  1.
<scales pt_clust_5="13000.00000" pt_clust_6="13000.00000" pt_clust_7="13000.00000" pt_clust_8="13000.00000" pt_clust_9="41.46380"></scales>
<clustering>
<clus scale="   41.464">  1  9  2 -1</clus>
<clus scale="   79.435">  5  6 -1 -1</clus>
<clus scale="   88.845">  1  5  2 -1</clus>
<clus scale="  105.586">  7  8 -1 -1</clus>
<clus scale="   41.464">  1  5  2 -1</clus>
</clustering>
</event>
<event>
 9    1  0.1209858E-004  0.1089370E+03  0.7546771E-02  0.1265801E+00
         21   -1    0    0  501  502  0.00000000000E+00  0.00000000000E+00  0.30405143152E+03  0.30405143152E+03  0.00000000000E+00 0. -1.
         -4   -1    0    0    0  501 -0.00000000000E+00 -0.00000000000E+00 -0.15724381723E+03  0.15724381723E+03  0.00000000000E+00 0.  1.
        -24    2    1    2    0    0 -0.18191278107E+02  0.58168942015E+02 -0.82471493094E+02  0.13205886795E+03  0.83207265404E+02 0.  0.
         23    2    1    2    0    0  0.50240560917E+02 -0.28032203925E+02  0.25596172809E+03  0.27778405569E+03  0.91310771146E+02 0.  0.
         13    1    3    3    0    0 -0.89489595252E+01 -0.20005842363E+02 -0.31150945350E+02  0.38088042762E+02  0.00000000000E+00 0. -1.
        -14    1    3    3    0    0 -0.92423185819E+01  0.78174784378E+02 -0.51320547744E+02  0.93970825185E+02  0.00000000000E+00 0.  1.
        -11    1    4    4    0    0 -0.19739892621E+02  0.90138040917E+01  0.22497655866E+02  0.31257903711E+02  0.00000000000E+00 0.  1.
         11    1    4    4    0    0  0.69980453538E+02 -0.37046008017E+02  0.23346407223E+03  0.24652615198E+03  0.00000000000E+00 0. -1.
         -3    1    1    2    0  502 -0.32049282810E+02 -0.30136738090E+02 -0.26682620716E+02  0.51452325114E+02  0.00000000000E+00 0.  1.
<scales pt_clust_5="13000.00000" pt_clust_6="13000.00000" pt_clust_7="13000.00000" pt_clust_8="13000.00000" pt_clust_9="43.99297"></scales>
<clustering>
<clus scale="   43.993">  1  9  2 -1</clus>
<clus scale="   83.207">  5  6 -1 -1</clus>
<clus scale="   91.311">  7  8 -1 -1</clus>
<clus scale="  102.240">  2  5  1 -1</clus>
<clus scale="   43.993">  1  5  2 -1</clus>
</clustering>
</event>
<event>
 9    1  0.8429841E-005  0.1620390E+03  0.7546771E-02  0.1187733E+00
         -4   -1    0    0    0  501 -0.00000000000E+00  0.00000000000E+00  0.32123075310E+03  0.32123075310E+03  0.00000000000E+00 0.  1.
         21   -1    0    0  501  502  0.00000000000E+00 -0.00000000000E+00 -0.21580654987E+03  0.21580654987E+03  0.00000000000E+00 0. -1.
         23    2    1    2    0    0  0.15047188227E+03 -0.52427906223E+02  0.18048543403E+02  0.18360557770E+03  0.89413564630E+02 0.  0.
        -24    2    1    2    0    0 -0.68742568657E+02  0.88106269602E+02 -0.83187196747E+02  0.16096272942E+03  0.80626515921E+02 0.  0.
         11    1    4    4    0    0 -0.20430139841E+02  0.41792247328E+02 -0.81705909326E+02  0.94020413578E+02  0.00000000000E+00 0. -1.
        -12    1    4    4    0    0 -0.48312428816E+02  0.46314022274E+02 -0.14812874216E+01  0.66942315838E+02  0.00000000000E+00 0.  1.
        -13    1    3    3    0    0  0.71148731959E+02  0.12329040128E+02  0.34271293394E+02  0.79929148881E+02  0.00000000000E+00 0. -1.
         13    1    3    3    0    0  0.79323150313E+02 -0.64756946352E+02 -0.16222749992E+02  0.10367642882E+03  0.00000000000E+00 0.  1.
         -3    1    1    2    0  502 -0.81729313616E+02 -0.35678363379E+02  0.17056285658E+03  0.19246899584E+03  0.00000000000E+00 0.  1.
<scales pt_clust_5="13000.00000" pt_clust_6="13000.00000" pt_clust_7="13000.00000" pt_clust_8="13000.00000" pt_clust_9="89.17754"></scales>
<clustering>
<clus scale="   80.627">  5  6 -1 -1</clus>
<clus scale="   89.178">  2  9  1 -1</clus>
<clus scale="   89.414">  7  8 -1 -1</clus>
<clus scale="  157.361">  2  5  1 -1</clus>
<clus scale="   89.178">  2  5  1 -1</clus>
</clustering>
</event>
<event>
 9    1  0.8429841E-005  0.2075095E+03  0.7546771E-02  0.1176529E+00
         21   -1    0    0  501  502  0.00000000000E+00  0.00000000000E+00  0.22813510946E+03  0.22813510946E+03  0.00000000000E+00 0.  1.
         -2   -1    0    0    0  501 -0.00000000000E+00 -0.00000000000E+00 -0.36154231970E+03  0.36154231970E+03  0.00000000000E+00 0.  1.
         23    2    1    2    0    0  0.62887349314E+01  0.21080863196E+02 -0.64840032374E+02  0.11609290939E+03  0.93751708428E+02 0.  0.
        -24    2    1    2    0    0 -0.19067048889E+03  0.27586021306E+02  0.88804911013E+02  0.22633753555E+03  0.78905917869E+02 0.  0.
         13    1    4    4    0    0 -0.75018133883E+02  0.44963126124E+02  0.16984753476E+02  0.89094808899E+02  0.00000000000E+00 0. -1.
        -14    1    4    4    0    0 -0.11565235501E+03 -0.17377104818E+02  0.71820157537E+02  0.13724272665E+03  0.00000000000E+00 0.  1.
        -11    1    3    3    0    0  0.16787486785E+01  0.41055694963E+02  0.67365358598E+01  0.41638554266E+02  0.00000000000E+00 0.  1.
         11    1    3    3    0    0  0.46099862530E+01 -0.19974831767E+02 -0.71576568233E+02  0.74454355127E+02  0.00000000000E+00 0. -1.
         -1    1    1    2    0  502  0.18438175396E+03 -0.48666884501E+02 -0.15737208889E+03  0.24724698421E+03  0.00000000000E+00 0.  1.
<scales pt_clust_5="13000.00000" pt_clust_6="13000.00000" pt_clust_7="13000.00000" pt_clust_8="13000.00000" pt_clust_9="191.92210"></scales>
<clustering>
<clus scale="   78.906">  5  6 -1 -1</clus>
<clus scale="   93.752">  7  8 -1 -1</clus>
<clus scale="   96.298">  2  7  1 -1</clus>
<clus scale="  191.922">  1  9  2 -1</clus>
<clus scale="  191.922">  1  5  2 -1</clus>
</clustering>
</event>
<event>
 9    1  0.1006007E-004  0.9895452E+02  0.7546771E-02  0.1288951E+00
          1   -1    0    0  502    0 -0.00000000000E+00  0.00000000000E+00  0.35584454291E+03  0.35584454291E+03  0.00000000000E+00 0. -1.
         21   -1    0    0  501  502  0.00000000000E+00 -0.00000000000E+00 -0.12981288131E+03  0.12981288131E+03  0.00000000000E+00 0.  1.
         23    2    1    2    0    0 -0.23334452722E+02 -0.32035291853E+02  0.31433540651E+03  0.32986139370E+03  0.91820665738E+02 0.  0.
        -24    2    1    2    0    0 -0.75340022941E+01  0.24671362622E+02 -0.28870350338E+02  0.88420832115E+02  0.79494082163E+02 0.  0.
         13    1    4    4    0    0 -0.38726172004E+02 -0.51232427242E+01 -0.57642980975E+01  0.39486594518E+02  0.00000000000E+00 0. -1.
        -14    1    4    4    0    0  0.31192169710E+02  0.29794605346E+02 -0.23106052241E+02  0.48934237596E+02  0.00000000000E+00 0.  1.
        -13    1    3    3    0    0 -0.69895245565E+01  0.32469460223E+02  0.11596007003E+03  0.12062278865E+03  0.00000000000E+00 0. -1.
         13    1    3    3    0    0 -0.16344928166E+02 -0.64504752075E+02  0.19837533649E+03  0.20923860505E+03  0.00000000000E+00 0.  1.
          2    1    1    2  501    0  0.30868455017E+02  0.73639292306E+01 -0.59433394583E+02  0.67375198408E+02  0.00000000000E+00 0. -1.
<scales pt_clust_5="13000.00000" pt_clust_6="13000.00000" pt_clust_7="13000.00000" pt_clust_8="13000.00000" pt_clust_9="31.73467"></scales>
<clustering>
<clus scale="   31.735">  2  9  1 -1</clus>
<clus scale="   79.494">  5  6 -1 -1</clus>
<clus scale="   87.637">  2  5  1 -1</clus>
<clus scale="   91.821">  7  8 -1 -1</clus>
<clus scale="   31.735">  2  5  1 -1</clus>
</clustering>
</event>
<event>
 9    1  0.8429841E-005  0.9165020E+02  0.7546771E-02  0.1307086E+00
         -2   -1    0    0    0  501 -0.00000000000E+00  0.00000000000E+00  0.40061112244E+03  0.40061112244E+03  0.00000000000E+00 0.  1.
         21   -1    0    0  501  502  0.00000000000E+00 -0.00000000000E+00 -0.35177530105E+02  0.35177530105E+02  0.00000000000E+00 0.  1.
        -24    2    1    2    0    0 -0.31838059710E+01  0.13835198678E+02  0.21801315897E+03  0.23210668481E+03  0.78372356785E+02 0.  0.
         23    2    1    2    0    0 -0.27474141033E+02  0.11317527054E+02  0.77624524943E+02  0.12340720109E+03  0.91218723763E+02 0.  0.
         13    1    3    3    0    0 -0.34884132187E+02 -0.13864064289E+02  0.10070635362E+03  0.10747504183E+03  0.00000000000E+00 0. -1.
        -14    1    3    3    0    0  0.31700326216E+02  0.27699262967E+02  0.11730680535E+03  0.12463164298E+03  0.00000000000E+00 0.  1.
        -13    1    4    4    0    0  0.21090211542E+02 -0.24451193940E+02  0.43283559103E+02  0.54001151808E+02  0.00000000000E+00 0. -1.
         13    1    4    4    0    0 -0.48564352576E+02  0.35768720993E+02  0.34340965839E+02  0.69406049285E+02  0.00000000000E+00 0.  1.
         -1    1    1    2    0  502  0.30657947004E+02 -0.25152725731E+02  0.69795908426E+02  0.80274766641E+02  0.00000000000E+00 0.  1.
<scales pt_clust_5="13000.00000" pt_clust_6="13000.00000" pt_clust_7="13000.00000" pt_clust_8="13000.00000" pt_clust_9="39.65565"></scales>
<clustering>
<clus scale="   39.656">  2  9  1 -1</clus>
<clus scale="   78.372">  5  6 -1 -1</clus>
<clus scale="   78.874">  1  5  2 -1</clus>
<clus scale="   91.219">  7  8 -1 -1</clus>
<clus scale="   39.656">  2  5  1 -1</clus>
</clustering>
</event>
<event>
 9    1  0.8429841E-005  0.1054808E+03  0.7546771E-02  0.1273519E+00
         21   -1    0    0  501  502  0.00000000000E+00  0.00000000000E+00  0.15036897912E+03  0.15036897912E+03  0.00000000000E+00 0.  1.
          1   -1    0    0  502    0 -0.00000000000E+00 -0.00000000000E+00 -0.14124602735E+03  0.14124602735E+03  0.00000000000E+00 0. -1.
        -24    2    1    2    0    0 -0.27566016761E-01 -0.57639322165E+02 -0.90774404143E+02  0.13423500544E+03  0.80353917259E+02 0.  0.
         23    2    1    2    0    0  0.11907276017E+02  0.38332229084E+02  0.80117175048E+02  0.12729434152E+03  0.90409870245E+02 0.  0.
         13    1    3    3    0    0 -0.16178544763E+02 -0.64352957191E+02 -0.95339833182E+02  0.11615822055E+03  0.00000000000E+00 0. -1.
        -14    1    3    3    0    0  0.16150978747E+02  0.67136350263E+01  0.45654290394E+01  0.18076784893E+02  0.00000000000E+00 0.  1.
        -13    1    4    4    0    0 -0.18928137921E+02  0.58415933925E+02  0.57347201560E+02  0.84020219401E+02  0.00000000000E+00 0. -1.
         13    1    4    4    0    0  0.30835413937E+02 -0.20083704841E+02  0.22769973488E+02  0.43274122122E+02  0.00000000000E+00 0.  1.
          2    1    1    2  501    0 -0.11879710000E+02  0.19307093080E+02  0.19780180867E+02  0.30085659508E+02  0.00000000000E+00 0. -1.
<scales pt_clust_5="13000.00000" pt_clust_6="13000.00000" pt_clust_7="13000.00000" pt_clust_8="13000.00000" pt_clust_9="22.66917"></scales>
<clustering>
<clus scale="   22.669">  1  9  2 -1</clus>
<clus scale="   80.354">  5  6 -1 -1</clus>
<clus scale="   90.410">  7  8 -1 -1</clus>
<clus scale="   97.000">  2  5  1 -1</clus>
<clus scale="   22.669">  1  5  2 -1</clus>
</clustering>
</event>
<event>
 9    1  0.8429841E-005  0.1049874E+03  0.7546771E-02  0.1275899E+00
         21   -1    0    0  501  502  0.00000000000E+00  0.00000000000E+00  0.26119195967E+03  0.26119195967E+03  0.00000000000E+00 0.  1.
         -4   -1    0    0    0  501 -0.00000000000E+00 -0.00000000000E+00 -0.82550328921E+02  0.82550328921E+02  0.00000000000E+00 0.  1.
         23    2    1    2    0    0 -0.50531781449E+02 -0.61208298487E+02  0.93019783231E+02  0.15358848130E+03  0.92934518748E+02 0.  0.
        -24    2    1    2    0    0  0.15682321838E+02  0.13545519015E+02  0.99475639591E+02  0.12950602961E+03  0.80293166152E+02 0.  0.
         11    1    4    4    0    0  0.29641630005E+02  0.47153507122E+01  0.13976557471E+01  0.30046866780E+02  0.00000000000E+00 0. -1.
        -12    1    4    4    0    0 -0.13959308167E+02  0.88301683026E+01  0.98077983844E+02  0.99459162834E+02  0.00000000000E+00 0.  1.
        -11    1    3    3    0    0 -0.56135533377E+02 -0.80663275596E+02  0.60879764977E+02  0.11560323491E+03  0.00000000000E+00 0. -1.
         11    1    3    3    0    0  0.56037519283E+01  0.19454977109E+02  0.32140018254E+02  0.37985246390E+02  0.00000000000E+00 0.  1.
         -3    1    1    2    0  502  0.34849459611E+02  0.47662779472E+02 -0.13853792076E+02  0.60647777676E+02  0.00000000000E+00 0.  1.
<scales pt_clust_5="13000.00000" pt_clust_6="13000.00000" pt_clust_7="13000.00000" pt_clust_8="13000.00000" pt_clust_9="59.04430"></scales>
<clustering>
<clus scale="   59.044">  1  9  2 -1</clus>
<clus scale="   80.293">  5  6 -1 -1</clus>
<clus scale="   92.935">  7  8 -1 -1</clus>
<clus scale="   93.981">  1  5  2 -1</clus>
<clus scale="   59.044">  1  5  2 -1</clus>
</clustering>
</event>
<event>
 9    1  0.8429841E-005  0.1052072E+03  0.7546771E-02  0.1273474E+00
          1   -1    0    0  502    0 -0.00000000000E+00  0.00000000000E+00  0.27852514563E+03  0.27852514563E+03  0.00000000000E+00 0. -1.
         21   -1    0    0  501  502  0.00000000000E+00 -0.00000000000E+00 -0.68707923852E+02  0.68707923852E+02  0.00000000000E+00 0. -1.
         23    2    1    2    0    0 -0.22527649545E+02  0.36060439972E+02  0.11317782184E+03  0.14993181582E+03  0.88670624868E+02 0.  0.
        -24    2    1    2    0    0  0.74199937673E+02 -0.39468104496E+02  0.86304528238E+02  0.14449550482E+03  0.79794218433E+02 0.  0.
         13    1    4    4    0    0  0.52095363886E+02 -0.59040626680E+02  0.36934043410E+02  0.86970374840E+02  0.00000000000E+00 0. -1.
        -14    1    4    4    0    0  0.22104573786E+02  0.19572522184E+02  0.49370484828E+02  0.57525129979E+02  0.00000000000E+00 0.  1.
        -11    1    3    3    0    0 -0.13657627455E+02 -0.26354095203E+02  0.61973467668E+02  0.68715208044E+02  0.00000000000E+00 0.  1.
         11    1    3    3    0    0 -0.88700220908E+01  0.62414535174E+02  0.51204354169E+02  0.81216607777E+02  0.00000000000E+00 0. -1.
          2    1    1    2  501    0 -0.51672288127E+02  0.34076645248E+01  0.10334871705E+02  0.52805748844E+02  0.00000000000E+00 0. -1.
<scales pt_clust_5="13000.00000" pt_clust_6="13000.00000" pt_clust_7="13000.00000" pt_clust_8="13000.00000" pt_clust_9="51.78453"></scales>
<clustering>
<clus scale="   51.785">  2  9  1 -1</clus>
<clus scale="   79.794">  5  6 -1 -1</clus>
<clus scale="   88.671">  7  8 -1 -1</clus>
<clus scale="   97.843">  2  5  1 -1</clus>
<clus scale="   51.785">  2  5  1 -1</clus>
</clustering>
</event>
<event>
 9    1  0.8429841E-005  0.1473997E+03  0.7546771E-02  0.1224792E+00
         21   -1    0    0  501  502  0.00000000000E+00  0.00000000000E+00  0.48298635402E+02  0.48298635402E+02  0.00000000000E+00 0. -1.
          1   -1    0    0  502    0 -0.00000000000E+00 -0.00000000000E+00 -0.66914685991E+03  0.66914685991E+03  0.00000000000E+00 0. -1.
        -24    2    1    2    0    0 -0.39075820721E+01  0.49203256142E+02 -0.18020322430E+03  0.20336696374E+03  0.80303737649E+02 0.  0.
         23    2    1    2    0    0 -0.10256787514E+03 -0.67052240364E+02 -0.23309867578E+03  0.28013177264E+03  0.95512540782E+02 0.  0.
         11    1    3    3    0    0  0.10906671276E+02  0.43124259282E+02 -0.33229469262E+02  0.55523462108E+02  0.00000000000E+00 0. -1.
        -12    1    3    3    0    0 -0.14814253348E+02  0.60789968593E+01 -0.14697375504E+03  0.14784350164E+03  0.00000000000E+00 0.  1.
        -11    1    4    4    0    0  0.94592226967E+01 -0.33911028559E+02 -0.81195092106E+02  0.88499026741E+02  0.00000000000E+00 0.  1.
         11    1    4    4    0    0 -0.11202709784E+03 -0.33141211805E+02 -0.15190358367E+03  0.19163274590E+03  0.00000000000E+00 0. -1.
          2    1    1    2  501    0  0.10647545722E+03  0.17848984222E+02 -0.20754632443E+03  0.23394675892E+03  0.00000000000E+00 0. -1.
<scales pt_clust_5="13000.00000" pt_clust_6="13000.00000" pt_clust_7="13000.00000" pt_clust_8="13000.00000" pt_clust_9="112.26767"></scales>
<clustering>
<clus scale="   80.304">  5  6 -1 -1</clus>
<clus scale="   94.260">  2  5  1 -1</clus>
<clus scale="   95.513">  7  8 -1 -1</clus>
<clus scale="  112.268">  1  9  2 -1</clus>
<clus scale="  112.268">  1  5  2 -1</clus>
</clustering>
</event>
<event>
 9    1  0.8429841E-005  0.1225239E+03  0.7546771E-02  0.1248312E+00
         21   -1    0    0  501  502  0.00000000000E+00  0.00000000000E+00  0.80752023374E+02  0.80752023374E+02  0.00000000000E+00 0. -1.
          1   -1    0    0  502    0 -0.00000000000E+00 -0.00000000000E+00 -0.34865600042E+03  0.34865600042E+03  0.00000000000E+00 0. -1.
         23    2    1    2    0    0 -0.34502961003E+02  0.29140347928E+02 -0.31285386467E+02  0.10621792408E+03  0.90905763263E+02 0.  0.
        -24    2    1    2    0    0 -0.46456835308E+02  0.42482526093E+02 -0.16143231578E+03  0.19151891600E+03  0.81584925314E+02 0.  0.
         13    1    4    4    0    0 -0.69297674101E+02  0.27426673248E+02 -0.13001073283E+03  0.14985720100E+03  0.00000000000E+00 0. -1.
        -14    1    4    4    0    0  0.22840838793E+02  0.15055852845E+02 -0.31421582955E+02  0.41661715004E+02  0.00000000000E+00 0.  1.
        -13    1    3    3    0    0 -0.16878747977E+02  0.45843444617E+02  0.17363416496E+02  0.51845942754E+02  0.00000000000E+00 0. -1.
         13    1    3    3    0    0 -0.17624213026E+02 -0.16703096689E+02 -0.48648802963E+02  0.54371981328E+02  0.00000000000E+00 0.  1.
          2    1    1    2  501    0  0.80959796311E+02 -0.71622874021E+02 -0.75186274798E+02  0.13167118371E+03  0.00000000000E+00 0. -1.
<scales pt_clust_5="13000.00000" pt_clust_6="13000.00000" pt_clust_7="13000.00000" pt_clust_8="13000.00000" pt_clust_9="91.41120"></scales>
<clustering>
<clus scale="   81.585">  5  6 -1 -1</clus>
<clus scale="   90.906">  7  8 -1 -1</clus>
<clus scale="  101.506">  2  7  1 -1</clus>
<clus scale="   91.411">  1  9  2 -1</clus>
<clus scale="   91.411">  1  5  2 -1</clus>
</clustering>
</event>
<event>
 9    1  0.8429841E-005  0.1203360E+03  0.7546771E-02  0.1245412E+00
         21   -1    0    0  501  502  0.00000000000E+00  0.00000000000E+00  0.64892472939E+02  0.64892472939E+02  0.00000000000E+00 0. -1.
          1   -1    0    0  502    0 -0.00000000000E+00 -0.00000000000E+00 -0.51472476200E+03  0.51472476200E+03  0.00000000000E+00 0. -1.
        -24    2    1    2    0    0  0.80971088390E+02 -0.16896962230E+02 -0.26686195464E+03  0.29106601547E+03  0.81622901439E+02 0.  0.
         23    2    1    2    0    0 -0.40862106589E+02  0.87103068572E+02 -0.70127805671E+02  0.14973096128E+03  0.90800855326E+02 0.  0.
         11    1    3    3    0    0  0.58552465379E+02 -0.44621599757E+02 -0.12761113283E+03  0.14732304500E+03  0.00000000000E+00 0. -1.
        -12    1    3    3    0    0  0.22418623011E+02  0.27724637527E+02 -0.13925082181E+03  0.14374297047E+03  0.00000000000E+00 0.  1.
        -13    1    4    4    0    0 -0.15557268241E+02  0.54747399551E+02 -0.88108209482E+02  0.10489214904E+03  0.00000000000E+00 0. -1.
         13    1    4    4    0    0 -0.25304838347E+02  0.32355669021E+02  0.17980403811E+02  0.44838812236E+02  0.00000000000E+00 0.  1.
          2    1    1    2  501    0 -0.40108981801E+02 -0.70206106342E+02 -0.11284252874E+03  0.13882025818E+03  0.00000000000E+00 0. -1.
<scales pt_clust_5="13000.00000" pt_clust_6="13000.00000" pt_clust_7="13000.00000" pt_clust_8="13000.00000" pt_clust_9="80.85564"></scales>
<clustering>
<clus scale="   80.856">  1  9  2 -1</clus>
<clus scale="   81.623">  5  6 -1 -1</clus>
<clus scale="   90.801">  7  8 -1 -1</clus>
<clus scale="  113.570">  2  5  1 -1</clus>
<clus scale="   80.856">  1  5  2 -1</clus>
</clustering>
</event>
<event>
 9    1  0.8429841E-005  0.1015370E+03  0.7546771E-02  0.1283266E+00
          1   -1    0    0  502    0 -0.00000000000E+00  0.00000000000E+00  0.90381154158E+03  0.90381154158E+03  0.00000000000E+00 0. -1.
         21   -1    0    0  501  502  0.00000000000E+00 -0.00000000000E+00 -0.18010593248E+02  0.18010593248E+02  0.00000000000E+00 0. -1.
         23    2    1    2    0    0 -0.69553832347E+02  0.19901554453E+02  0.58597750026E+03  0.59654462915E+03  0.85217699479E+02 0.  0.
        -24    2    1    2    0    0  0.30074439062E+02  0.69605474320E+01  0.17068190316E+03  0.18759041973E+03  0.71448809669E+02 0.  0.
         13    1    4    4    0    0  0.50983341454E+02  0.14479335421E+02  0.95822284067E+02  0.10950279624E+03  0.00000000000E+00 0. -1.
        -14    1    4    4    0    0 -0.20908902392E+02 -0.75187879894E+01  0.74859619094E+02  0.78087623494E+02  0.00000000000E+00 0.  1.
        -11    1    3    3    0    0 -0.67387729997E+02 -0.21101549805E+02  0.38314946565E+03  0.38960222610E+03  0.00000000000E+00 0. -1.
         11    1    3    3    0    0 -0.21661023508E+01  0.41003104258E+02  0.20282803461E+03  0.20694240305E+03  0.00000000000E+00 0.  1.
          2    1    1    2  501    0  0.39479393286E+02 -0.26862101885E+02  0.12914154491E+03  0.13768708594E+03  0.00000000000E+00 0. -1.
<scales pt_clust_5="13000.00000" pt_clust_6="13000.00000" pt_clust_7="13000.00000" pt_clust_8="13000.00000" pt_clust_9="47.75139"></scales>
<clustering>
<clus scale="   47.751">  2  9  1 -1</clus>
<clus scale="   71.449">  5  6 -1 -1</clus>
<clus scale="   85.218">  7  8 -1 -1</clus>
<clus scale="   90.292">  2  5  1 -1</clus>
<clus scale="   47.751">  2  5  1 -1</clus>
</clustering>
</event>
<event>
 9    1  0.8429841E-005  0.1895234E+03  0.7546771E-02  0.1160301E+00
          1   -1    0    0  502    0 -0.00000000000E+00  0.00000000000E+00  0.16332250778E+04  0.16332250778E+04  0.00000000000E+00 0. -1.
         21   -1    0    0  501  502  0.00000000000E+00 -0.00000000000E+00 -0.67536460124E+02  0.67536460124E+02  0.00000000000E+00 0. -1.
        -24    2    1    2    0    0 -0.39454327975E+02  0.17211687006E+03  0.88677682934E+03  0.90776133150E+03  0.80477505861E+02 0.  0.
         23    2    1    2    0    0 -0.68205015474E+02 -0.15472309907E+03  0.65287554698E+03  0.68087989890E+03  0.93593778440E+02 0.  0.
         13    1    3    3    0    0 -0.31497549464E+02  0.91367223601E+02  0.29449592138E+03  0.30994824226E+03  0.00000000000E+00 0. -1.
        -14    1    3    3    0    0 -0.79567785111E+01  0.80749646459E+02  0.59228090796E+03  0.59781308923E+03  0.00000000000E+00 0.  1.
        -11    1    4    4    0    0 -0.90391155495E+02 -0.13629400397E+03  0.57617122606E+03  0.59893229855E+03  0.00000000000E+00 0. -1.
         11    1    4    4    0    0  0.22186140021E+02 -0.18429095097E+02  0.76704320922E+02  0.81947600351E+02  0.00000000000E+00 0.  1.
          2    1    1    2  501    0  0.10765934345E+03 -0.17393770991E+02  0.26036241386E+02  0.11212030756E+03  0.00000000000E+00 0. -1.
<scales pt_clust_5="13000.00000" pt_clust_6="13000.00000" pt_clust_7="13000.00000" pt_clust_8="13000.00000" pt_clust_9="109.05539"></scales>
<clustering>
<clus scale="   80.478">  5  6 -1 -1</clus>
<clus scale="   93.594">  7  8 -1 -1</clus>
<clus scale="  109.055">  2  9  1 -1</clus>
<clus scale="  183.401">  1  5  2 -1</clus>
<clus scale="  109.055">  2  5  1 -1</clus>
</clustering>
</event>
<event>
 9    1  0.8429841E-005  0.1009902E+03  0.7546771E-02  0.1289171E+00
         21   -1    0    0  501  502  0.00000000000E+00  0.00000000000E+00  0.14096718876E+03  0.14096718876E+03  0.00000000000E+00 0. -1.
          1   -1    0    0  502    0 -0.00000000000E+00 -0.00000000000E+00 -0.39852206566E+03  0.39852206566E+03  0.00000000000E+00 0. -1.
        -24    2    1    2    0    0  0.81152832951E+01  0.19010551889E+02 -0.22393008208E+03  0.23865938984E+03  0.79914728252E+02 0.  0.
         23    2    1    2    0    0 -0.32884904225E+02  0.31264741818E+02  0.10492759478E+03  0.15137116144E+03  0.99219591630E+02 0.  0.
         13    1    3    3    0    0  0.33776580074E+01  0.50524525835E+02 -0.14099591263E+03  0.14981316252E+03  0.00000000000E+00 0. -1.
        -14    1    3    3    0    0  0.47376252876E+01 -0.31513973945E+02 -0.82934169449E+02  0.88846227322E+02  0.00000000000E+00 0.  1.
        -13    1    4    4    0    0 -0.63397360503E+02 -0.56141541661E+00  0.48849852571E+02  0.80036545416E+02  0.00000000000E+00 0.  1.
         13    1    4    4    0    0  0.30512456277E+02  0.31826157234E+02  0.56077742208E+02  0.71334616025E+02  0.00000000000E+00 0. -1.
          2    1    1    2  501    0  0.24769620930E+02 -0.50275293707E+02 -0.13855238960E+03  0.14945870313E+03  0.00000000000E+00 0. -1.
<scales pt_clust_5="13000.00000" pt_clust_6="13000.00000" pt_clust_7="13000.00000" pt_clust_8="13000.00000" pt_clust_9="56.04590"></scales>
<clustering>
<clus scale="   56.046">  1  9  2 -1</clus>
<clus scale="   79.915">  5  6 -1 -1</clus>
<clus scale="   82.103">  2  5  1 -1</clus>
<clus scale="   99.220">  7  8 -1 -1</clus>
<clus scale="   56.046">  1  5  2 -1</clus>
</clustering>
</event>
<event>
 9    1  0.8429841E-005  0.9224814E+02  0.7546771E-02  0.1302619E+00
          3   -1    0    0  502    0 -0.00000000000E+00  0.00000000000E+00  0.19983232651E+03  0.19983232651E+03  0.00000000000E+00 0. -1.
         21   -1    0    0  501  502  0.00000000000E+00 -0.00000000000E+00 -0.17236068855E+03  0.17236068855E+03  0.00000000000E+00 0. -1.
        -24    2    1    2    0    0  0.17108507220E+02 -0.13892778152E+02  0.13374082254E+03  0.15859335816E+03  0.82337933756E+02 0.  0.
         23    2    1    2    0    0 -0.68041871161E+01 -0.16016917574E+02  0.10108473840E+02  0.92998959179E+02  0.90795300286E+02 0.  0.
         13    1    3    3    0    0  0.95675077343E+01 -0.47757762345E+02  0.61482755566E+02  0.78437684186E+02  0.00000000000E+00 0. -1.
        -14    1    3    3    0    0  0.75409994852E+01  0.33864984193E+02  0.72258066974E+02  0.80155673976E+02  0.00000000000E+00 0.  1.
        -13    1    4    4    0    0 -0.32422372888E+02 -0.27180394558E+02  0.35509373636E+02  0.55234950241E+02  0.00000000000E+00 0. -1.
         13    1    4    4    0    0  0.25618185772E+02  0.11163476985E+02 -0.25400899796E+02  0.37764008938E+02  0.00000000000E+00 0.  1.
          4    1    1    2  501    0 -0.10304320103E+02  0.29909695725E+02 -0.11637765842E+03  0.12060069772E+03  0.00000000000E+00 0. -1.
<scales pt_clust_5="13000.00000" pt_clust_6="13000.00000" pt_clust_7="13000.00000" pt_clust_8="13000.00000" pt_clust_9="31.63493"></scales>
<clustering>
<clus scale="   31.635">  2  9  1 -1</clus>
<clus scale="   82.338">  5  6 -1 -1</clus>
<clus scale="   83.937">  1  5  2 -1</clus>
<clus scale="   90.795">  7  8 -1 -1</clus>
<clus scale="   31.635">  2  5  1 -1</clus>
</clustering>
</event>
<event>
 9    1  0.8429841E-005  0.1297471E+03  0.7546771E-02  0.1230974E+00
         21   -1    0    0  501  502  0.00000000000E+00  0.00000000000E+00  0.15681692856E+03  0.15681692856E+03  0.00000000000E+00 0. -1.
          1   -1    0    0  502    0 -0.00000000000E+00 -0.00000000000E+00 -0.27063817646E+03  0.27063817646E+03  0.00000000000E+00 0. -1.
        -24    2    1    2    0    0 -0.10805245118E+03  0.33203142350E+02 -0.16260325699E+03  0.21408250239E+03  0.81324767315E+02 0.  0.
         23    2    1    2    0    0  0.74192097569E+01 -0.44751167122E+02  0.42356148103E+02  0.11187532263E+03  0.93082398440E+02 0.  0.
         13    1    3    3    0    0 -0.86304443975E+02  0.93988189301E+01 -0.15962048983E+03  0.18170166653E+03  0.00000000000E+00 0. -1.
        -14    1    3    3    0    0 -0.21748007209E+02  0.23804323420E+02 -0.29827671568E+01  0.32380835859E+02  0.00000000000E+00 0.  1.
        -13    1    4    4    0    0  0.13266733513E+02  0.16385025317E+02  0.45742147134E+02  0.50366847203E+02  0.00000000000E+00 0.  1.
         13    1    4    4    0    0 -0.58475237559E+01 -0.61136192438E+02 -0.33859990304E+01  0.61508475427E+02  0.00000000000E+00 0. -1.
          2    1    1    2  501    0  0.10063324143E+03  0.11548024771E+02  0.64258609820E+01  0.10149727999E+03  0.00000000000E+00 0. -1.
<scales pt_clust_5="13000.00000" pt_clust_6="13000.00000" pt_clust_7="13000.00000" pt_clust_8="13000.00000" pt_clust_9="101.29366"></scales>
<clustering>
<clus scale="   81.325">  5  6 -1 -1</clus>
<clus scale="   93.082">  7  8 -1 -1</clus>
<clus scale="  101.294">  1  9  2 -1</clus>
<clus scale="  121.588">  2  5  1 -1</clus>
<clus scale="  101.294">  1  5  2 -1</clus>
</clustering>
</event>
<event>
 9    1  0.8429841E-005  0.1119247E+03  0.7546771E-02  0.1260655E+00
         21   -1    0    0  501  502  0.00000000000E+00  0.00000000000E+00  0.20605832959E+03  0.20605832959E+03  0.00000000000E+00 0. -1.
         -4   -1    0    0    0  501 -0.00000000000E+00 -0.00000000000E+00 -0.10413187472E+03  0.10413187472E+03  0.00000000000E+00 0.  1.
         23    2    1    2    0    0 -0.30894530211E+02  0.64559532753E+02 -0.16257098636E+02  0.11583675367E+03  0.89618385266E+02 0.  0.
        -24    2    1    2    0    0  0.53209089094E+02 -0.32566494394E+02  0.11776295294E+03  0.15534484971E+03  0.79825594442E+02 0.  0.
         11    1    4    4    0    0  0.42521275790E+02 -0.53889020013E+02  0.54226611137E+02  0.87479201689E+02  0.00000000000E+00 0. -1.
        -12    1    4    4    0    0  0.10687813305E+02  0.21322525620E+02  0.63536341804E+02  0.67865648025E+02  0.00000000000E+00 0.  1.
        -11    1    3    3    0    0  0.17740794645E+02  0.62649506180E+02 -0.20998299440E+01  0.65146801189E+02  0.00000000000E+00 0.  1.
         11    1    3    3    0    0 -0.48635324857E+02  0.19100265730E+01 -0.14157268692E+02  0.50689952478E+02  0.00000000000E+00 0. -1.
         -3    1    1    2    0  502 -0.22314558883E+02 -0.31993038360E+02  0.42060056254E+00  0.39008600929E+02  0.00000000000E+00 0.  1.
<scales pt_clust_5="13000.00000" pt_clust_6="13000.00000" pt_clust_7="13000.00000" pt_clust_8="13000.00000" pt_clust_9="39.00635"></scales>
<clustering>
<clus scale="   39.006">  1  9  2 -1</clus>
<clus scale="   79.826">  5  6 -1 -1</clus>
<clus scale="   89.618">  7  8 -1 -1</clus>
<clus scale="  104.249">  1  5  2 -1</clus>
<clus scale="   39.006">  1  5  2 -1</clus>
</clustering>
</event>
<event>
 9    1  0.8429841E-005  0.1528159E+03  0.7546771E-02  0.1223415E+00
         21   -1    0    0  501  502  0.00000000000E+00  0.00000000000E+00  0.77153584178E+03  0.77153584178E+03  0.00000000000E+00 0.  1.
         -2   -1    0    0    0  501 -0.00000000000E+00 -0.00000000000E+00 -0.46029009555E+02  0.46029009555E+02  0.00000000000E+00 0.  1.
        -24    2    1    2    0    0 -0.27185659225E+02 -0.28268359184E+02  0.26038733770E+03  0.27455363079E+03  0.77717246163E+02 0.  0.
         23    2    1    2    0    0  0.12681657917E+03  0.62399652691E+02  0.34209096765E+03  0.38106282187E+03  0.90589638781E+02 0.  0.
         11    1    3    3    0    0 -0.33328895851E+01  0.25681668181E+02  0.11009441241E+03  0.11309923022E+03  0.00000000000E+00 0. -1.
        -12    1    3    3    0    0 -0.23852769640E+02 -0.53950027365E+02  0.15029292529E+03  0.16145440057E+03  0.00000000000E+00 0.  1.
        -11    1    4    4    0    0  0.25654096564E+02 -0.23268061737E+02  0.57757194126E+02  0.67345592587E+02  0.00000000000E+00 0. -1.
         11    1    4    4    0    0  0.10116248261E+03  0.85667714428E+02  0.28433377352E+03  0.31371722928E+03  0.00000000000E+00 0.  1.
         -1    1    1    2    0  502 -0.99630919949E+02 -0.34131293507E+02  0.12302852688E+03  0.16194839867E+03  0.00000000000E+00 0.  1.
<scales pt_clust_5="13000.00000" pt_clust_6="13000.00000" pt_clust_7="13000.00000" pt_clust_8="13000.00000" pt_clust_9="123.07000"></scales>
<clustering>
<clus scale="   77.717">  5  6 -1 -1</clus>
<clus scale="   87.053">  2  5  1 -1</clus>
<clus scale="   90.590">  7  8 -1 -1</clus>
<clus scale="  123.070">  1  9  2 -1</clus>
<clus scale="  123.070">  1  5  2 -1</clus>
</clustering>
</event>
<event>
 9    1  0.8429841E-005  0.1880638E+03  0.7546771E-02  0.1161150E+00
         -4   -1    0    0    0  501 -0.00000000000E+00  0.00000000000E+00  0.23703609833E+03  0.23703609833E+03  0.00000000000E+00 0.  1.
         21   -1    0    0  501  502  0.00000000000E+00 -0.00000000000E+00 -0.27293575813E+03  0.27293575813E+03  0.00000000000E+00 0.  1.
        -24    2    1    2    0    0  0.97367522397E+02  0.12564711110E+03  0.45303707601E+02  0.18429560934E+03  0.81515733157E+02 0.  0.
         23    2    1    2    0    0 -0.39266245288E+02 -0.17898249023E+03  0.10745188313E+02  0.20453600622E+03  0.90238289754E+02 0.  0.
         13    1    3    3    0    0  0.82429958090E+02  0.88700055484E+02  0.67548752001E+02  0.13865508188E+03  0.00000000000E+00 0. -1.
        -14    1    3    3    0    0  0.14937564307E+02  0.36947055620E+02 -0.22245044400E+02  0.45640527460E+02  0.00000000000E+00 0.  1.
        -13    1    4    4    0    0  0.48744114295E+01 -0.15289326510E+03  0.88519334314E+01  0.15322684858E+03  0.00000000000E+00 0.  1.
         13    1    4    4    0    0 -0.44140656718E+02 -0.26089225134E+02  0.18932548816E+01  0.51309157639E+02  0.00000000000E+00 0. -1.
         -3    1    1    2    0  502 -0.58101277109E+02  0.53335379128E+02 -0.91948555711E+02  0.12114024090E+03  0.00000000000E+00 0.  1.
<scales pt_clust_5="13000.00000" pt_clust_6="13000.00000" pt_clust_7="13000.00000" pt_clust_8="13000.00000" pt_clust_9="78.86965"></scales>
<clustering>
<clus scale="   78.870">  2  9  1 -1</clus>
<clus scale="   81.516">  5  6 -1 -1</clus>
<clus scale="   90.238">  7  8 -1 -1</clus>
<clus scale="  184.038">  1  5  2 -1</clus>
<clus scale="   78.870">  2  5  1 -1</clus>
</clustering>
</event>
<event>
 9    1  0.9800973E-005  0.1608304E+03  0.7546771E-02  0.1189664E+00
         -2   -1    0    0    0  501 -0.00000000000E+00  0.00000000000E+00  0.60371216952E+03  0.60371216952E+03  0.00000000000E+00 0.  1.
         21   -1    0    0  501  502  0.00000000000E+00 -0.00000000000E+00 -0.31846062817E+03  0.31846062817E+03  0.00000000000E+00 0.  1.
        -24    2    1    2    0    0  0.44174855225E+02  0.13423631194E+03  0.14132409396E+03  0.21540197903E+03  0.80341195898E+02 0.  0.
         23    2    1    2    0    0 -0.14186071197E+01 -0.61527059550E+02 -0.26600372516E+03  0.28825164542E+03  0.92430718837E+02 0.  0.
         11    1    3    3    0    0 -0.19752814924E+02  0.56340751639E+02  0.69684218591E+02  0.91762434107E+02  0.00000000000E+00 0. -1.
        -12    1    3    3    0    0  0.63927670149E+02  0.77895560304E+02  0.71639875368E+02  0.12363954492E+03  0.00000000000E+00 0.  1.
        -13    1    4    4    0    0 -0.37786959305E+02 -0.58386724963E+02 -0.21159916044E+03  0.22273542297E+03  0.00000000000E+00 0.  1.
         13    1    4    4    0    0  0.36368352185E+02 -0.31403345868E+01 -0.54404564720E+02  0.65516222452E+02  0.00000000000E+00 0. -1.
         -1    1    1    2    0  502 -0.42756248105E+02 -0.72709252392E+02  0.40993117256E+03  0.41851917324E+03  0.00000000000E+00 0.  1.
<scales pt_clust_5="13000.00000" pt_clust_6="13000.00000" pt_clust_7="13000.00000" pt_clust_8="13000.00000" pt_clust_9="84.34891"></scales>
<clustering>
<clus scale="   80.341">  5  6 -1 -1</clus>
<clus scale="   84.349">  2  9  1 -1</clus>
<clus scale="   92.431">  7  8 -1 -1</clus>
<clus scale="  154.200">  1  5  2 -1</clus>
<clus scale="   84.349">  2  5  1 -1</clus>
</clustering>
</event>
<event>
 9    1  0.8429841E-005  0.1138405E+03  0.7546771E-02  0.1261471E+00
          1   -1    0    0  502    0 -0.00000000000E+00  0.00000000000E+00  0.23295873754E+03  0.23295873754E+03  0.00000000000E+00 0. -1.
         21   -1    0    0  501  502  0.00000000000E+00 -0.00000000000E+00 -0.88496862422E+02  0.88496862422E+02  0.00000000000E+00 0. -1.
         23    2    1    2    0    0  0.34144984487E+01  0.62235642764E+02  0.13944605412E+03  0.18138510548E+03  0.97828525745E+02 0.  0.
        -24    2    1    2    0    0  0.14071049097E+02 -0.45939681321E+02 -0.30967385535E+02  0.96872185667E+02  0.78209926777E+02 0.  0.
         13    1    4    4    0    0  0.24365306003E+02 -0.42801191292E+02  0.13543499501E+02  0.51078728365E+02  0.00000000000E+00 0. -1.
        -14    1    4    4    0    0 -0.10294256906E+02 -0.31384900292E+01 -0.44510885037E+02  0.45793457302E+02  0.00000000000E+00 0.  1.
        -11    1    3    3    0    0 -0.37329710585E+02  0.34021611718E+02  0.24345640762E+02  0.56068597097E+02  0.00000000000E+00 0.  1.
         11    1    3    3    0    0  0.40744209034E+02  0.28214031046E+02  0.11510041335E+03  0.12531650838E+03  0.00000000000E+00 0. -1.
          2    1    1    2  501    0 -0.17485547546E+02 -0.16295961443E+02  0.35983206540E+02  0.43198308824E+02  0.00000000000E+00 0. -1.
<scales pt_clust_5="13000.00000" pt_clust_6="13000.00000" pt_clust_7="13000.00000" pt_clust_8="13000.00000" pt_clust_9="23.90195"></scales>
<clustering>
<clus scale="   23.902">  2  9  1 -1</clus>
<clus scale="   78.210">  5  6 -1 -1</clus>
<clus scale="   97.499">  2  5  1 -1</clus>
<clus scale="   97.829">  7  8 -1 -1</clus>
<clus scale="   23.902">  2  5  1 -1</clus>
</clustering>
</event>
<event>
 9    1  0.8429841E-005  0.1030455E+03  0.7546771E-02  0.1278444E+00
         21   -1    0    0  501  502  0.00000000000E+00  0.00000000000E+00  0.16572345571E+03  0.16572345571E+03  0.00000000000E+00 0.  1.
         -4   -1    0    0    0  501 -0.00000000000E+00 -0.00000000000E+00 -0.16812038432E+03  0.16812038432E+03  0.00000000000E+00 0.  1.
        -24    2    1    2    0    0  0.97631129119E+01 -0.62269754734E+02 -0.75747587311E+02  0.12781026067E+03  0.81393642391E+02 0.  0.
         23    2    1    2    0    0  0.16989302565E+02  0.28064284307E+02 -0.23805676466E+02  0.99614316990E+02  0.90994843052E+02 0.  0.
         11    1    3    3    0    0  0.25207367904E+02 -0.40977294061E+02 -0.51572149665E+00  0.48112534685E+02  0.00000000000E+00 0. -1.
        -12    1    3    3    0    0 -0.15444254992E+02 -0.21292460674E+02 -0.75231865815E+02  0.79697725989E+02  0.00000000000E+00 0.  1.
        -11    1    4    4    0    0  0.20323587191E+02  0.64676859900E+01  0.32694181719E+02  0.39035735893E+02  0.00000000000E+00 0.  1.
         11    1    4    4    0    0 -0.33342846262E+01  0.21596598318E+02 -0.56499858185E+02  0.60578581097E+02  0.00000000000E+00 0. -1.
         -3    1    1    2    0  502 -0.26752415477E+02  0.34205470427E+02  0.97156335160E+02  0.10641926237E+03  0.00000000000E+00 0.  1.
<scales pt_clust_5="13000.00000" pt_clust_6="13000.00000" pt_clust_7="13000.00000" pt_clust_8="13000.00000" pt_clust_9="43.42472"></scales>
<clustering>
<clus scale="   43.425">  1  9  2 -1</clus>
<clus scale="   81.394">  5  6 -1 -1</clus>
<clus scale="   90.995">  7  8 -1 -1</clus>
<clus scale="   94.674">  2  5  1 -1</clus>
<clus scale="   43.425">  1  5  2 -1</clus>
</clustering>
</event>
<event>
 9    1  0.8429841E-005  0.1087161E+03  0.7546771E-02  0.1267380E+00
          1   -1    0    0  502    0 -0.00000000000E+00  0.00000000000E+00  0.13781708183E+03  0.13781708183E+03  0.00000000000E+00 0. -1.
         21   -1    0    0  501  502  0.00000000000E+00 -0.00000000000E+00 -0.20859134657E+03  0.20859134657E+03  0.00000000000E+00 0.  1.
         23    2    1    2    0    0 -0.13412753566E+02  0.57323724003E+02  0.62154199246E+02  0.12509412308E+03  0.91211204645E+02 0.  0.
        -24    2    1    2    0    0  0.37217877453E+02 -0.52868279558E+02 -0.15656868617E+03  0.18747062034E+03  0.80319702527E+02 0.  0.
         13    1    4    4    0    0  0.48830525437E+02 -0.96369115001E+00 -0.61490848097E+02  0.78526895487E+02  0.00000000000E+00 0. -1.
        -14    1    4    4    0    0 -0.11612647984E+02 -0.51904588408E+02 -0.95077838077E+02  0.10894372485E+03  0.00000000000E+00 0.  1.
        -11    1    3    3    0    0  0.22022180077E+02  0.22958729833E+02 -0.13663787551E+02  0.34623384888E+02  0.00000000000E+00 0.  1.
         11    1    3    3    0    0 -0.35434933643E+02  0.34364994169E+02  0.75817986797E+02  0.90470738189E+02  0.00000000000E+00 0. -1.
          2    1    1    2  501    0 -0.23805123887E+02 -0.44554444443E+01  0.23640222189E+02  0.33843684989E+02  0.00000000000E+00 0. -1.
<scales pt_clust_5="13000.00000" pt_clust_6="13000.00000" pt_clust_7="13000.00000" pt_clust_8="13000.00000" pt_clust_9="24.21849"></scales>
<clustering>
<clus scale="   24.218">  2  9  1 -1</clus>
<clus scale="   80.320">  5  6 -1 -1</clus>
<clus scale="   91.211">  7  8 -1 -1</clus>
<clus scale="   99.754">  2  5  1 -1</clus>
<clus scale="   24.218">  2  5  1 -1</clus>
</clustering>
</event>
<event>
 9    1  0.8429841E-005  0.1045309E+03  0.7546771E-02  0.1280710E+00
         21   -1    0    0  501  502  0.00000000000E+00  0.00000000000E+00  0.83466291727E+02  0.83466291727E+02  0.00000000000E+00 0. -1.
          1   -1    0    0  502    0 -0.00000000000E+00 -0.00000000000E+00 -0.23271445560E+03  0.23271445560E+03  0.00000000000E+00 0. -1.
         23    2    1    2    0    0 -0.44822847063E+02  0.35597808888E+02 -0.14440972662E+03  0.17934175933E+03  0.89627037671E+02 0.  0.
        -24    2    1    2    0    0  0.94205202237E+01 -0.56275643937E+02 -0.23222411492E+02  0.91907171686E+02  0.68205230811E+02 0.  0.
         13    1    4    4    0    0 -0.14226544022E+02 -0.37276848697E+02  0.15424947460E+02  0.42777178585E+02  0.00000000000E+00 0. -1.
        -14    1    4    4    0    0  0.23647064246E+02 -0.18998795240E+02 -0.38647358953E+02  0.49129993100E+02  0.00000000000E+00 0.  1.
        -11    1    3    3    0    0  0.19592373166E+02  0.34165127950E+02 -0.36707793204E+02  0.53838454064E+02  0.00000000000E+00 0.  1.
         11    1    3    3    0    0 -0.64415220229E+02  0.14326809383E+01 -0.10770193341E+03  0.12550330526E+03  0.00000000000E+00 0. -1.
          2    1    1    2  501    0  0.35402326839E+02  0.20677835048E+02  0.18383974239E+02  0.44931816308E+02  0.00000000000E+00 0. -1.
<scales pt_clust_5="13000.00000" pt_clust_6="13000.00000" pt_clust_7="13000.00000" pt_clust_8="13000.00000" pt_clust_9="40.99875"></scales>
<clustering>
<clus scale="   40.999">  1  9  2 -1</clus>
<clus scale="   68.205">  5  6 -1 -1</clus>
<clus scale="   86.866">  1  5  2 -1</clus>
<clus scale="   89.627">  7  8 -1 -1</clus>
<clus scale="   40.999">  1  5  2 -1</clus>
</clustering>
</event>
<event>
 9    1  0.8429841E-005  0.3794000E+03  0.7546771E-02  0.1051458E+00
         21   -1    0    0  501  502  0.00000000000E+00  0.00000000000E+00  0.29014998968E+03  0.29014998968E+03  0.00000000000E+00 0.  1.
          3   -1    0    0  502    0 -0.00000000000E+00 -0.00000000000E+00 -0.14257931687E+04  0.14257931687E+04  0.00000000000E+00 0. -1.
         23    2    1    2    0    0  0.32104169271E+03 -0.18467461383E+03 -0.12210028067E+04  0.12793924788E+04  0.93940297531E+02 0.  0.
        -24    2    1    2    0    0 -0.28842594045E+03  0.19939158864E+03  0.17734111333E+02  0.36004194085E+03  0.79807090678E+02 0.  0.
         13    1    4    4    0    0 -0.53533252603E+02  0.79553190801E+02  0.30327950999E+01  0.95936005478E+02  0.00000000000E+00 0. -1.
        -14    1    4    4    0    0 -0.23489268785E+03  0.11983839784E+03  0.14701316234E+02  0.26410593538E+03  0.00000000000E+00 0.  1.
        -13    1    3    3    0    0  0.93696134949E+02 -0.10136159057E+03 -0.38319376210E+03  0.40729669414E+03  0.00000000000E+00 0.  1.
         13    1    3    3    0    0  0.22734555776E+03 -0.83313023258E+02 -0.83780904460E+03  0.87209578470E+03  0.00000000000E+00 0. -1.
          4    1    1    2  501    0 -0.32615752259E+02 -0.14716974811E+02  0.67625516310E+02  0.76508738711E+02  0.00000000000E+00 0. -1.
<scales pt_clust_5="13000.00000" pt_clust_6="13000.00000" pt_clust_7="13000.00000" pt_clust_8="13000.00000" pt_clust_9="35.78235"></scales>
<clustering>
<clus scale="   35.782">  1  9  2 -1</clus>
<clus scale="   79.807">  5  6 -1 -1</clus>
<clus scale="   93.940">  7  8 -1 -1</clus>
<clus scale="  376.150">  1  5  2 -1</clus>
<clus scale="   35.782">  1  5  2 -1</clus>
</clustering>
</event>
<event>
 9    1  0.8429841E-005  0.1166682E+03  0.7546771E-02  0.1250403E+00
         21   -1    0    0  501  502  0.00000000000E+00  0.00000000000E+00  0.37144249687E+03  0.37144249687E+03  0.00000000000E+00 0.  1.
          1   -1    0    0  502    0 -0.00000000000E+00 -0.00000000000E+00 -0.16712068729E+03  0.16712068729E+03  0.00000000000E+00 0. -1.
         23    2    1    2    0    0 -0.67189329925E+02 -0.43197900397E+02 -0.13004213678E+03  0.17583277347E+03  0.87325495900E+02 0.  0.
        -24    2    1    2    0    0  0.48857020371E+02  0.29252234883E+02  0.17314852623E+03  0.19987781829E+03  0.82024559895E+02 0.  0.
         13    1    4    4    0    0  0.20590809100E+02  0.93409265388E+01 -0.70311009741E+00  0.22621421083E+02  0.00000000000E+00 0. -1.
        -14    1    4    4    0    0  0.28266211272E+02  0.19911308344E+02  0.17385163632E+03  0.17725639721E+03  0.00000000000E+00 0.  1.
        -13    1    3    3    0    0 -0.58017298348E+02 -0.69210036841E+02 -0.10588466838E+03  0.13916752173E+03  0.00000000000E+00 0. -1.
         13    1    3    3    0    0 -0.91720315773E+01  0.26012136444E+02 -0.24157468395E+02  0.36665251737E+02  0.00000000000E+00 0.  1.
          2    1    1    2  501    0  0.18332309554E+02  0.13945665514E+02  0.16121542014E+03  0.16285259240E+03  0.00000000000E+00 0. -1.
<scales pt_clust_5="13000.00000" pt_clust_6="13000.00000" pt_clust_7="13000.00000" pt_clust_8="13000.00000" pt_clust_9="23.03378"></scales>
<clustering>
<clus scale="   23.034">  1  9  2 -1</clus>
<clus scale="   82.025">  5  6 -1 -1</clus>
<clus scale="   87.325">  7  8 -1 -1</clus>
<clus scale="  112.755">  1  5  2 -1</clus>
<clus scale="   23.034">  1  5  2 -1</clus>
</clustering>
</event>
<event>
 9    1  0.8429841E-005  0.8911394E+02  0.7546771E-02  0.1310558E+00
          1   -1    0    0  502    0 -0.00000000000E+00  0.00000000000E+00  0.10687609077E+03  0.10687609077E+03  0.00000000000E+00 0. -1.
         21   -1    0    0  501  502  0.00000000000E+00 -0.00000000000E+00 -0.44942298005E+03  0.44942298005E+03  0.00000000000E+00 0.  1.
         23    2    1    2    0    0 -0.27837872387E+01 -0.77882398699E-01  0.72017294797E+02  0.11439635007E+03  0.88838497411E+02 0.  0.
        -24    2    1    2    0    0  0.52988159168E+02  0.17292291015E+02 -0.23084303432E+03  0.25066915755E+03  0.80248063607E+02 0.  0.
         13    1    4    4    0    0  0.35217860866E+02  0.15313545266E+02 -0.29222097317E+02  0.48256951460E+02  0.00000000000E+00 0. -1.
        -14    1    4    4    0    0  0.17770298302E+02  0.19787457490E+01 -0.20162093701E+03  0.20241220610E+03  0.00000000000E+00 0.  1.
        -13    1    3    3    0    0 -0.22963103680E+02 -0.36430513379E+02  0.19127847803E+02  0.47120706672E+02  0.00000000000E+00 0. -1.
         13    1    3    3    0    0  0.20179316441E+02  0.36352630980E+02  0.52889446994E+02  0.67275643397E+02  0.00000000000E+00 0.  1.
          2    1    1    2  501    0 -0.50204371930E+02 -0.17214408616E+02 -0.18372114975E+03  0.19123356319E+03  0.00000000000E+00 0. -1.
<scales pt_clust_5="13000.00000" pt_clust_6="13000.00000" pt_clust_7="13000.00000" pt_clust_8="13000.00000" pt_clust_9="53.07367"></scales>
<clustering>
<clus scale="   53.074">  2  9  1 -1</clus>
<clus scale="   80.248">  5  6 -1 -1</clus>
<clus scale="   80.553">  2  5  1 -1</clus>
<clus scale="   88.838">  7  8 -1 -1</clus>
<clus scale="   53.074">  2  5  1 -1</clus>
</clustering>
</event>
<event>
 9    1  0.8429841E-005  0.1142061E+03  0.7546771E-02  0.1256702E+00
          1   -1    0    0  502    0 -0.00000000000E+00  0.00000000000E+00  0.48598133106E+03  0.48598133106E+03  0.00000000000E+00 0. -1.
         21   -1    0    0  501  502  0.00000000000E+00 -0.00000000000E+00 -0.38005356465E+02  0.38005356465E+02  0.00000000000E+00 0.  1.
         23    2    1    2    0    0 -0.66181558887E+02 -0.44826915396E+02  0.28747766535E+03  0.31202993702E+03  0.91267860944E+02 0.  0.
        -24    2    1    2    0    0  0.36343228278E+02  0.31392965958E+02  0.74605155525E+02  0.12004140452E+03  0.80855803846E+02 0.  0.
         13    1    4    4    0    0  0.24190163833E+02 -0.14487956515E+02  0.66045194152E+02  0.71812482069E+02  0.00000000000E+00 0. -1.
        -14    1    4    4    0    0  0.12153064445E+02  0.45880922473E+02  0.85599613724E+01  0.48228922454E+02  0.00000000000E+00 0.  1.
        -13    1    3    3    0    0 -0.52135394692E+02  0.16217060260E+02  0.94481162281E+02  0.10912278611E+03  0.00000000000E+00 0. -1.
         13    1    3    3    0    0 -0.14046164195E+02 -0.61043975656E+02  0.19299650307E+03  0.20290715091E+03  0.00000000000E+00 0.  1.
          2    1    1    2  501    0  0.29838330609E+02  0.13433949438E+02  0.85893153713E+02  0.91915345976E+02  0.00000000000E+00 0. -1.
<scales pt_clust_5="13000.00000" pt_clust_6="13000.00000" pt_clust_7="13000.00000" pt_clust_8="13000.00000" pt_clust_9="32.72305"></scales>
<clustering>
<clus scale="   32.723">  2  9  1 -1</clus>
<clus scale="   80.856">  5  6 -1 -1</clus>
<clus scale="   91.268">  7  8 -1 -1</clus>
<clus scale="  106.070">  2  5  1 -1</clus>
<clus scale="   32.723">  2  5  1 -1</clus>
</clustering>
</event>
<event>
 9    1  0.8429841E-005  0.9725806E+02  0.7546771E-02  0.1290370E+00
         21   -1    0    0  501  502  0.00000000000E+00  0.00000000000E+00  0.12635887541E+03  0.12635887541E+03  0.00000000000E+00 0. -1.
          1   -1    0    0  502    0 -0.00000000000E+00 -0.00000000000E+00 -0.25958784068E+03  0.25958784068E+03  0.00000000000E+00 0. -1.
         23    2    1    2    0    0 -0.38592741702E+02 -0.14064674871E+02 -0.95656253608E+02  0.13921719900E+03  0.92434273140E+02 0.  0.
        -24    2    1    2    0    0 -0.42502257249E+01 -0.64948591577E+02 -0.94703695423E+02  0.14022803617E+03  0.80366213266E+02 0.  0.
         13    1    4    4    0    0  0.31926333300E+02 -0.55547751573E+02 -0.46181281576E+02  0.78978188323E+02  0.00000000000E+00 0. -1.
        -14    1    4    4    0    0 -0.36176559025E+02 -0.94008400034E+01 -0.48522413848E+02  0.61249847847E+02  0.00000000000E+00 0.  1.
        -11    1    3    3    0    0 -0.50317717626E+02 -0.38919176179E+02 -0.91475575554E+02  0.11141972852E+03  0.00000000000E+00 0. -1.
         11    1    3    3    0    0  0.11724975924E+02  0.24854501308E+02 -0.41806780543E+01  0.27797470473E+02  0.00000000000E+00 0.  1.
          2    1    1    2  501    0  0.42842967427E+02  0.79013266447E+02  0.57130983763E+02  0.10650148092E+03  0.00000000000E+00 0. -1.
<scales pt_clust_5="13000.00000" pt_clust_6="13000.00000" pt_clust_7="13000.00000" pt_clust_8="13000.00000" pt_clust_9="89.88112"></scales>
<clustering>
<clus scale="   80.366">  5  6 -1 -1</clus>
<clus scale="   89.881">  1  9  2 -1</clus>
<clus scale="   89.881">  1  5  2 -1</clus>
<clus scale="   92.434">  7  8 -1 -1</clus>
<clus scale="   89.881">  1  5  2 -1</clus>
</clustering>
</event>
<event>
 9    1  0.8429841E-005  0.4574152E+03  0.7546771E-02  0.1025534E+00
          1   -1    0    0  502    0 -0.00000000000E+00  0.00000000000E+00  0.74820266995E+03  0.74820266995E+03  0.00000000000E+00 0. -1.
         21   -1    0    0  501  502  0.00000000000E+00 -0.00000000000E+00 -0.42028626941E+03  0.42028626941E+03  0.00000000000E+00 0.  1.
        -24    2    1    2    0    0 -0.11215370185E+03 -0.10376907607E+03 -0.10711269379E+03  0.20412232205E+03  0.82742487279E+02 0.  0.
         23    2    1    2    0    0 -0.22832739678E+03 -0.13303742216E+03 -0.91130859139E+02  0.29440468350E+03  0.92395499677E+02 0.  0.
         11    1    3    3    0    0 -0.44106022355E+02 -0.12882172462E+02  0.28843383720E+01  0.46039233086E+02  0.00000000000E+00 0. -1.
        -12    1    3    3    0    0 -0.68047679498E+02 -0.90886903604E+02 -0.10999703216E+03  0.15808308896E+03  0.00000000000E+00 0.  1.
        -13    1    4    4    0    0 -0.17680847895E+02  0.11448324942E+02  0.47024737378E+01  0.21582163597E+02  0.00000000000E+00 0. -1.
         13    1    4    4    0    0 -0.21064654889E+03 -0.14448574710E+03 -0.95833332877E+02  0.27282251990E+03  0.00000000000E+00 0.  1.
          2    1    1    2  501    0  0.34048109864E+03  0.23680649822E+03  0.52615995347E+03  0.66996193382E+03  0.00000000000E+00 0. -1.
<scales pt_clust_5="13000.00000" pt_clust_6="13000.00000" pt_clust_7="13000.00000" pt_clust_8="13000.00000" pt_clust_9="414.73470"></scales>
<clustering>
<clus scale="   82.742">  5  6 -1 -1</clus>
<clus scale="   92.395">  7  8 -1 -1</clus>
<clus scale="  110.113">  5  7 -1 -1</clus>
<clus scale="  414.735">  2  9  1 -1</clus>
<clus scale="  414.735">  2  5  1 -1</clus>
</clustering>
</event>
<event>
 9    1  0.8429841E-005  0.1074645E+03  0.7546771E-02  0.1268514E+00
         21   -1    0    0  501  502  0.00000000000E+00  0.00000000000E+00  0.17639760108E+03  0.17639760108E+03  0.00000000000E+00 0.  1.
          1   -1    0    0  502    0 -0.00000000000E+00 -0.00000000000E+00 -0.11855031451E+03  0.11855031451E+03  0.00000000000E+00 0. -1.
         23    2    1    2    0    0 -0.32522446904E+02 -0.63861865223E+02 -0.65956526805E+01  0.11497759245E+03  0.89667701813E+02 0.  0.
        -24    2    1    2    0    0  0.58476943960E+01  0.34239565480E+02  0.94718619696E+02  0.12991395602E+03  0.81850324848E+02 0.  0.
         13    1    4    4    0    0  0.48978543454E+01  0.38755165331E+02  0.42120834758E+01  0.39289864650E+02  0.00000000000E+00 0. -1.
        -14    1    4    4    0    0  0.94984005067E+00 -0.45155998502E+01  0.90506536221E+02  0.90624091371E+02  0.00000000000E+00 0.  1.
        -13    1    3    3    0    0 -0.56419554807E+02 -0.40531741150E+02  0.19992841921E+02  0.72289016686E+02  0.00000000000E+00 0.  1.
         13    1    3    3    0    0  0.23897107903E+02 -0.23330124073E+02 -0.26588494601E+02  0.42688575762E+02  0.00000000000E+00 0. -1.
          2    1    1    2  501    0  0.26674752508E+02  0.29622299743E+02 -0.30275680442E+02  0.50056367124E+02  0.00000000000E+00 0. -1.
<scales pt_clust_5="13000.00000" pt_clust_6="13000.00000" pt_clust_7="13000.00000" pt_clust_8="13000.00000" pt_clust_9="39.86257"></scales>
<clustering>
<clus scale="   39.863">  1  9  2 -1</clus>
<clus scale="   81.850">  5  6 -1 -1</clus>
<clus scale="   89.668">  7  8 -1 -1</clus>
<clus scale="  101.034">  1  5  2 -1</clus>
<clus scale="   39.863">  1  5  2 -1</clus>
</clustering>
</event>
<event>
 9    1  0.8429841E-005  0.3590926E+03  0.7546771E-02  0.1095108E+00
         21   -1    0    0  501  502  0.00000000000E+00  0.00000000000E+00  0.20946520696E+03  0.20946520696E+03  0.00000000000E+00 0. -1.
          1   -1    0    0  502    0 -0.00000000000E+00 -0.00000000000E+00 -0.10636725503E+04  0.10636725503E+04  0.00000000000E+00 0. -1.
        -24    2    1    2    0    0 -0.10202437492E+03 -0.33993677558E+02 -0.88431141547E+02  0.16119776166E+03  0.81241051048E+02 0.  0.
         23    2    1    2    0    0 -0.22258541380E+03 -0.15577487852E+03 -0.66363957854E+03  0.72230489754E+03  0.86584037741E+02 0.  0.
         13    1    3    3    0    0 -0.11127104645E+03 -0.25148993540E+02 -0.93435629582E+02  0.14745824673E+03  0.00000000000E+00 0. -1.
        -14    1    3    3    0    0  0.92466715306E+01 -0.88446840182E+01  0.50044880349E+01  0.13739514921E+02  0.00000000000E+00 0.  1.
        -11    1    4    4    0    0 -0.34057226446E+02  0.49927245439E+01 -0.51719891058E+02  0.62127040028E+02  0.00000000000E+00 0.  1.
         11    1    4    4    0    0 -0.18852818736E+03 -0.16076760306E+03 -0.61191968748E+03  0.66017785751E+03  0.00000000000E+00 0. -1.
          2    1    1    2  501    0  0.32460978872E+03  0.18976855608E+03 -0.10213662322E+03  0.38963509803E+03  0.00000000000E+00 0. -1.
<scales pt_clust_5="13000.00000" pt_clust_6="13000.00000" pt_clust_7="13000.00000" pt_clust_8="13000.00000" pt_clust_9="348.49773"></scales>
<clustering>
<clus scale="   81.241">  5  6 -1 -1</clus>
<clus scale="   86.584">  7  8 -1 -1</clus>
<clus scale="  134.776">  2  5  1 -1</clus>
<clus scale="  348.498">  1  9  2 -1</clus>
<clus scale="  348.498">  1  5  2 -1</clus>
</clustering>
</event>
<event>
 9    1  0.8429841E-005  0.1288942E+03  0.7546771E-02  0.1240288E+00
          1   -1    0    0  502    0 -0.00000000000E+00  0.00000000000E+00  0.15477797047E+03  0.15477797047E+03  0.00000000000E+00 0. -1.
         21   -1    0    0  501  502  0.00000000000E+00 -0.00000000000E+00 -0.30766492768E+03  0.30766492768E+03  0.00000000000E+00 0. -1.
         23    2    1    2    0    0 -0.82108095676E+01  0.47466998550E+02 -0.70983055000E+02  0.12468007628E+03  0.90476483016E+02 0.  0.
        -24    2    1    2    0    0 -0.77828253074E+02  0.20802132350E+02  0.84473275761E+02  0.13840194334E+03  0.74359921441E+02 0.  0.
         13    1    4    4    0    0 -0.82352438587E+02  0.25842799202E+02  0.93414385761E+02  0.12718499078E+03  0.00000000000E+00 0. -1.
        -14    1    4    4    0    0  0.45241855129E+01 -0.50406668520E+01 -0.89411099997E+01  0.11216952567E+02  0.00000000000E+00 0.  1.
        -13    1    3    3    0    0  0.26607109020E+01 -0.20159527183E+02 -0.48499048429E+02  0.52589386926E+02  0.00000000000E+00 0. -1.
         13    1    3    3    0    0 -0.10871520470E+02  0.67626525733E+02 -0.22484006571E+02  0.72090689354E+02  0.00000000000E+00 0.  1.
          2    1    1    2  501    0  0.86039062642E+02 -0.68269130900E+02 -0.16637717798E+03  0.19936087852E+03  0.00000000000E+00 0. -1.
<scales pt_clust_5="13000.00000" pt_clust_6="13000.00000" pt_clust_7="13000.00000" pt_clust_8="13000.00000" pt_clust_9="105.28210"></scales>
<clustering>
<clus scale="   74.360">  5  6 -1 -1</clus>
<clus scale="   90.476">  7  8 -1 -1</clus>
<clus scale="  102.501">  1  7  2 -1</clus>
<clus scale="  105.282">  2  9  1 -1</clus>
<clus scale="  105.282">  2  5  1 -1</clus>
</clustering>
</event>
<event>
 9    1  0.8429841E-005  0.8232103E+02  0.7546771E-02  0.1329733E+00
          1   -1    0    0  502    0 -0.00000000000E+00  0.00000000000E+00  0.30679277922E+03  0.30679277922E+03  0.00000000000E+00 0. -1.
         21   -1    0    0  501  502  0.00000000000E+00 -0.00000000000E+00 -0.56111562593E+02  0.56111562593E+02  0.00000000000E+00 0. -1.
         23    2    1    2    0    0  0.15395826301E+02  0.15594550355E+02  0.22179724750E+03  0.23360779461E+03  0.69988293578E+02 0.  0.
        -24    2    1    2    0    0  0.22829279396E+02 -0.19073307635E+02  0.85242788948E+01  0.85847986300E+02  0.80076503165E+02 0.  0.
         13    1    4    4    0    0  0.44648405511E+02 -0.35859356509E+02  0.86106687261E+00  0.57272288239E+02  0.00000000000E+00 0. -1.
        -14    1    4    4    0    0 -0.21819126115E+02  0.16786048874E+02  0.76632120221E+01  0.28575698061E+02  0.00000000000E+00 0.  1.
        -13    1    3    3    0    0  0.14871460798E+02  0.41464220305E+02  0.17122426324E+03  0.17679985925E+03  0.00000000000E+00 0. -1.
         13    1    3    3    0    0  0.52436550306E+00 -0.25869669950E+02  0.50572984260E+02  0.56807935356E+02  0.00000000000E+00 0.  1.
          2    1    1    2  501    0 -0.38225105697E+02  0.34787572806E+01  0.20359690232E+02  0.43448560898E+02  0.00000000000E+00 0. -1.
<scales pt_clust_5="13000.00000" pt_clust_6="13000.00000" pt_clust_7="13000.00000" pt_clust_8="13000.00000" pt_clust_9="38.38308"></scales>
<clustering>
<clus scale="   38.383">  2  9  1 -1</clus>
<clus scale="   69.988">  7  8 -1 -1</clus>
<clus scale="   72.546">  1  7  2 -1</clus>
<clus scale="   80.077">  5  6 -1 -1</clus>
<clus scale="   38.383">  2  5  1 -1</clus>
</clustering>
</event>
<event>
 9    1  0.8429841E-005  0.1622232E+03  0.7546771E-02  0.1219778E+00
         -2   -1    0    0    0  501 -0.00000000000E+00  0.00000000000E+00  0.50149291287E+03  0.50149291287E+03  0.00000000000E+00 0.  1.
         21   -1    0    0  501  502  0.00000000000E+00 -0.00000000000E+00 -0.77733294067E+02  0.77733294067E+02  0.00000000000E+00 0. -1.
        -24    2    1    2    0    0 -0.52779047865E+01 -0.82616947517E+01  0.17887054974E+03  0.19534941819E+03  0.77914117740E+02 0.  0.
         23    2    1    2    0    0 -0.12413999480E+03  0.34153024419E+02  0.10910897781E+03  0.19452107358E+03  0.96729063084E+02 0.  0.
         13    1    3    3    0    0 -0.13429120995E+02  0.23917181915E+02  0.22450102166E+02  0.35445450607E+02  0.00000000000E+00 0. -1.
        -14    1    3    3    0    0  0.81512162081E+01 -0.32178876667E+02  0.15642044757E+03  0.15990396758E+03  0.00000000000E+00 0.  1.
        -13    1    4    4    0    0 -0.87210014621E+02  0.66335007983E+02  0.58998841169E+02  0.12444590469E+03  0.00000000000E+00 0. -1.
         13    1    4    4    0    0 -0.36929980176E+02 -0.32181983564E+02  0.50110136640E+02  0.70075168897E+02  0.00000000000E+00 0.  1.
         -1    1    1    2    0  502  0.12941789958E+03 -0.25891329667E+02  0.13578009126E+03  0.18935571517E+03  0.00000000000E+00 0.  1.
<scales pt_clust_5="13000.00000" pt_clust_6="13000.00000" pt_clust_7="13000.00000" pt_clust_8="13000.00000" pt_clust_9="130.23008"></scales>
<clustering>
<clus scale="   77.914">  5  6 -1 -1</clus>
<clus scale="   78.528">  1  5  2 -1</clus>
<clus scale="   96.729">  7  8 -1 -1</clus>
<clus scale="  130.230">  2  9  1 -1</clus>
<clus scale="  130.230">  2  5  1 -1</clus>
</clustering>
</event>
<event>
 9    1  0.8429841E-005  0.1171874E+03  0.7546771E-02  0.1251775E+00
         21   -1    0    0  501  502  0.00000000000E+00  0.00000000000E+00  0.44127972000E+03  0.44127972000E+03  0.00000000000E+00 0.  1.
          1   -1    0    0  502    0 -0.00000000000E+00 -0.00000000000E+00 -0.29225649003E+03  0.29225649003E+03  0.00000000000E+00 0. -1.
        -24    2    1    2    0    0  0.68059346465E+02  0.18120452981E+02 -0.26175780677E+03  0.28332156106E+03  0.82422885788E+02 0.  0.
         23    2    1    2    0    0 -0.55952651949E+02 -0.45324070214E+02  0.16713745974E+03  0.20475833625E+03  0.93840690621E+02 0.  0.
         11    1    3    3    0    0  0.24358997650E+02 -0.20918395358E+02 -0.17936404910E+03  0.18221526320E+03  0.00000000000E+00 0. -1.
        -12    1    3    3    0    0  0.43700348815E+02  0.39038848339E+02 -0.82393757664E+02  0.10110629787E+03  0.00000000000E+00 0.  1.
        -13    1    4    4    0    0 -0.20163217013E+02 -0.71207476471E+02  0.10039178677E+03  0.12472197431E+03  0.00000000000E+00 0.  1.
         13    1    4    4    0    0 -0.35789434936E+02  0.25883406257E+02  0.66745672966E+02  0.80036361937E+02  0.00000000000E+00 0. -1.
          2    1    1    2  501    0 -0.12106694515E+02  0.27203617232E+02  0.24364357700E+03  0.24545631272E+03  0.00000000000E+00 0. -1.
<scales pt_clust_5="13000.00000" pt_clust_6="13000.00000" pt_clust_7="13000.00000" pt_clust_8="13000.00000" pt_clust_9="29.77598"></scales>
<clustering>
<clus scale="   29.776">  1  9  2 -1</clus>
<clus scale="   82.423">  5  6 -1 -1</clus>
<clus scale="   93.841">  7  8 -1 -1</clus>
<clus scale="  108.261">  2  5  1 -1</clus>
<clus scale="   29.776">  1  5  2 -1</clus>
</clustering>
</event>
<event>
 9    1  0.8429841E-005  0.1476093E+03  0.7546771E-02  0.1204818E+00
          1   -1    0    0  502    0 -0.00000000000E+00  0.00000000000E+00  0.89490131821E+03  0.89490131821E+03  0.00000000000E+00 0. -1.
         21   -1    0    0  501  502  0.00000000000E+00 -0.00000000000E+00 -0.67222321198E+02  0.67222321198E+02  0.00000000000E+00 0. -1.
         23    2    1    2    0    0  0.24978150820E+02  0.14572266017E+03  0.31548975162E+03  0.35934335144E+03  0.87948047971E+02 0.  0.
        -24    2    1    2    0    0  0.22850963285E+02 -0.66975337822E+02  0.29204121414E+02  0.11108587584E+03  0.80494277461E+02 0.  0.
         11    1    4    4    0    0  0.41018729656E+02 -0.71296184826E+02  0.77127966248E+01  0.82614583368E+02  0.00000000000E+00 0. -1.
        -12    1    4    4    0    0 -0.18167766371E+02  0.43208470044E+01  0.21491324789E+02  0.28471292471E+02  0.00000000000E+00 0.  1.
        -11    1    3    3    0    0 -0.30823691281E+02  0.73136204387E+02  0.12635182000E+03  0.14921054505E+03  0.00000000000E+00 0.  1.
         11    1    3    3    0    0  0.55801842100E+02  0.72586455783E+02  0.18913793161E+03  0.21013280639E+03  0.00000000000E+00 0. -1.
          2    1    1    2  501    0 -0.47829114105E+02 -0.78747322348E+02  0.48298512398E+03  0.49169441213E+03  0.00000000000E+00 0. -1.
<scales pt_clust_5="13000.00000" pt_clust_6="13000.00000" pt_clust_7="13000.00000" pt_clust_8="13000.00000" pt_clust_9="92.13454"></scales>
<clustering>
<clus scale="   80.494">  5  6 -1 -1</clus>
<clus scale="   87.948">  7  8 -1 -1</clus>
<clus scale="   92.135">  2  9  1 -1</clus>
<clus scale="  143.293">  2  5  1 -1</clus>
<clus scale="   92.135">  2  5  1 -1</clus>
</clustering>
</event>
<event>
 9    1  0.8429841E-005  0.1567802E+03  0.7546771E-02  0.1194099E+00
          3   -1    0    0  502    0 -0.00000000000E+00  0.00000000000E+00  0.61944899168E+02  0.61944899168E+02  0.00000000000E+00 0. -1.
         21   -1    0    0  501  502  0.00000000000E+00 -0.00000000000E+00 -0.75017663277E+03  0.75017663277E+03  0.00000000000E+00 0. -1.
         23    2    1    2    0    0 -0.84755391738E+02  0.10849316350E+03 -0.10392846583E+03  0.19641659705E+03  0.93936737391E+02 0.  0.
        -24    2    1    2    0    0  0.32853430113E+02 -0.97186149619E+02 -0.32428916321E+03  0.35032031447E+03  0.83883048386E+02 0.  0.
         13    1    4    4    0    0  0.17343170326E+02 -0.99077036560E+02 -0.18869651661E+03  0.21383035358E+03  0.00000000000E+00 0. -1.
        -14    1    4    4    0    0  0.15510259787E+02  0.18908869413E+01 -0.13559264660E+03  0.13648996089E+03  0.00000000000E+00 0.  1.
        -13    1    3    3    0    0 -0.11864803020E+02  0.88696885520E+02 -0.70010714533E+02  0.11361958987E+03  0.00000000000E+00 0.  1.
         13    1    3    3    0    0 -0.72890588718E+02  0.19796277979E+02 -0.33917751296E+02  0.82797007183E+02  0.00000000000E+00 0. -1.
          4    1    1    2  501    0  0.51901961625E+02 -0.11307013881E+02 -0.26001410456E+03  0.26538462041E+03  0.00000000000E+00 0. -1.
<scales pt_clust_5="13000.00000" pt_clust_6="13000.00000" pt_clust_7="13000.00000" pt_clust_8="13000.00000" pt_clust_9="53.11932"></scales>
<clustering>
<clus scale="   53.119">  2  9  1 -1</clus>
<clus scale="   83.883">  5  6 -1 -1</clus>
<clus scale="   93.937">  7  8 -1 -1</clus>
<clus scale="  150.971">  2  5  1 -1</clus>
<clus scale="   53.119">  2  5  1 -1</clus>
</clustering>
</event>
<event>
 9    1  0.8429841E-005  0.1009966E+03  0.7546771E-02  0.1282796E+00
         21   -1    0    0  501  502  0.00000000000E+00  0.00000000000E+00  0.99279096238E+02  0.99279096238E+02  0.00000000000E+00 0. -1.
         -2   -1    0    0    0  501 -0.00000000000E+00 -0.00000000000E+00 -0.25343634938E+03  0.25343634938E+03  0.00000000000E+00 0.  1.
         23    2    1    2    0    0  0.21544859821E+02 -0.45770350532E+02 -0.19381547828E+03  0.21975635412E+03  0.90384233036E+02 0.  0.
        -24    2    1    2    0    0 -0.11701233209E+02  0.24658127992E+02 -0.18502748383E+01  0.85360998103E+02  0.80858730793E+02 0.  0.
         13    1    4    4    0    0 -0.19993191723E+02  0.51762275131E+02 -0.87861161567E+01  0.56180572079E+02  0.00000000000E+00 0. -1.
        -14    1    4    4    0    0  0.82919585134E+01 -0.27104147139E+02  0.69358413184E+01  0.29180426024E+02  0.00000000000E+00 0.  1.
        -13    1    3    3    0    0  0.43084124401E+02 -0.45843325719E+02 -0.18679048302E+03  0.19710032175E+03  0.00000000000E+00 0.  1.
         13    1    3    3    0    0 -0.21539264580E+02  0.72975186978E-01 -0.70249952584E+01  0.22656032362E+02  0.00000000000E+00 0. -1.
         -1    1    1    2    0  502 -0.98436266118E+01  0.21112222540E+02  0.41508499973E+02  0.47598093402E+02  0.00000000000E+00 0.  1.
<scales pt_clust_5="13000.00000" pt_clust_6="13000.00000" pt_clust_7="13000.00000" pt_clust_8="13000.00000" pt_clust_9="23.29427"></scales>
<clustering>
<clus scale="   23.294">  1  9  2 -1</clus>
<clus scale="   80.859">  5  6 -1 -1</clus>
<clus scale="   90.384">  7  8 -1 -1</clus>
<clus scale="   92.570">  1  5  2 -1</clus>
<clus scale="   23.294">  1  5  2 -1</clus>
</clustering>
</event>
<event>
 9    1  0.8429841E-005  0.9479972E+02  0.7546771E-02  0.1297985E+00
         21   -1    0    0  501  502  0.00000000000E+00  0.00000000000E+00  0.56122289423E+02  0.56122289423E+02  0.00000000000E+00 0.  1.
         -2   -1    0    0    0  501 -0.00000000000E+00 -0.00000000000E+00 -0.30074526121E+03  0.30074526121E+03  0.00000000000E+00 0.  1.
        -24    2    1    2    0    0 -0.33707289372E+02 -0.60825849646E+01 -0.14284679135E+03  0.16735046280E+03  0.80173514359E+02 0.  0.
         23    2    1    2    0    0  0.89793080998E+00 -0.20887210473E+02 -0.17576345249E+02  0.95212071416E+02  0.91210354620E+02 0.  0.
         13    1    3    3    0    0  0.16785642511E+02  0.21940790149E+02 -0.63175930533E+02  0.68951825687E+02  0.00000000000E+00 0. -1.
        -14    1    3    3    0    0 -0.50492931883E+02 -0.28023375114E+02 -0.79670860815E+02  0.98398637114E+02  0.00000000000E+00 0.  1.
        -11    1    4    4    0    0 -0.21316069197E+02 -0.18641719432E+02 -0.49041623456E+02  0.56630109841E+02  0.00000000000E+00 0. -1.
         11    1    4    4    0    0  0.22214000007E+02 -0.22454910407E+01  0.31465278207E+02  0.38581961575E+02  0.00000000000E+00 0.  1.
         -1    1    1    2    0  502  0.32809358562E+02  0.26969795438E+02 -0.84199835186E+02  0.94305016412E+02  0.00000000000E+00 0.  1.
<scales pt_clust_5="13000.00000" pt_clust_6="13000.00000" pt_clust_7="13000.00000" pt_clust_8="13000.00000" pt_clust_9="42.47147"></scales>
<clustering>
<clus scale="   42.471">  1  9  2 -1</clus>
<clus scale="   80.174">  5  6 -1 -1</clus>
<clus scale="   84.235">  2  5  1 -1</clus>
<clus scale="   91.210">  7  8 -1 -1</clus>
<clus scale="   42.471">  1  5  2 -1</clus>
</clustering>
</event>
<event>
 9    1  0.8429841E-005  0.9418562E+02  0.7546771E-02  0.1301922E+00
          1   -1    0    0  502    0 -0.00000000000E+00  0.00000000000E+00  0.13716061850E+04  0.13716061850E+04  0.00000000000E+00 0. -1.
         21   -1    0    0  501  502  0.00000000000E+00 -0.00000000000E+00 -0.83421800073E+01  0.83421800073E+01  0.00000000000E+00 0.  1.
        -24    2    1    2    0    0 -0.71655062791E+01  0.13581414417E+02  0.81324346889E+03  0.81703978460E+03  0.77157440539E+02 0.  0.
         23    2    1    2    0    0  0.89937401168E+01 -0.34507606688E+02  0.46498655727E+03  0.47531848098E+03  0.91888506542E+02 0.  0.
         13    1    3    3    0    0  0.72699217345E+01  0.28649527432E+02  0.12376126642E+03  0.12724188874E+03  0.00000000000E+00 0. -1.
        -14    1    3    3    0    0 -0.14435428014E+02 -0.15068113015E+02  0.68948220247E+03  0.68979789587E+03  0.00000000000E+00 0.  1.
        -11    1    4    4    0    0  0.30604736285E+02 -0.55750445295E+02  0.37530582921E+03  0.38065631149E+03  0.00000000000E+00 0.  1.
         11    1    4    4    0    0 -0.21610996168E+02  0.21242838607E+02  0.89680728060E+02  0.94662169492E+02  0.00000000000E+00 0. -1.
          2    1    1    2  501    0 -0.18282338376E+01  0.20926192272E+02  0.85033978779E+02  0.87590099378E+02  0.00000000000E+00 0. -1.
<scales pt_clust_5="13000.00000" pt_clust_6="13000.00000" pt_clust_7="13000.00000" pt_clust_8="13000.00000" pt_clust_9="21.00590"></scales>
<clustering>
<clus scale="   21.006">  2  9  1 -1</clus>
<clus scale="   77.157">  5  6 -1 -1</clus>
<clus scale="   79.879">  1  5  2 -1</clus>
<clus scale="   91.889">  7  8 -1 -1</clus>
<clus scale="   21.006">  2  5  1 -1</clus>
</clustering>
</event>
<event>
 9    1  0.8429841E-005  0.2481191E+03  0.7546771E-02  0.1143823E+00
         21   -1    0    0  501  502  0.00000000000E+00  0.00000000000E+00  0.86327745149E+03  0.86327745149E+03  0.00000000000E+00 0. -1.
         -2   -1    0    0    0  501 -0.00000000000E+00 -0.00000000000E+00 -0.15212660356E+03  0.15212660356E+03  0.00000000000E+00 0.  1.
         23    2    1    2    0    0 -0.70906159472E+02 -0.31250694126E+02  0.29253528487E+02  0.12410316886E+03  0.92420442862E+02 0.  0.
        -24    2    1    2    0    0  0.22748581176E+03 -0.97682415730E+02  0.63054026910E+03  0.68206780814E+03  0.79648069962E+02 0.  0.
         13    1    4    4    0    0  0.13666742510E+03 -0.15494724602E+02  0.32760116222E+03  0.35530352244E+03  0.00000000000E+00 0. -1.
        -14    1    4    4    0    0  0.90818386665E+02 -0.82187691128E+02  0.30293910688E+03  0.32676428570E+03  0.00000000000E+00 0.  1.
        -11    1    3    3    0    0 -0.54040772685E+02  0.16128780921E+02  0.44182503285E+02  0.71642419578E+02  0.00000000000E+00 0.  1.
         11    1    3    3    0    0 -0.16865386787E+02 -0.47379475047E+02 -0.14928974798E+02  0.52460749287E+02  0.00000000000E+00 0. -1.
         -1    1    1    2    0  502 -0.15657965229E+03  0.12893310986E+03  0.51357050352E+02  0.20923307805E+03  0.00000000000E+00 0.  1.
<scales pt_clust_5="13000.00000" pt_clust_6="13000.00000" pt_clust_7="13000.00000" pt_clust_8="13000.00000" pt_clust_9="234.98798"></scales>
<clustering>
<clus scale="   79.648">  5  6 -1 -1</clus>
<clus scale="   92.420">  7  8 -1 -1</clus>
<clus scale="  120.606">  2  7  1 -1</clus>
<clus scale="  234.988">  1  9  2 -1</clus>
<clus scale="  234.988">  1  5  2 -1</clus>
</clustering>
</event>
<event>
 9    1  0.8429841E-005  0.1067168E+03  0.7546771E-02  0.1271109E+00
          1   -1    0    0  502    0 -0.00000000000E+00  0.00000000000E+00  0.28972434946E+03  0.28972434946E+03  0.00000000000E+00 0. -1.
         21   -1    0    0  501  502  0.00000000000E+00 -0.00000000000E+00 -0.14295960713E+03  0.14295960713E+03  0.00000000000E+00 0.  1.
         23    2    1    2    0    0  0.51614875419E+02 -0.75781690320E+01  0.23345914178E+03  0.25599564910E+03  0.91154141259E+02 0.  0.
        -24    2    1    2    0    0 -0.76109080013E+02  0.26846633814E+02 -0.41082626905E+02  0.12144635252E+03  0.80920334274E+02 0.  0.
         11    1    4    4    0    0 -0.19246282811E+01 -0.21422460117E+02 -0.22274962561E+02  0.30964494968E+02  0.00000000000E+00 0. -1.
        -12    1    4    4    0    0 -0.74184451731E+02  0.48269093931E+02 -0.18807664344E+02  0.90481857550E+02  0.00000000000E+00 0.  1.
        -13    1    3    3    0    0  0.18859691248E+02 -0.44189630219E+02  0.16418779046E+03  0.17107320629E+03  0.00000000000E+00 0. -1.
         13    1    3    3    0    0  0.32755184171E+02  0.36611461187E+02  0.69271351318E+02  0.84922442815E+02  0.00000000000E+00 0.  1.
          2    1    1    2  501    0  0.24494204594E+02 -0.19268464782E+02 -0.45611772552E+02  0.55241954971E+02  0.00000000000E+00 0. -1.
<scales pt_clust_5="13000.00000" pt_clust_6="13000.00000" pt_clust_7="13000.00000" pt_clust_8="13000.00000" pt_clust_9="31.16472"></scales>
<clustering>
<clus scale="   31.165">  2  9  1 -1</clus>
<clus scale="   80.920">  5  6 -1 -1</clus>
<clus scale="   91.154">  7  8 -1 -1</clus>
<clus scale="   98.120">  2  5  1 -1</clus>
<clus scale="   31.165">  2  5  1 -1</clus>
</clustering>
</event>
<event>
 9    1  0.8429841E-005  0.5814536E+03  0.7546771E-02  0.9944649E-01
          1   -1    0    0  502    0 -0.00000000000E+00  0.00000000000E+00  0.18788630399E+04  0.18788630399E+04  0.00000000000E+00 0. -1.
         21   -1    0    0  501  502  0.00000000000E+00 -0.00000000000E+00 -0.20849811564E+03  0.20849811564E+03  0.00000000000E+00 0. -1.
        -24    2    1    2    0    0 -0.10578112330E+03  0.38419367182E+03  0.10765421431E+04  0.11507618711E+04  0.80718489859E+02 0.  0.
         23    2    1    2    0    0  0.12599910113E+02  0.13568543515E+03  0.27279908098E+03  0.31852708766E+03  0.92037339957E+02 0.  0.
         11    1    3    3    0    0 -0.96029046980E+02  0.38500168802E+03  0.10503073382E+04  0.11227614984E+04  0.00000000000E+00 0. -1.
        -12    1    3    3    0    0 -0.97520763225E+01 -0.80801619837E+00  0.26234804884E+02  0.28000372678E+02  0.00000000000E+00 0.  1.
        -13    1    4    4    0    0 -0.22652206781E+01  0.38264014351E+02  0.17694850417E+03  0.18105258669E+03  0.00000000000E+00 0.  1.
         13    1    4    4    0    0  0.14865130791E+02  0.97421420796E+02  0.95850576807E+02  0.13747450097E+03  0.00000000000E+00 0. -1.
          2    1    1    2  501    0  0.93181213189E+02 -0.51987910697E+03  0.32102370020E+03  0.61807219679E+03  0.00000000000E+00 0. -1.
<scales pt_clust_5="13000.00000" pt_clust_6="13000.00000" pt_clust_7="13000.00000" pt_clust_8="13000.00000" pt_clust_9="528.16382"></scales>
<clustering>
<clus scale="   80.718">  5  6 -1 -1</clus>
<clus scale="   92.037">  7  8 -1 -1</clus>
<clus scale="  117.489">  5  7 -1 -1</clus>
<clus scale="  528.164">  2  9  1 -1</clus>
<clus scale="  528.164">  2  5  1 -1</clus>
</clustering>
</event>
<event>
 9    1  0.9122339E-005  0.9131969E+02  0.7546771E-02  0.1305690E+00
         21   -1    0    0  501  502  0.00000000000E+00  0.00000000000E+00  0.16177540203E+03  0.16177540203E+03  0.00000000000E+00 0.  1.
          1   -1    0    0  502    0 -0.00000000000E+00 -0.00000000000E+00 -0.31459869226E+03  0.31459869226E+03  0.00000000000E+00 0. -1.
         23    2    1    2    0    0 -0.46587330574E+01  0.12101858569E+02 -0.26979407185E+03  0.28472717848E+03  0.90069785075E+02 0.  0.
        -24    2    1    2    0    0 -0.24618412806E+02 -0.54070740027E+02  0.85746894478E+02  0.13170136210E+03  0.80392833576E+02 0.  0.
         13    1    4    4    0    0 -0.43704996747E+02 -0.39622073980E+02  0.20912804628E+02  0.62588983732E+02  0.00000000000E+00 0. -1.
        -14    1    4    4    0    0  0.19086583941E+02 -0.14448666046E+02  0.64834089850E+02  0.69112378369E+02  0.00000000000E+00 0.  1.
        -11    1    3    3    0    0  0.29147454429E+02 -0.20122758527E+02 -0.58948286776E+02  0.68770633443E+02  0.00000000000E+00 0. -1.
         11    1    3    3    0    0 -0.33806187486E+02  0.32224617096E+02 -0.21084578508E+03  0.21595654504E+03  0.00000000000E+00 0.  1.
          2    1    1    2  501    0  0.29277145863E+02  0.41968881457E+02  0.31223887143E+02  0.59945553705E+02  0.00000000000E+00 0. -1.
<scales pt_clust_5="13000.00000" pt_clust_6="13000.00000" pt_clust_7="13000.00000" pt_clust_8="13000.00000" pt_clust_9="51.17166"></scales>
<clustering>
<clus scale="   51.172">  1  9  2 -1</clus>
<clus scale="   80.393">  5  6 -1 -1</clus>
<clus scale="   81.791">  1  5  2 -1</clus>
<clus scale="   90.070">  7  8 -1 -1</clus>
<clus scale="   51.172">  1  5  2 -1</clus>
</clustering>
</event>
<event>
 9    1  0.8429841E-005  0.9232507E+02  0.7546771E-02  0.1305311E+00
         21   -1    0    0  501  502  0.00000000000E+00  0.00000000000E+00  0.11156912510E+03  0.11156912510E+03  0.00000000000E+00 0. -1.
          1   -1    0    0  502    0 -0.00000000000E+00 -0.00000000000E+00 -0.30948280763E+03  0.30948280763E+03  0.00000000000E+00 0. -1.
         23    2    1    2    0    0 -0.54179200056E+01 -0.17632603314E+02 -0.21068380031E+03  0.23009220814E+03  0.90633867717E+02 0.  0.
        -24    2    1    2    0    0 -0.44056120728E+02  0.17027209383E+02  0.70389277620E+02  0.11501227703E+03  0.77732270208E+02 0.  0.
         11    1    4    4    0    0 -0.56838301122E+02  0.34729551674E+02  0.40354657872E+02  0.77879603529E+02  0.00000000000E+00 0. -1.
        -12    1    4    4    0    0  0.12782180394E+02 -0.17702342292E+02  0.30034619748E+02  0.37132673505E+02  0.00000000000E+00 0.  1.
        -11    1    3    3    0    0  0.33690721108E+02  0.14813295438E+02 -0.12664800186E+03  0.13188712896E+03  0.00000000000E+00 0.  1.
         11    1    3    3    0    0 -0.39108641114E+02 -0.32445898752E+02 -0.84035798450E+02  0.98205079180E+02  0.00000000000E+00 0. -1.
          2    1    1    2  501    0  0.49474040733E+02  0.60539393197E+00 -0.57619159849E+02  0.75947447554E+02  0.00000000000E+00 0. -1.
<scales pt_clust_5="13000.00000" pt_clust_6="13000.00000" pt_clust_7="13000.00000" pt_clust_8="13000.00000" pt_clust_9="49.47777"></scales>
<clustering>
<clus scale="   49.478">  1  9  2 -1</clus>
<clus scale="   77.732">  5  6 -1 -1</clus>
<clus scale="   79.698">  1  5  2 -1</clus>
<clus scale="   90.634">  7  8 -1 -1</clus>
<clus scale="   49.478">  1  5  2 -1</clus>
</clustering>
</event>
<event>
 9    1  0.8429841E-005  0.9673400E+02  0.7546771E-02  0.1292866E+00
          3   -1    0    0  502    0 -0.00000000000E+00  0.00000000000E+00  0.18790576032E+03  0.18790576032E+03  0.00000000000E+00 0. -1.
         21   -1    0    0  501  502  0.00000000000E+00 -0.00000000000E+00 -0.94950927769E+02  0.94950927769E+02  0.00000000000E+00 0.  1.
         23    2    1    2    0    0  0.32942786230E+02 -0.18850590854E+02  0.13332800236E+03  0.16588939831E+03  0.91117310756E+02 0.  0.
        -24    2    1    2    0    0 -0.59361838822E+01  0.14141998125E+02 -0.31087105742E+02  0.88023233364E+02  0.80910117281E+02 0.  0.
         11    1    4    4    0    0 -0.35702941749E+02 -0.77276199063E+01  0.44094971142E+01  0.36794834199E+02  0.00000000000E+00 0. -1.
        -12    1    4    4    0    0  0.29766757866E+02  0.21869618031E+02 -0.35496602856E+02  0.51228399165E+02  0.00000000000E+00 0.  1.
        -13    1    3    3    0    0 -0.10506484357E+02 -0.26201958889E+02  0.30903570897E+01  0.28398576903E+02  0.00000000000E+00 0. -1.
         13    1    3    3    0    0  0.43449270586E+02  0.73513680352E+01  0.13023764527E+03  0.13749082141E+03  0.00000000000E+00 0.  1.
          4    1    1    2  501    0 -0.27006602348E+02  0.47085927294E+01 -0.92860640644E+01  0.28944056414E+02  0.00000000000E+00 0. -1.
<scales pt_clust_5="13000.00000" pt_clust_6="13000.00000" pt_clust_7="13000.00000" pt_clust_8="13000.00000" pt_clust_9="27.41400"></scales>
<clustering>
<clus scale="   27.414">  2  9  1 -1</clus>
<clus scale="   80.910">  5  6 -1 -1</clus>
<clus scale="   87.187">  2  5  1 -1</clus>
<clus scale="   91.117">  7  8 -1 -1</clus>
<clus scale="   27.414">  2  5  1 -1</clus>
</clustering>
</event>
<event>
 9    1  0.8429841E-005  0.1153167E+03  0.7546771E-02  0.1252132E+00
          1   -1    0    0  502    0 -0.00000000000E+00  0.00000000000E+00  0.81525776034E+02  0.81525776034E+02  0.00000000000E+00 0. -1.
         21   -1    0    0  501  502  0.00000000000E+00 -0.00000000000E+00 -0.35783041095E+03  0.35783041095E+03  0.00000000000E+00 0.  1.
         23    2    1    2    0    0  0.20309984829E+02  0.63530012327E+02  0.14310484552E+01  0.11294518055E+03  0.91137302788E+02 0.  0.
        -24    2    1    2    0    0  0.70580981473E+01 -0.93352500437E+02 -0.23315861026E+03  0.26619881324E+03  0.87945236035E+02 0.  0.
         13    1    4    4    0    0  0.36918173056E+02 -0.44304855770E+02 -0.57684501750E+02  0.81568213715E+02  0.00000000000E+00 0. -1.
        -14    1    4    4    0    0 -0.29860074908E+02 -0.49047644668E+02 -0.17547410851E+03  0.18463059952E+03  0.00000000000E+00 0.  1.
        -13    1    3    3    0    0  0.56730153974E+02  0.37387707411E+02  0.38261339380E+01  0.68049910627E+02  0.00000000000E+00 0.  1.
         13    1    3    3    0    0 -0.36420169145E+02  0.26142304916E+02 -0.23950854829E+01  0.44895269922E+02  0.00000000000E+00 0. -1.
          2    1    1    2  501    0 -0.27368082976E+02  0.29822488110E+02 -0.44577073108E+02  0.60212193198E+02  0.00000000000E+00 0. -1.
<scales pt_clust_5="13000.00000" pt_clust_6="13000.00000" pt_clust_7="13000.00000" pt_clust_8="13000.00000" pt_clust_9="40.47706"></scales>
<clustering>
<clus scale="   40.477">  2  9  1 -1</clus>
<clus scale="   87.945">  5  6 -1 -1</clus>
<clus scale="   91.137">  7  8 -1 -1</clus>
<clus scale="  112.811">  2  5  1 -1</clus>
<clus scale="   40.477">  2  5  1 -1</clus>
</clustering>
</event>
<event>
 9    1  0.8429841E-005  0.2377410E+03  0.7546771E-02  0.1121964E+00
         21   -1    0    0  501  502  0.00000000000E+00  0.00000000000E+00  0.75956423091E+03  0.75956423091E+03  0.00000000000E+00 0. -1.
          1   -1    0    0  502    0 -0.00000000000E+00 -0.00000000000E+00 -0.10661933171E+03  0.10661933171E+03  0.00000000000E+00 0. -1.
         23    2    1    2    0    0 -0.19471390629E+02 -0.23356931874E+03  0.18911270350E+03  0.31590417102E+03  0.95383798064E+02 0.  0.
        -24    2    1    2    0    0 -0.45815944102E+02  0.19223651829E+03  0.37638282698E+03  0.43358222557E+03  0.85296741935E+02 0.  0.
         13    1    4    4    0    0 -0.54332499660E+02  0.11965006656E+03  0.30176365115E+03  0.32913441039E+03  0.00000000000E+00 0. -1.
        -14    1    4    4    0    0  0.85165555580E+01  0.72586451737E+02  0.74619175824E+02  0.10444781518E+03  0.00000000000E+00 0.  1.
        -11    1    3    3    0    0 -0.25334706971E+02 -0.43846828589E+02  0.86234493685E+02  0.10000389820E+03  0.00000000000E+00 0.  1.
         11    1    3    3    0    0  0.58633163415E+01 -0.18972249015E+03  0.10287820981E+03  0.21590027282E+03  0.00000000000E+00 0. -1.
          2    1    1    2  501    0  0.65287334732E+02  0.41332800448E+02  0.87449368730E+02  0.11669716603E+03  0.00000000000E+00 0. -1.
<scales pt_clust_5="13000.00000" pt_clust_6="13000.00000" pt_clust_7="13000.00000" pt_clust_8="13000.00000" pt_clust_9="77.27123"></scales>
<clustering>
<clus scale="   77.271">  1  9  2 -1</clus>
<clus scale="   85.297">  5  6 -1 -1</clus>
<clus scale="   95.384">  7  8 -1 -1</clus>
<clus scale="  233.877">  1  5  2 -1</clus>
<clus scale="   77.271">  1  5  2 -1</clus>
</clustering>
</event>
<event>
 9    1  0.8429841E-005  0.1887067E+03  0.7546771E-02  0.1160992E+00
         21   -1    0    0  501  502  0.00000000000E+00  0.00000000000E+00  0.14263421092E+03  0.14263421092E+03  0.00000000000E+00 0.  1.
          1   -1    0    0  502    0 -0.00000000000E+00 -0.00000000000E+00 -0.54474896941E+03  0.54474896941E+03  0.00000000000E+00 0. -1.
         23    2    1    2    0    0 -0.15062529743E+03 -0.77490498025E+02 -0.13398071706E+03  0.23463812143E+03  0.91714000958E+02 0.  0.
        -24    2    1    2    0    0  0.45288479956E+02  0.18960635597E+03 -0.14139264545E+03  0.25342322826E+03  0.78929308813E+02 0.  0.
         11    1    4    4    0    0  0.47530098550E+02  0.53448867100E+02 -0.30292080979E+02  0.77675619292E+02  0.00000000000E+00 0. -1.
        -12    1    4    4    0    0 -0.22416185936E+01  0.13615748887E+03 -0.11110056447E+03  0.17574760896E+03  0.00000000000E+00 0.  1.
        -11    1    3    3    0    0 -0.35135980074E+02 -0.56902555550E+02 -0.17073615838E+02  0.69021346565E+02  0.00000000000E+00 0.  1.
         11    1    3    3    0    0 -0.11548931735E+03 -0.20587942475E+02 -0.11690710123E+03  0.16561677486E+03  0.00000000000E+00 0. -1.
          2    1    1    2  501    0  0.10533681747E+03 -0.11211585795E+03 -0.12674139598E+03  0.19932183065E+03  0.00000000000E+00 0. -1.
<scales pt_clust_5="13000.00000" pt_clust_6="13000.00000" pt_clust_7="13000.00000" pt_clust_8="13000.00000" pt_clust_9="153.83704"></scales>
<clustering>
<clus scale="   78.929">  5  6 -1 -1</clus>
<clus scale="   91.714">  7  8 -1 -1</clus>
<clus scale="  153.837">  1  9  2 -1</clus>
<clus scale="  182.835">  1  5  2 -1</clus>
<clus scale="  153.837">  1  5  2 -1</clus>
</clustering>
</event>
<event>
 9    1  0.8429841E-005  0.1274942E+03  0.7546771E-02  0.1254325E+00
         21   -1    0    0  501  502  0.00000000000E+00  0.00000000000E+00  0.29798052629E+02  0.29798052629E+02  0.00000000000E+00 0. -1.
          1   -1    0    0  502    0 -0.00000000000E+00 -0.00000000000E+00 -0.12045075768E+04  0.12045075768E+04  0.00000000000E+00 0. -1.
        -24    2    1    2    0    0  0.24080688896E+02  0.91549975527E+01 -0.75232457681E+03  0.75655719078E+03  0.75649325771E+02 0.  0.
         23    2    1    2    0    0  0.57379605469E+02  0.56098242043E+02 -0.24944658309E+03  0.27575476877E+03  0.85893322198E+02 0.  0.
         13    1    3    3    0    0 -0.24891954706E+02  0.97613089097E+01 -0.16072486980E+03  0.16293365623E+03  0.00000000000E+00 0. -1.
        -14    1    3    3    0    0  0.48972643602E+02 -0.60631135699E+00 -0.59159970701E+03  0.59362353455E+03  0.00000000000E+00 0.  1.
        -11    1    4    4    0    0 -0.12959791380E+01  0.51983911183E+02 -0.16379581795E+03  0.17185190299E+03  0.00000000000E+00 0. -1.
         11    1    4    4    0    0  0.58675584607E+02  0.41143308606E+01 -0.85650765145E+02  0.10390286578E+03  0.00000000000E+00 0.  1.
          2    1    1    2  501    0 -0.81460294365E+02 -0.65253239596E+02 -0.17293836426E+03  0.20199366988E+03  0.00000000000E+00 0. -1.
<scales pt_clust_5="13000.00000" pt_clust_6="13000.00000" pt_clust_7="13000.00000" pt_clust_8="13000.00000" pt_clust_9="94.21839"></scales>
<clustering>
<clus scale="   75.649">  5  6 -1 -1</clus>
<clus scale="   79.916">  2  5  1 -1</clus>
<clus scale="   85.893">  7  8 -1 -1</clus>
<clus scale="   94.218">  1  9  2 -1</clus>
<clus scale="   94.218">  1  5  2 -1</clus>
</clustering>
</event>
<event>
 9    1  0.8429841E-005  0.1252474E+03  0.7546771E-02  0.1242810E+00
         21   -1    0    0  501  502  0.00000000000E+00  0.00000000000E+00  0.32717674955E+02  0.32717674955E+02  0.00000000000E+00 0.  1.
         -2   -1    0    0    0  501 -0.00000000000E+00 -0.00000000000E+00 -0.99470889571E+03  0.99470889571E+03  0.00000000000E+00 0.  1.
        -24    2    1    2    0    0  0.23711466006E+02  0.80603674124E+02 -0.59958285956E+03  0.61078718276E+03  0.80636165858E+02 0.  0.
         23    2    1    2    0    0 -0.29152062624E+02 -0.37256034575E+02 -0.35403724366E+03  0.37215687949E+03  0.10450128319E+03 0.  0.
         11    1    3    3    0    0 -0.23396592319E+02  0.61044703019E+02 -0.32613735950E+03  0.33262506454E+03  0.00000000000E+00 0. -1.
        -12    1    3    3    0    0  0.47108058325E+02  0.19558971105E+02 -0.27344550006E+03  0.27816211822E+03  0.00000000000E+00 0.  1.
        -11    1    4    4    0    0 -0.99348474163E-01  0.26851649879E+02 -0.28738609033E+02  0.39331013469E+02  0.00000000000E+00 0.  1.
         11    1    4    4    0    0 -0.29052714150E+02 -0.64107684454E+02 -0.32529863462E+03  0.33282586602E+03  0.00000000000E+00 0. -1.
         -1    1    1    2    0  502  0.54405966181E+01 -0.43347639550E+02 -0.83711175420E+01  0.44482508416E+02  0.00000000000E+00 0.  1.
<scales pt_clust_5="13000.00000" pt_clust_6="13000.00000" pt_clust_7="13000.00000" pt_clust_8="13000.00000" pt_clust_9="43.68773"></scales>
<clustering>
<clus scale="   43.688">  1  9  2 -1</clus>
<clus scale="   80.636">  5  6 -1 -1</clus>
<clus scale="  104.501">  7  8 -1 -1</clus>
<clus scale="  106.154">  2  5  1 -1</clus>
<clus scale="   43.688">  1  5  2 -1</clus>
</clustering>
</event>
<event>
 9    1  0.8429841E-005  0.1455015E+03  0.7546771E-02  0.1222468E+00
          1   -1    0    0  502    0 -0.00000000000E+00  0.00000000000E+00  0.16995026295E+03  0.16995026295E+03  0.00000000000E+00 0. -1.
         21   -1    0    0  501  502  0.00000000000E+00 -0.00000000000E+00 -0.42274905330E+03  0.42274905330E+03  0.00000000000E+00 0. -1.
         23    2    1    2    0    0 -0.24703890897E+02 -0.31936985997E+02 -0.15482641797E+03  0.18588449267E+03  0.94612745522E+02 0.  0.
        -24    2    1    2    0    0  0.72217931673E+02  0.13893127325E+03  0.80480484833E+02  0.19338852758E+03  0.80029281022E+02 0.  0.
         11    1    4    4    0    0  0.67908964664E+02  0.71717372903E+02  0.78235546933E+02  0.12599924548E+03  0.00000000000E+00 0. -1.
        -12    1    4    4    0    0  0.43089670091E+01  0.67213900345E+02  0.22449378999E+01  0.67389282104E+02  0.00000000000E+00 0.  1.
        -11    1    3    3    0    0 -0.60413007739E+02 -0.11656984538E+02 -0.99421105035E+02  0.11691951471E+03  0.00000000000E+00 0.  1.
         11    1    3    3    0    0  0.35709116842E+02 -0.20280001459E+02 -0.55405312932E+02  0.68964977966E+02  0.00000000000E+00 0. -1.
          2    1    1    2  501    0 -0.47514040776E+02 -0.10699428725E+03 -0.17845285722E+03  0.21342629600E+03  0.00000000000E+00 0. -1.
<scales pt_clust_5="13000.00000" pt_clust_6="13000.00000" pt_clust_7="13000.00000" pt_clust_8="13000.00000" pt_clust_9="121.51546"></scales>
<clustering>
<clus scale="   80.029">  5  6 -1 -1</clus>
<clus scale="   94.613">  7  8 -1 -1</clus>
<clus scale="  102.868">  1  7  2 -1</clus>
<clus scale="  121.515">  2  9  1 -1</clus>
<clus scale="  121.515">  2  5  1 -1</clus>
</clustering>
</event>
<event>
 9    1  0.8429841E-005  0.2380214E+03  0.7546771E-02  0.1121385E+00
          1   -1    0    0  502    0 -0.00000000000E+00  0.00000000000E+00  0.23598850199E+03  0.23598850199E+03  0.00000000000E+00 0. -1.
         21   -1    0    0  501  502  0.00000000000E+00 -0.00000000000E+00 -0.27856418125E+03  0.27856418125E+03  0.00000000000E+00 0. -1.
         23    2    1    2    0    0 -0.22781466685E+03 -0.33994934770E+02  0.10850245968E+02  0.24499035933E+03  0.82748838686E+02 0.  0.
        -24    2    1    2    0    0  0.21588934097E+03  0.16667833949E+01 -0.43113132272E+02  0.23359460967E+03  0.78081456085E+02 0.  0.
         11    1    4    4    0    0  0.21967448403E+03  0.74759347507E+01 -0.34428413157E+02  0.22248164906E+03  0.00000000000E+00 0. -1.
        -12    1    4    4    0    0 -0.37851430670E+01 -0.58091513558E+01 -0.86847191144E+01  0.11112960614E+02  0.00000000000E+00 0.  1.
        -11    1    3    3    0    0 -0.74760741168E+02  0.15995275123E+02  0.31446567053E+02  0.82667429049E+02  0.00000000000E+00 0. -1.
         11    1    3    3    0    0 -0.15305392568E+03 -0.49990209893E+02 -0.20596321085E+02  0.16232293028E+03  0.00000000000E+00 0.  1.
          2    1    1    2  501    0  0.11925325886E+02  0.32328151375E+02 -0.10312792954E+02  0.35967714236E+02  0.00000000000E+00 0. -1.
<scales pt_clust_5="13000.00000" pt_clust_6="13000.00000" pt_clust_7="13000.00000" pt_clust_8="13000.00000" pt_clust_9="34.45755"></scales>
<clustering>
<clus scale="   34.458">  2  9  1 -1</clus>
<clus scale="   78.081">  5  6 -1 -1</clus>
<clus scale="   82.749">  7  8 -1 -1</clus>
<clus scale="  236.439">  2  5  1 -1</clus>
<clus scale="   34.458">  2  5  1 -1</clus>
</clustering>
</event>
<event>
 9    1  0.8429841E-005  0.9556441E+02  0.7546771E-02  0.1298077E+00
         -4   -1    0    0    0  501 -0.00000000000E+00  0.00000000000E+00  0.12429949307E+03  0.12429949307E+03  0.00000000000E+00 0.  1.
         21   -1    0    0  501  502  0.00000000000E+00 -0.00000000000E+00 -0.16867480817E+03  0.16867480817E+03  0.00000000000E+00 0.  1.
        -24    2    1    2    0    0 -0.28485545159E+02  0.41425267017E+01 -0.44181310313E+02  0.93461970731E+02  0.77165827809E+02 0.  0.
         23    2    1    2    0    0  0.16912108881E+02 -0.30154741112E+02 -0.72596197751E+02  0.12171350486E+03  0.91370900724E+02 0.  0.
         11    1    3    3    0    0 -0.44922349180E+02 -0.22236252339E+02 -0.19540624585E+02  0.53798739605E+02  0.00000000000E+00 0. -1.
        -12    1    3    3    0    0  0.16436804022E+02  0.26378779041E+02 -0.24640685729E+02  0.39663231125E+02  0.00000000000E+00 0.  1.
        -11    1    4    4    0    0 -0.11744858954E+01 -0.60877603423E+02 -0.36558866349E+02  0.71021213200E+02  0.00000000000E+00 0.  1.
         11    1    4    4    0    0  0.18086594776E+02  0.30722862311E+02 -0.36037331402E+02  0.50692291660E+02  0.00000000000E+00 0. -1.
         -3    1    1    2    0  502  0.11573436278E+02  0.26012214410E+02  0.72402192964E+02  0.77798825645E+02  0.00000000000E+00 0.  1.
<scales pt_clust_5="13000.00000" pt_clust_6="13000.00000" pt_clust_7="13000.00000" pt_clust_8="13000.00000" pt_clust_9="28.47070"></scales>
<clustering>
<clus scale="   28.471">  2  9  1 -1</clus>
<clus scale="   77.166">  5  6 -1 -1</clus>
<clus scale="   82.088">  1  5  2 -1</clus>
<clus scale="   91.371">  7  8 -1 -1</clus>
<clus scale="   28.471">  2  5  1 -1</clus>
</clustering>
</event>
<event>
 9    1  0.8429841E-005  0.1955517E+03  0.7546771E-02  0.1176411E+00
         -4   -1    0    0    0  501 -0.00000000000E+00  0.00000000000E+00  0.15975339793E+04  0.15975339793E+04  0.00000000000E+00 0.  1.
         21   -1    0    0  501  502  0.00000000000E+00 -0.00000000000E+00 -0.52053477785E+02  0.52053477785E+02  0.00000000000E+00 0.  1.
         23    2    1    2    0    0  0.18315440979E+02 -0.67058303561E+02  0.20562918035E+03  0.23578532088E+03  0.92081954149E+02 0.  0.
        -24    2    1    2    0    0  0.14926234420E+03  0.12413140709E+03  0.10745802142E+04  0.10948845709E+04  0.79760474906E+02 0.  0.
         13    1    4    4    0    0 -0.87007034029E-01  0.26466223346E+02  0.75784646307E+02  0.80273165904E+02  0.00000000000E+00 0. -1.
        -14    1    4    4    0    0  0.14934935123E+03  0.97665183746E+02  0.99879556786E+03  0.10146114050E+04  0.00000000000E+00 0.  1.
        -13    1    3    3    0    0  0.43049692343E+02 -0.24683877939E+01  0.53823249922E+02  0.68966014684E+02  0.00000000000E+00 0.  1.
         13    1    3    3    0    0 -0.24734251364E+02 -0.64589915767E+02  0.15180593042E+03  0.16681930620E+03  0.00000000000E+00 0. -1.
         -3    1    1    2    0  502 -0.16757778518E+03 -0.57073103531E+02  0.26527110703E+03  0.31891756530E+03  0.00000000000E+00 0.  1.
<scales pt_clust_5="13000.00000" pt_clust_6="13000.00000" pt_clust_7="13000.00000" pt_clust_8="13000.00000" pt_clust_9="178.54621"></scales>
<clustering>
<clus scale="   79.760">  5  6 -1 -1</clus>
<clus scale="   92.082">  7  8 -1 -1</clus>
<clus scale="  115.375">  1  7  2 -1</clus>
<clus scale="  178.546">  2  9  1 -1</clus>
<clus scale="  178.546">  2  5  1 -1</clus>
</clustering>
</event>
<event>
 9    1  0.8429841E-005  0.1054824E+03  0.7546771E-02  0.1278712E+00
          1   -1    0    0  502    0 -0.00000000000E+00  0.00000000000E+00  0.44751262208E+03  0.44751262208E+03  0.00000000000E+00 0. -1.
         21   -1    0    0  501  502  0.00000000000E+00 -0.00000000000E+00 -0.35070515621E+02  0.35070515621E+02  0.00000000000E+00 0.  1.
         23    2    1    2    0    0 -0.39995835994E+02 -0.21896441031E+02  0.30182892738E+03  0.32074657135E+03  0.98481168778E+02 0.  0.
        -24    2    1    2    0    0  0.12014676676E+02  0.26968353485E+02  0.10117208234E+03  0.13187319070E+03  0.79266030771E+02 0.  0.
         13    1    4    4    0    0  0.60630902078E+01 -0.27735612493E+02  0.24510594469E+02  0.37507259357E+02  0.00000000000E+00 0. -1.
        -14    1    4    4    0    0  0.59515864681E+01  0.54703965977E+02  0.76661487875E+02  0.94365931343E+02  0.00000000000E+00 0.  1.
        -11    1    3    3    0    0 -0.55618633850E+02  0.21274377950E+02  0.20689268896E+03  0.21529193281E+03  0.00000000000E+00 0.  1.
         11    1    3    3    0    0  0.15622797856E+02 -0.43170818981E+02  0.94936238418E+02  0.10545463854E+03  0.00000000000E+00 0. -1.
          2    1    1    2  501    0  0.27981159318E+02 -0.50719124536E+01  0.94410967336E+01  0.29963375648E+02  0.00000000000E+00 0. -1.
<scales pt_clust_5="13000.00000" pt_clust_6="13000.00000" pt_clust_7="13000.00000" pt_clust_8="13000.00000" pt_clust_9="28.43712"></scales>
<clustering>
<clus scale="   28.437">  2  9  1 -1</clus>
<clus scale="   79.266">  5  6 -1 -1</clus>
<clus scale="   87.813">  2  5  1 -1</clus>
<clus scale="   98.481">  7  8 -1 -1</clus>
<clus scale="   28.437">  2  5  1 -1</clus>
</clustering>
</event>
<event>
 9    1  0.8429841E-005  0.1519626E+03  0.7546771E-02  0.1218785E+00
         21   -1    0    0  501  502  0.00000000000E+00  0.00000000000E+00  0.65505183481E+02  0.65505183481E+02  0.00000000000E+00 0.  1.
         -2   -1    0    0    0  501 -0.00000000000E+00 -0.00000000000E+00 -0.62894142201E+03  0.62894142201E+03  0.00000000000E+00 0.  1.
         23    2    1    2    0    0 -0.16449790296E+02 -0.24094101560E+02 -0.23266636698E+03  0.25228795572E+03  0.93083043285E+02 0.  0.
        -24    2    1    2    0    0 -0.11012361720E+03  0.11308469654E+02 -0.25966701961E+03  0.29641944632E+03  0.90456810303E+02 0.  0.
         11    1    4    4    0    0 -0.91559342888E+02 -0.30931475816E+02 -0.16873641143E+03  0.19445268322E+03  0.00000000000E+00 0. -1.
        -12    1    4    4    0    0 -0.18564274315E+02  0.42239945470E+02 -0.90930608175E+02  0.10196676310E+03  0.00000000000E+00 0.  1.
        -13    1    3    3    0    0 -0.37278153219E+02 -0.41652275172E+02 -0.20852977007E+03  0.21589172689E+03  0.00000000000E+00 0.  1.
         13    1    3    3    0    0  0.20828362923E+02  0.17558173611E+02 -0.24136596909E+02  0.36396228829E+02  0.00000000000E+00 0. -1.
         -1    1    1    2    0  502  0.12657340750E+03  0.12785631906E+02 -0.71102851942E+02  0.14573920345E+03  0.00000000000E+00 0.  1.
<scales pt_clust_5="13000.00000" pt_clust_6="13000.00000" pt_clust_7="13000.00000" pt_clust_8="13000.00000" pt_clust_9="122.10727"></scales>
<clustering>
<clus scale="   90.457">  5  6 -1 -1</clus>
<clus scale="   93.083">  7  8 -1 -1</clus>
<clus scale="   97.548">  2  7  1 -1</clus>
<clus scale="  122.107">  1  9  2 -1</clus>
<clus scale="  122.107">  1  5  2 -1</clus>
</clustering>
</event>
<event>
 9    1  0.8429841E-005  0.1575181E+03  0.7546771E-02  0.1213884E+00
         21   -1    0    0  501  502  0.00000000000E+00  0.00000000000E+00  0.14108125540E+03  0.14108125540E+03  0.00000000000E+00 0. -1.
          1   -1    0    0  502    0 -0.00000000000E+00 -0.00000000000E+00 -0.32621081665E+03  0.32621081665E+03  0.00000000000E+00 0. -1.
         23    2    1    2    0    0  0.18312955148E+02  0.12672578685E+02 -0.13979404928E+03  0.17023172794E+03  0.94554251129E+02 0.  0.
        -24    2    1    2    0    0  0.12091091542E+03  0.27195093684E+02 -0.33914043075E+02  0.15179105145E+03  0.80816696260E+02 0.  0.
         11    1    4    4    0    0  0.10004412915E+03 -0.82849131726E+00  0.41360358026E+01  0.10013301637E+03  0.00000000000E+00 0. -1.
        -12    1    4    4    0    0  0.20866786269E+02  0.28023585001E+02 -0.38050078878E+02  0.51658035078E+02  0.00000000000E+00 0.  1.
        -11    1    3    3    0    0  0.94728679285E+01 -0.40930821315E+02 -0.50287137641E+02  0.65527578716E+02  0.00000000000E+00 0. -1.
         11    1    3    3    0    0  0.88400872191E+01  0.53603400000E+02 -0.89506911637E+02  0.10470414922E+03  0.00000000000E+00 0.  1.
          2    1    1    2  501    0 -0.13922387057E+03 -0.39867672369E+02 -0.11421468896E+02  0.14526929265E+03  0.00000000000E+00 0. -1.
<scales pt_clust_5="13000.00000" pt_clust_6="13000.00000" pt_clust_7="13000.00000" pt_clust_8="13000.00000" pt_clust_9="135.20585"></scales>
<clustering>
<clus scale="   80.817">  5  6 -1 -1</clus>
<clus scale="   94.554">  7  8 -1 -1</clus>
<clus scale="   97.141">  2  7  1 -1</clus>
<clus scale="  135.206">  1  9  2 -1</clus>
<clus scale="  135.206">  1  5  2 -1</clus>
</clustering>
</event>
<event>
 9    1  0.8429841E-005  0.1599339E+03  0.7546771E-02  0.1191469E+00
         -2   -1    0    0    0  501 -0.00000000000E+00  0.00000000000E+00  0.19326136052E+03  0.19326136052E+03  0.00000000000E+00 0.  1.
         21   -1    0    0  501  502  0.00000000000E+00 -0.00000000000E+00 -0.37836253898E+03  0.37836253898E+03  0.00000000000E+00 0. -1.
         23    2    1    2    0    0  0.48534979921E+02 -0.11941297352E+03  0.80220156553E+01  0.15724586721E+03  0.89703999356E+02 0.  0.
        -24    2    1    2    0    0 -0.11325880406E+03  0.10823800588E+03 -0.26555547577E+03  0.31660028053E+03  0.71923600481E+02 0.  0.
         11    1    4    4    0    0 -0.81822047762E+02  0.30032677661E+02 -0.11850280333E+03  0.14710446501E+03  0.00000000000E+00 0. -1.
        -12    1    4    4    0    0 -0.31436756297E+02  0.78205328222E+02 -0.14705267244E+03  0.16949581552E+03  0.00000000000E+00 0.  1.
        -11    1    3    3    0    0 -0.82730709885E+01 -0.61623579679E+02  0.35599144458E+02  0.71646412068E+02  0.00000000000E+00 0.  1.
         11    1    3    3    0    0  0.56808050910E+02 -0.57789393837E+02 -0.27577128802E+02  0.85599455146E+02  0.00000000000E+00 0. -1.
         -1    1    1    2    0  502  0.64723824138E+02  0.11174967634E+02  0.72432281652E+02  0.97777751754E+02  0.00000000000E+00 0.  1.
<scales pt_clust_5="13000.00000" pt_clust_6="13000.00000" pt_clust_7="13000.00000" pt_clust_8="13000.00000" pt_clust_9="65.68149"></scales>
<clustering>
<clus scale="   65.681">  2  9  1 -1</clus>
<clus scale="   71.924">  5  6 -1 -1</clus>
<clus scale="   89.704">  7  8 -1 -1</clus>
<clus scale="  150.682">  2  5  1 -1</clus>
<clus scale="   65.681">  2  5  1 -1</clus>
</clustering>
</event>
<event>
 9    1  0.8429841E-005  0.1036426E+03  0.7546771E-02  0.1279290E+00
         -2   -1    0    0    0  501 -0.00000000000E+00  0.00000000000E+00  0.90513573772E+03  0.90513573772E+03  0.00000000000E+00 0.  1.
         21   -1    0    0  501  502  0.00000000000E+00 -0.00000000000E+00 -0.21675770681E+02  0.21675770681E+02  0.00000000000E+00 0.  1.
        -24    2    1    2    0    0  0.16361857495E+02  0.61857861816E+02  0.54569364111E+03  0.55492947726E+03  0.77917067036E+02 0.  0.
         23    2    1    2    0    0  0.34232851985E+01 -0.24196586864E+02  0.30104977743E+03  0.31568658260E+03  0.91814248612E+02 0.  0.
         13    1    3    3    0    0  0.31287290525E+02  0.24846057160E+02  0.10357783343E+03  0.11101616406E+03  0.00000000000E+00 0. -1.
        -14    1    3    3    0    0 -0.14925433030E+02  0.37011804656E+02  0.44211580768E+03  0.44391331320E+03  0.00000000000E+00 0.  1.
        -13    1    4    4    0    0 -0.32119125448E+02  0.20116573799E+02  0.10826059972E+03  0.11470253795E+03  0.00000000000E+00 0. -1.
         13    1    4    4    0    0  0.35542410647E+02 -0.44313160663E+02  0.19278917771E+03  0.20098404465E+03  0.00000000000E+00 0.  1.
         -1    1    1    2    0  502 -0.19785142693E+02 -0.37661274952E+02  0.36716548494E+02  0.56195448532E+02  0.00000000000E+00 0.  1.
<scales pt_clust_5="13000.00000" pt_clust_6="13000.00000" pt_clust_7="13000.00000" pt_clust_8="13000.00000" pt_clust_9="42.54202"></scales>
<clustering>
<clus scale="   42.542">  2  9  1 -1</clus>
<clus scale="   77.917">  5  6 -1 -1</clus>
<clus scale="   91.559">  1  5  2 -1</clus>
<clus scale="   91.814">  7  8 -1 -1</clus>
<clus scale="   42.542">  2  5  1 -1</clus>
</clustering>
</event>
<event>
 9    1  0.8429841E-005  0.1612743E+03  0.7546771E-02  0.1188938E+00
         21   -1    0    0  501  502  0.00000000000E+00  0.00000000000E+00  0.14456351737E+03  0.14456351737E+03  0.00000000000E+00 0. -1.
          1   -1    0    0  502    0 -0.00000000000E+00 -0.00000000000E+00 -0.32136765114E+03  0.32136765114E+03  0.00000000000E+00 0. -1.
        -24    2    1    2    0    0 -0.13458051123E+02  0.13389915236E+03 -0.12602025422E+03  0.20135894283E+03  0.80958120292E+02 0.  0.
         23    2    1    2    0    0  0.96609953573E+02 -0.11043154195E+03 -0.28762893038E+02  0.17541006181E+03  0.91721192649E+02 0.  0.
         13    1    3    3    0    0 -0.41230853092E+02  0.11706653616E+03 -0.93429677423E+02  0.15535012636E+03  0.00000000000E+00 0. -1.
        -14    1    3    3    0    0  0.27772801969E+02  0.16832616195E+02 -0.32590576797E+02  0.46008816472E+02  0.00000000000E+00 0.  1.
        -11    1    4    4    0    0  0.11865853239E+02 -0.83049074224E+02 -0.16701806850E+02  0.85538865755E+02  0.00000000000E+00 0. -1.
         11    1    4    4    0    0  0.84744100333E+02 -0.27382467726E+02 -0.12061086188E+02  0.89871196054E+02  0.00000000000E+00 0.  1.
          2    1    1    2  501    0 -0.83151902449E+02 -0.23467610405E+02 -0.22020986510E+02  0.89162163870E+02  0.00000000000E+00 0. -1.
<scales pt_clust_5="13000.00000" pt_clust_6="13000.00000" pt_clust_7="13000.00000" pt_clust_8="13000.00000" pt_clust_9="86.40004"></scales>
<clustering>
<clus scale="   80.958">  5  6 -1 -1</clus>
<clus scale="   86.400">  1  9  2 -1</clus>
<clus scale="   91.721">  7  8 -1 -1</clus>
<clus scale="  155.405">  2  5  1 -1</clus>
<clus scale="   86.400">  1  5  2 -1</clus>
</clustering>
</event>
<event>
 9    1  0.8429841E-005  0.9535109E+02  0.7546771E-02  0.1296968E+00
         21   -1    0    0  501  502  0.00000000000E+00  0.00000000000E+00  0.72648736839E+02  0.72648736839E+02  0.00000000000E+00 0.  1.
         -4   -1    0    0    0  501 -0.00000000000E+00 -0.00000000000E+00 -0.27661590471E+03  0.27661590471E+03  0.00000000000E+00 0.  1.
        -24    2    1    2    0    0 -0.33525407127E+02 -0.13038648960E+02 -0.18532394651E+03  0.20510176011E+03  0.80173608879E+02 0.  0.
         23    2    1    2    0    0 -0.41127663884E+01  0.15945154467E+00 -0.38723984354E+02  0.99601206494E+02  0.91672859117E+02 0.  0.
         11    1    3    3    0    0  0.26271144516E+02 -0.94422750507E+01 -0.55649527832E+02  0.62259132183E+02  0.00000000000E+00 0. -1.
        -12    1    3    3    0    0 -0.59796551643E+02 -0.35963739094E+01 -0.12967441868E+03  0.14284262793E+03  0.00000000000E+00 0.  1.
        -11    1    4    4    0    0 -0.40622951263E+02 -0.10688778187E+02  0.42002036046E+01  0.42215114104E+02  0.00000000000E+00 0.  1.
         11    1    4    4    0    0  0.36510184875E+02  0.10848229731E+02 -0.42924187959E+02  0.57386092390E+02  0.00000000000E+00 0. -1.
         -3    1    1    2    0  502  0.37638173515E+02  0.12879197415E+02  0.20080762992E+02  0.44561674946E+02  0.00000000000E+00 0.  1.
<scales pt_clust_5="13000.00000" pt_clust_6="13000.00000" pt_clust_7="13000.00000" pt_clust_8="13000.00000" pt_clust_9="39.78072"></scales>
<clustering>
<clus scale="   39.781">  1  9  2 -1</clus>
<clus scale="   80.174">  5  6 -1 -1</clus>
<clus scale="   84.355">  2  5  1 -1</clus>
<clus scale="   91.673">  7  8 -1 -1</clus>
<clus scale="   39.781">  1  5  2 -1</clus>
</clustering>
</event>
<event>
 9    1  0.8429841E-005  0.1089965E+03  0.7546771E-02  0.1266204E+00
          1   -1    0    0  502    0 -0.00000000000E+00  0.00000000000E+00  0.52422707872E+03  0.52422707872E+03  0.00000000000E+00 0. -1.
         21   -1    0    0  501  502  0.00000000000E+00 -0.00000000000E+00 -0.62904091262E+02  0.62904091262E+02  0.00000000000E+00 0.  1.
        -24    2    1    2    0    0 -0.44139141219E+02  0.36222421556E+02  0.25926627595E+03  0.27743911838E+03  0.80579991025E+02 0.  0.
         23    2    1    2    0    0  0.97345015452E+02 -0.71833838152E+01  0.43225035522E+02  0.13968725148E+03  0.90091461827E+02 0.  0.
         13    1    3    3    0    0 -0.46220899877E+02  0.29873990741E+02  0.26372545474E+03  0.26940664874E+03  0.00000000000E+00 0. -1.
        -14    1    3    3    0    0  0.20817586584E+01  0.63484308145E+01 -0.44591787964E+01  0.80324696362E+01  0.00000000000E+00 0.  1.
        -11    1    4    4    0    0  0.22960854776E+02 -0.32349699283E+02  0.46463157291E+02  0.61094425942E+02  0.00000000000E+00 0. -1.
         11    1    4    4    0    0  0.74384160676E+02  0.25166315468E+02 -0.32381217692E+01  0.78592825539E+02  0.00000000000E+00 0.  1.
          2    1    1    2  501    0 -0.53205874233E+02 -0.29039037741E+02  0.15883167599E+03  0.17000480012E+03  0.00000000000E+00 0. -1.
<scales pt_clust_5="13000.00000" pt_clust_6="13000.00000" pt_clust_7="13000.00000" pt_clust_8="13000.00000" pt_clust_9="60.61464"></scales>
<clustering>
<clus scale="   60.615">  2  9  1 -1</clus>
<clus scale="   80.580">  5  6 -1 -1</clus>
<clus scale="   90.091">  7  8 -1 -1</clus>
<clus scale="  101.276">  1  5  2 -1</clus>
<clus scale="   60.615">  2  5  1 -1</clus>
</clustering>
</event>
<event>
 9    1  0.8429841E-005  0.4127443E+03  0.7546771E-02  0.1039454E+00
         21   -1    0    0  501  502  0.00000000000E+00  0.00000000000E+00  0.87276870480E+03  0.87276870480E+03  0.00000000000E+00 0. -1.
          3   -1    0    0  502    0 -0.00000000000E+00 -0.00000000000E+00 -0.19126096183E+03  0.19126096183E+03  0.00000000000E+00 0. -1.
        -24    2    1    2    0    0 -0.97531875801E+02 -0.11856644963E+02  0.12325607375E+03  0.17828186327E+03  0.83302558344E+02 0.  0.
         23    2    1    2    0    0 -0.22288440129E+03 -0.10508276967E+03  0.40542199820E+02  0.26577642336E+03  0.90959289954E+02 0.  0.
         11    1    3    3    0    0 -0.75274358131E+02  0.24715448887E+02  0.10549137202E+03  0.13192995102E+03  0.00000000000E+00 0. -1.
        -12    1    3    3    0    0 -0.22257517670E+02 -0.36572093851E+02  0.17764701735E+02  0.46351912250E+02  0.00000000000E+00 0.  1.
        -13    1    4    4    0    0 -0.72272849350E+02 -0.83059884480E+02  0.23809094718E+02  0.11264627004E+03  0.00000000000E+00 0.  1.
         13    1    4    4    0    0 -0.15061155194E+03 -0.22022885193E+02  0.16733105103E+02  0.15313015332E+03  0.00000000000E+00 0. -1.
          4    1    1    2  501    0  0.32041627709E+03  0.11693941464E+03  0.51770946940E+03  0.61997138000E+03  0.00000000000E+00 0. -1.
<scales pt_clust_5="13000.00000" pt_clust_6="13000.00000" pt_clust_7="13000.00000" pt_clust_8="13000.00000" pt_clust_9="341.08858"></scales>
<clustering>
<clus scale="   83.303">  5  6 -1 -1</clus>
<clus scale="   90.959">  7  8 -1 -1</clus>
<clus scale="  122.915">  5  7 -1 -1</clus>
<clus scale="  341.089">  1  9  2 -1</clus>
<clus scale="  341.089">  1  5  2 -1</clus>
</clustering>
</event>
<event>
 9    1  0.8429841E-005  0.2789957E+03  0.7546771E-02  0.1096656E+00
          1   -1    0    0  502    0 -0.00000000000E+00  0.00000000000E+00  0.56359731513E+03  0.56359731513E+03  0.00000000000E+00 0. -1.
         21   -1    0    0  501  502  0.00000000000E+00 -0.00000000000E+00 -0.19178114237E+03  0.19178114237E+03  0.00000000000E+00 0. -1.
         23    2    1    2    0    0  0.20936907929E+03  0.12501535363E+03  0.15906711893E+03  0.30483063486E+03  0.90305689856E+02 0.  0.
        -24    2    1    2    0    0 -0.24960979434E+03 -0.15792146745E+03  0.92919627673E+02  0.31992922195E+03  0.80476148845E+02 0.  0.
         13    1    4    4    0    0 -0.15155734846E+03 -0.13981728032E+03  0.68400218687E+02  0.21724891637E+03  0.00000000000E+00 0. -1.
        -14    1    4    4    0    0 -0.98052445888E+02 -0.18104187133E+02  0.24519408986E+02  0.10268030558E+03  0.00000000000E+00 0.  1.
        -13    1    3    3    0    0  0.82763972340E+02  0.74084628488E+02  0.11859431645E+03  0.16249005874E+03  0.00000000000E+00 0.  1.
         13    1    3    3    0    0  0.12660510695E+03  0.50930725143E+02  0.40472802474E+02  0.14234057612E+03  0.00000000000E+00 0. -1.
          2    1    1    2  501    0  0.40240715052E+02  0.32906113820E+02  0.11982942615E+03  0.13061860069E+03  0.00000000000E+00 0. -1.
<scales pt_clust_5="13000.00000" pt_clust_6="13000.00000" pt_clust_7="13000.00000" pt_clust_8="13000.00000" pt_clust_9="51.98202"></scales>
<clustering>
<clus scale="   51.982">  2  9  1 -1</clus>
<clus scale="   80.476">  5  6 -1 -1</clus>
<clus scale="   90.306">  7  8 -1 -1</clus>
<clus scale="  275.971">  2  5  1 -1</clus>
<clus scale="   51.982">  2  5  1 -1</clus>
</clustering>
</event>
<event>
 9    1  0.8429841E-005  0.1214310E+03  0.7546771E-02  0.1255887E+00
         21   -1    0    0  501  502  0.00000000000E+00  0.00000000000E+00  0.97921932867E+02  0.97921932867E+02  0.00000000000E+00 0. -1.
          1   -1    0    0  502    0 -0.00000000000E+00 -0.00000000000E+00 -0.34653681657E+03  0.34653681657E+03  0.00000000000E+00 0. -1.
        -24    2    1    2    0    0  0.38782339070E+02 -0.15495605314E+02 -0.75253862938E+02  0.11706733171E+03  0.79356364955E+02 0.  0.
         23    2    1    2    0    0 -0.18624241752E+02 -0.76721667473E+02  0.10525488944E+02  0.12069206422E+03  0.90679169643E+02 0.  0.
         13    1    3    3    0    0  0.12182540997E+02 -0.32633969677E+02 -0.77880442667E+02  0.85315611889E+02  0.00000000000E+00 0. -1.
        -14    1    3    3    0    0  0.26599798073E+02  0.17138364362E+02  0.26265797291E+01  0.31751719821E+02  0.00000000000E+00 0.  1.
        -13    1    4    4    0    0 -0.21044060395E+02  0.84639043664E+01  0.25541500010E+02  0.34159308801E+02  0.00000000000E+00 0.  1.
         13    1    4    4    0    0  0.24198186422E+01 -0.85185571839E+02 -0.15016011066E+02  0.86532755417E+02  0.00000000000E+00 0. -1.
          2    1    1    2  501    0 -0.20158097317E+02  0.92217272787E+02 -0.18388650971E+03  0.20669935351E+03  0.00000000000E+00 0. -1.
<scales pt_clust_5="13000.00000" pt_clust_6="13000.00000" pt_clust_7="13000.00000" pt_clust_8="13000.00000" pt_clust_9="80.76379"></scales>
<clustering>
<clus scale="   79.356">  5  6 -1 -1</clus>
<clus scale="   89.675">  2  5  1 -1</clus>
<clus scale="   80.764">  1  9  2 -1</clus>
<clus scale="   90.679">  7  8 -1 -1</clus>
<clus scale="   80.764">  1  5  2 -1</clus>
</clustering>
</event>
<event>
 9    1  0.8429841E-005  0.1064130E+03  0.7546771E-02  0.1269704E+00
         21   -1    0    0  501  502  0.00000000000E+00  0.00000000000E+00  0.36442382168E+02  0.36442382168E+02  0.00000000000E+00 0.  1.
         -4   -1    0    0    0  501 -0.00000000000E+00 -0.00000000000E+00 -0.61730282577E+03  0.61730282577E+03  0.00000000000E+00 0.  1.
         23    2    1    2    0    0  0.29042563639E+02  0.33297742671E+02 -0.25448583800E+03  0.27393448479E+03  0.91240616203E+02 0.  0.
        -24    2    1    2    0    0 -0.59354737883E+02 -0.56774528226E+02 -0.11597342600E+03  0.16594477507E+03  0.85682558737E+02 0.  0.
         13    1    4    4    0    0  0.18251273867E+02 -0.24483265783E+02 -0.13449422391E+02  0.33368042553E+02  0.00000000000E+00 0. -1.
        -14    1    4    4    0    0 -0.77606011750E+02 -0.32291262443E+02 -0.10252400361E+03  0.13257673252E+03  0.00000000000E+00 0.  1.
        -11    1    3    3    0    0  0.24860174604E+02  0.61119461739E+02 -0.12412793746E+03  0.14057511068E+03  0.00000000000E+00 0.  1.
         11    1    3    3    0    0  0.41823890343E+01 -0.27821719068E+02 -0.13035790054E+03  0.13335937411E+03  0.00000000000E+00 0. -1.
         -3    1    1    2    0  502  0.30312174245E+02  0.23476785554E+02 -0.21040117960E+03  0.21386594807E+03  0.00000000000E+00 0.  1.
<scales pt_clust_5="13000.00000" pt_clust_6="13000.00000" pt_clust_7="13000.00000" pt_clust_8="13000.00000" pt_clust_9="38.34043"></scales>
<clustering>
<clus scale="   38.340">  1  9  2 -1</clus>
<clus scale="   85.683">  5  6 -1 -1</clus>
<clus scale="   91.241">  7  8 -1 -1</clus>
<clus scale="  101.688">  1  5  2 -1</clus>
<clus scale="   38.340">  1  5  2 -1</clus>
</clustering>
</event>
<event>
 9    1  0.8429841E-005  0.1027713E+03  0.7546771E-02  0.1280815E+00
          1   -1    0    0  502    0 -0.00000000000E+00  0.00000000000E+00  0.62745595660E+03  0.62745595660E+03  0.00000000000E+00 0. -1.
         21   -1    0    0  501  502  0.00000000000E+00 -0.00000000000E+00 -0.26103306223E+02  0.26103306223E+02  0.00000000000E+00 0.  1.
        -24    2    1    2    0    0 -0.83970821481E+01  0.32219566840E+02  0.21114451460E+03  0.22842338085E+03  0.80539576588E+02 0.  0.
         23    2    1    2    0    0  0.29402499267E+02 -0.54384869960E+02  0.17508681811E+03  0.20785792744E+03  0.93420035757E+02 0.  0.
         11    1    3    3    0    0  0.32139539559E+01  0.57708003294E+02  0.15988313052E+03  0.17000928965E+03  0.00000000000E+00 0. -1.
        -12    1    3    3    0    0 -0.11611036104E+02 -0.25488436454E+02  0.51261384087E+02  0.58414091200E+02  0.00000000000E+00 0.  1.
        -11    1    4    4    0    0 -0.21624289005E+02 -0.10519233822E+02  0.44804956231E+01  0.24460968832E+02  0.00000000000E+00 0.  1.
         11    1    4    4    0    0  0.51026788271E+02 -0.43865636138E+02  0.17060632248E+03  0.18339695861E+03  0.00000000000E+00 0. -1.
          2    1    1    2  501    0 -0.21005417119E+02  0.22165303120E+02  0.21512131767E+03  0.21727795453E+03  0.00000000000E+00 0. -1.
<scales pt_clust_5="13000.00000" pt_clust_6="13000.00000" pt_clust_7="13000.00000" pt_clust_8="13000.00000" pt_clust_9="30.53734"></scales>
<clustering>
<clus scale="   30.537">  2  9  1 -1</clus>
<clus scale="   80.540">  5  6 -1 -1</clus>
<clus scale="   91.221">  1  5  2 -1</clus>
<clus scale="   93.420">  7  8 -1 -1</clus>
<clus scale="   30.537">  2  5  1 -1</clus>
</clustering>
</event>
<event>
 9    1  0.8429841E-005  0.9299060E+02  0.7546771E-02  0.1304543E+00
         21   -1    0    0  501  502  0.00000000000E+00  0.00000000000E+00  0.69178430776E+02  0.69178430776E+02  0.00000000000E+00 0.  1.
          1   -1    0    0  502    0 -0.00000000000E+00 -0.00000000000E+00 -0.25403336503E+03  0.25403336503E+03  0.00000000000E+00 0. -1.
         23    2    1    2    0    0  0.56829765612E+01 -0.70071926531E+01 -0.16460519408E+03  0.18856792993E+03  0.91551063940E+02 0.  0.
        -24    2    1    2    0    0  0.95088759374E+01  0.46469808739E+02 -0.12185717039E+02  0.91595998099E+02  0.77404607887E+02 0.  0.
         13    1    4    4    0    0 -0.63663782884E+01  0.55459195883E+02 -0.32256525260E+02  0.64472758606E+02  0.00000000000E+00 0. -1.
        -14    1    4    4    0    0  0.15875254226E+02 -0.89893871435E+01  0.20070808221E+02  0.27123239493E+02  0.00000000000E+00 0.  1.
        -13    1    3    3    0    0 -0.14099036730E+02 -0.43610172399E+02 -0.11516667259E+03  0.12395157300E+03  0.00000000000E+00 0. -1.
         13    1    3    3    0    0  0.19782013291E+02  0.36602979746E+02 -0.49438521496E+02  0.64616356937E+02  0.00000000000E+00 0.  1.
          2    1    1    2  501    0 -0.15191852499E+02 -0.39462616086E+02 -0.80640231302E+01  0.43047867772E+02  0.00000000000E+00 0. -1.
<scales pt_clust_5="13000.00000" pt_clust_6="13000.00000" pt_clust_7="13000.00000" pt_clust_8="13000.00000" pt_clust_9="42.28582"></scales>
<clustering>
<clus scale="   42.286">  1  9  2 -1</clus>
<clus scale="   77.405">  5  6 -1 -1</clus>
<clus scale="   79.102">  1  5  2 -1</clus>
<clus scale="   91.551">  7  8 -1 -1</clus>
<clus scale="   42.286">  1  5  2 -1</clus>
</clustering>
</event>
<event>
 9    1  0.8429841E-005  0.9261790E+02  0.7546771E-02  0.1299336E+00
          1   -1    0    0  502    0 -0.00000000000E+00  0.00000000000E+00  0.10125096892E+04  0.10125096892E+04  0.00000000000E+00 0. -1.
         21   -1    0    0  501  502  0.00000000000E+00 -0.00000000000E+00 -0.26415020516E+02  0.26415020516E+02  0.00000000000E+00 0. -1.
         23    2    1    2    0    0  0.19028338974E+02  0.98187645382E+01  0.17975671599E+03  0.20151516897E+03  0.88529094437E+02 0.  0.
        -24    2    1    2    0    0  0.68049767452E+02 -0.23211587174E+02  0.21891982240E+03  0.24342130507E+03  0.78476075930E+02 0.  0.
         13    1    4    4    0    0  0.30082726508E+02 -0.18819620268E+02  0.19528714713E+03  0.19848480641E+03  0.00000000000E+00 0. -1.
        -14    1    4    4    0    0  0.37967040944E+02 -0.43919669060E+01  0.23632675265E+02  0.44936498657E+02  0.00000000000E+00 0.  1.
        -11    1    3    3    0    0  0.12146801092E+01  0.43416772593E+02  0.49659621299E+02  0.65974006834E+02  0.00000000000E+00 0. -1.
         11    1    3    3    0    0  0.17813658865E+02 -0.33598008054E+02  0.13009709469E+03  0.13554116214E+03  0.00000000000E+00 0.  1.
          2    1    1    2  501    0 -0.87078106427E+02  0.13392822636E+02  0.58741813028E+03  0.59398823566E+03  0.00000000000E+00 0. -1.
<scales pt_clust_5="13000.00000" pt_clust_6="13000.00000" pt_clust_7="13000.00000" pt_clust_8="13000.00000" pt_clust_9="88.10205"></scales>
<clustering>
<clus scale="   78.476">  5  6 -1 -1</clus>
<clus scale="   88.102">  2  9  1 -1</clus>
<clus scale="   88.102">  2  5  1 -1</clus>
<clus scale="   88.529">  7  8 -1 -1</clus>
<clus scale="   88.102">  2  5  1 -1</clus>
</clustering>
</event>
<event>
 9    1  0.8429841E-005  0.1964052E+03  0.7546771E-02  0.1179427E+00
         -2   -1    0    0    0  501 -0.00000000000E+00  0.00000000000E+00  0.64212642126E+03  0.64212642126E+03  0.00000000000E+00 0.  1.
         21   -1    0    0  501  502  0.00000000000E+00 -0.00000000000E+00 -0.13124042826E+03  0.13124042826E+03  0.00000000000E+00 0.  1.
        -24    2    1    2    0    0  0.57272483939E+02  0.38794764149E+02  0.31393390494E+02  0.11092169386E+03  0.80826394574E+02 0.  0.
         23    2    1    2    0    0  0.17938718447E+02 -0.19330558544E+03  0.43506312048E+03  0.48495065509E+03  0.90600066693E+02 0.  0.
         13    1    3    3    0    0  0.26625175902E+02 -0.14648414825E+02 -0.14914351444E+02  0.33851350456E+02  0.00000000000E+00 0. -1.
        -14    1    3    3    0    0  0.30647308037E+02  0.53443178974E+02  0.46307741938E+02  0.77070343403E+02  0.00000000000E+00 0.  1.
        -13    1    4    4    0    0  0.53358965225E+01 -0.10886077527E+03  0.34063137198E+03  0.35764349814E+03  0.00000000000E+00 0.  1.
         13    1    4    4    0    0  0.12602821924E+02 -0.84444810172E+02  0.94431748500E+02  0.12730715695E+03  0.00000000000E+00 0. -1.
         -1    1    1    2    0  502 -0.75211202385E+02  0.15451082129E+03  0.44429482022E+02  0.17749450057E+03  0.00000000000E+00 0.  1.
<scales pt_clust_5="13000.00000" pt_clust_6="13000.00000" pt_clust_7="13000.00000" pt_clust_8="13000.00000" pt_clust_9="174.26022"></scales>
<clustering>
<clus scale="   80.826">  5  6 -1 -1</clus>
<clus scale="   90.600">  7  8 -1 -1</clus>
<clus scale="  106.387">  1  5  2 -1</clus>
<clus scale="  174.260">  2  9  1 -1</clus>
<clus scale="  174.260">  2  5  1 -1</clus>
</clustering>
</event>
<event>
 9    1  0.8429841E-005  0.2640718E+03  0.7546771E-02  0.1105690E+00
         21   -1    0    0  501  502  0.00000000000E+00  0.00000000000E+00  0.18767355701E+03  0.18767355701E+03  0.00000000000E+00 0.  1.
         -2   -1    0    0    0  501 -0.00000000000E+00 -0.00000000000E+00 -0.48410812097E+03  0.48410812097E+03  0.00000000000E+00 0.  1.
         23    2    1    2    0    0 -0.89896132418E+02  0.25761673339E+03 -0.23103142056E+03  0.37071264826E+03  0.98003338428E+02 0.  0.
        -24    2    1    2    0    0  0.93240898629E+02 -0.18949958528E+03 -0.55326787008E+02  0.23212944541E+03  0.78861068141E+02 0.  0.
         13    1    4    4    0    0  0.66041958403E+02 -0.16167451212E+03 -0.73134267392E+02  0.18933781769E+03  0.00000000000E+00 0. -1.
        -14    1    4    4    0    0  0.27198940226E+02 -0.27825073155E+02  0.17807480384E+02  0.42791627723E+02  0.00000000000E+00 0.  1.
        -13    1    3    3    0    0 -0.30779505501E+02  0.20932935665E+03 -0.18828751347E+03  0.28322843297E+03  0.00000000000E+00 0.  1.
         13    1    3    3    0    0 -0.59116626917E+02  0.48287376738E+02 -0.42743907096E+02  0.87484215285E+02  0.00000000000E+00 0. -1.
         -1    1    1    2    0  502 -0.33447662108E+01 -0.68117148111E+02 -0.10076356391E+02  0.68939584317E+02  0.00000000000E+00 0.  1.
<scales pt_clust_5="13000.00000" pt_clust_6="13000.00000" pt_clust_7="13000.00000" pt_clust_8="13000.00000" pt_clust_9="68.19922"></scales>
<clustering>
<clus scale="   68.199">  1  9  2 -1</clus>
<clus scale="   78.861">  5  6 -1 -1</clus>
<clus scale="   98.003">  7  8 -1 -1</clus>
<clus scale="  257.582">  1  5  2 -1</clus>
<clus scale="   68.199">  1  5  2 -1</clus>
</clustering>
</event>
<event>
 9    1  0.8429841E-005  0.1019160E+03  0.7546771E-02  0.1280966E+00
          1   -1    0    0  502    0 -0.00000000000E+00  0.00000000000E+00  0.47292200713E+03  0.47292200713E+03  0.00000000000E+00 0. -1.
         21   -1    0    0  501  502  0.00000000000E+00 -0.00000000000E+00 -0.49930621024E+02  0.49930621024E+02  0.00000000000E+00 0. -1.
         23    2    1    2    0    0 -0.14745138998E+02 -0.48955828753E+02  0.21928630216E+03  0.24317093099E+03  0.91823347104E+02 0.  0.
        -24    2    1    2    0    0  0.70571061093E+02 -0.10854834540E+02  0.10197803039E+03  0.14913575717E+03  0.82120967415E+02 0.  0.
         13    1    4    4    0    0 -0.24158196365E+01 -0.31903162100E+02  0.21968563442E+02  0.38810639214E+02  0.00000000000E+00 0. -1.
        -14    1    4    4    0    0  0.72986880730E+02  0.21048327560E+02  0.80009466946E+02  0.11032511796E+03  0.00000000000E+00 0.  1.
        -13    1    3    3    0    0 -0.21850025008E+02  0.19003338785E+02  0.11426836012E+03  0.11788048440E+03  0.00000000000E+00 0.  1.
         13    1    3    3    0    0  0.71048860102E+01 -0.67959167539E+02  0.10501794204E+03  0.12529044659E+03  0.00000000000E+00 0. -1.
          2    1    1    2  501    0 -0.55825922095E+02  0.59810663293E+02  0.10172705356E+03  0.13054593999E+03  0.00000000000E+00 0. -1.
<scales pt_clust_5="13000.00000" pt_clust_6="13000.00000" pt_clust_7="13000.00000" pt_clust_8="13000.00000" pt_clust_9="81.81595"></scales>
<clustering>
<clus scale="   81.816">  2  9  1 -1</clus>
<clus scale="   82.121">  5  6 -1 -1</clus>
<clus scale="   91.823">  7  8 -1 -1</clus>
<clus scale="   93.270">  2  5  1 -1</clus>
<clus scale="   81.816">  2  5  1 -1</clus>
</clustering>
</event>
<event>
 9    1  0.8429841E-005  0.1147563E+03  0.7546771E-02  0.1256434E+00
          1   -1    0    0  502    0 -0.00000000000E+00  0.00000000000E+00  0.16750941453E+03  0.16750941453E+03  0.00000000000E+00 0. -1.
         21   -1    0    0  501  502  0.00000000000E+00 -0.00000000000E+00 -0.18997818870E+03  0.18997818870E+03  0.00000000000E+00 0.  1.
         23    2    1    2    0    0  0.16854258836E+02  0.72524183919E+02  0.82394410046E+02  0.14447696507E+03  0.92417159304E+02 0.  0.
        -24    2    1    2    0    0  0.17938144417E+01 -0.38308089128E+02 -0.13647334482E+03  0.16283400980E+03  0.80119994003E+02 0.  0.
         11    1    4    4    0    0 -0.31323915545E+02 -0.16851393790E+02 -0.22174382225E+02  0.41914918403E+02  0.00000000000E+00 0. -1.
        -12    1    4    4    0    0  0.33117729986E+02 -0.21456695339E+02 -0.11429896260E+03  0.12091909140E+03  0.00000000000E+00 0.  1.
        -11    1    3    3    0    0 -0.22775817547E+02  0.33001118066E+02 -0.52973251280E+01  0.40445930723E+02  0.00000000000E+00 0.  1.
         11    1    3    3    0    0  0.39630076383E+02  0.39523065853E+02  0.87691735174E+02  0.10403103434E+03  0.00000000000E+00 0. -1.
          2    1    1    2  501    0 -0.18648073278E+02 -0.34216094791E+02  0.31610160606E+02  0.50176628356E+02  0.00000000000E+00 0. -1.
<scales pt_clust_5="13000.00000" pt_clust_6="13000.00000" pt_clust_7="13000.00000" pt_clust_8="13000.00000" pt_clust_9="38.96785"></scales>
<clustering>
<clus scale="   38.968">  2  9  1 -1</clus>
<clus scale="   80.120">  5  6 -1 -1</clus>
<clus scale="   92.417">  7  8 -1 -1</clus>
<clus scale="  105.106">  2  5  1 -1</clus>
<clus scale="   38.968">  2  5  1 -1</clus>
</clustering>
</event>
<event>
 9    1  0.8429841E-005  0.9542101E+02  0.7546771E-02  0.1295263E+00
         21   -1    0    0  501  502  0.00000000000E+00  0.00000000000E+00  0.26026837780E+02  0.26026837780E+02  0.00000000000E+00 0.  1.
          1   -1    0    0  502    0 -0.00000000000E+00 -0.00000000000E+00 -0.48085236039E+03  0.48085236039E+03  0.00000000000E+00 0. -1.
         23    2    1    2    0    0  0.15871347496E+01 -0.30024204175E+02 -0.26597113834E+03  0.28233163605E+03  0.89813887870E+02 0.  0.
        -24    2    1    2    0    0  0.24905214441E+02  0.31850920774E+02 -0.16830309378E+03  0.19096874439E+03  0.80674525702E+02 0.  0.
         11    1    4    4    0    0  0.34586001533E+02  0.11170231830E+02 -0.16368567531E+03  0.16767219771E+03  0.00000000000E+00 0. -1.
        -12    1    4    4    0    0 -0.96807870920E+01  0.20680688944E+02 -0.46174184635E+01  0.23296546679E+02  0.00000000000E+00 0.  1.
        -13    1    3    3    0    0 -0.18967852499E+02  0.17919596296E+02 -0.26296087847E+02  0.37045588076E+02  0.00000000000E+00 0.  1.
         13    1    3    3    0    0  0.20554987248E+02 -0.47943800471E+02 -0.23967505049E+03  0.24528604798E+03  0.00000000000E+00 0. -1.
          2    1    1    2  501    0 -0.26492349190E+02 -0.18267165990E+01 -0.20551290495E+02  0.33578817730E+02  0.00000000000E+00 0. -1.
<scales pt_clust_5="13000.00000" pt_clust_6="13000.00000" pt_clust_7="13000.00000" pt_clust_8="13000.00000" pt_clust_9="26.55525"></scales>
<clustering>
<clus scale="   26.555">  1  9  2 -1</clus>
<clus scale="   80.675">  5  6 -1 -1</clus>
<clus scale="   86.874">  1  5  2 -1</clus>
<clus scale="   89.814">  7  8 -1 -1</clus>
<clus scale="   26.555">  1  5  2 -1</clus>
</clustering>
</event>
<event>
 9    1  0.8429841E-005  0.1066324E+03  0.7546771E-02  0.1272684E+00
          1   -1    0    0  502    0 -0.00000000000E+00  0.00000000000E+00  0.73978271004E+02  0.73978271004E+02  0.00000000000E+00 0. -1.
         21   -1    0    0  501  502  0.00000000000E+00 -0.00000000000E+00 -0.32975663737E+03  0.32975663737E+03  0.00000000000E+00 0. -1.
        -24    2    1    2    0    0  0.51460055019E+02 -0.70601792582E+01  0.74721236583E+01  0.95433824209E+02  0.79710719338E+02 0.  0.
         23    2    1    2    0    0 -0.49884050278E+02  0.35975725617E+02 -0.25489156727E+03  0.27816034427E+03  0.92848235044E+02 0.  0.
         11    1    3    3    0    0  0.57104871744E+02  0.11119302240E+02 -0.20427010310E+02  0.61659289725E+02  0.00000000000E+00 0. -1.
        -12    1    3    3    0    0 -0.56448167248E+01 -0.18179481498E+02  0.27899133969E+02  0.33774534484E+02  0.00000000000E+00 0.  1.
        -13    1    4    4    0    0 -0.76738992341E+02  0.17623758277E+02 -0.18583306676E+03  0.20182516816E+03  0.00000000000E+00 0. -1.
         13    1    4    4    0    0  0.26854942063E+02  0.18351967340E+02 -0.69058500515E+02  0.76335176110E+02  0.00000000000E+00 0.  1.
          2    1    1    2  501    0 -0.15760047411E+01 -0.28915546359E+02 -0.83589227565E+01  0.30140739902E+02  0.00000000000E+00 0. -1.
<scales pt_clust_5="13000.00000" pt_clust_6="13000.00000" pt_clust_7="13000.00000" pt_clust_8="13000.00000" pt_clust_9="28.95848"></scales>
<clustering>
<clus scale="   28.958">  2  9  1 -1</clus>
<clus scale="   79.711">  5  6 -1 -1</clus>
<clus scale="   92.848">  7  8 -1 -1</clus>
<clus scale="   95.412">  1  5  2 -1</clus>
<clus scale="   28.958">  2  5  1 -1</clus>
</clustering>
</event>
<event>
 9    1  0.8664458E-005  0.1145808E+03  0.7546771E-02  0.1255864E+00
         21   -1    0    0  501  502  0.00000000000E+00  0.00000000000E+00  0.10568870113E+03  0.10568870113E+03  0.00000000000E+00 0.  1.
         -2   -1    0    0    0  501 -0.00000000000E+00 -0.00000000000E+00 -0.54595047637E+03  0.54595047637E+03  0.00000000000E+00 0.  1.
        -24    2    1    2    0    0 -0.66542099533E+02 -0.35156017019E+02 -0.37591709515E+03  0.39129578727E+03  0.78325820594E+02 0.  0.
         23    2    1    2    0    0  0.63764106077E+02 -0.35210950443E+02  0.50710181782E+02  0.12544769497E+03  0.88656242772E+02 0.  0.
         13    1    3    3    0    0 -0.37128735232E+01  0.22021920037E+02 -0.55928364165E+02  0.60222357228E+02  0.00000000000E+00 0. -1.
        -14    1    3    3    0    0 -0.62829226010E+02 -0.57177937056E+02 -0.31998873098E+03  0.33107343004E+03  0.00000000000E+00 0.  1.
        -13    1    4    4    0    0 -0.21160573274E+02 -0.15193525226E+02  0.20377954144E+02  0.33073767326E+02  0.00000000000E+00 0. -1.
         13    1    4    4    0    0  0.84924679351E+02 -0.20017425217E+02  0.30332227638E+02  0.92373927645E+02  0.00000000000E+00 0.  1.
         -1    1    1    2    0  502  0.27779934561E+01  0.70366967462E+02 -0.11505486188E+03  0.13489569526E+03  0.00000000000E+00 0.  1.
<scales pt_clust_5="13000.00000" pt_clust_6="13000.00000" pt_clust_7="13000.00000" pt_clust_8="13000.00000" pt_clust_9="70.42182"></scales>
<clustering>
<clus scale="   70.422">  1  9  2 -1</clus>
<clus scale="   78.326">  5  6 -1 -1</clus>
<clus scale="   88.656">  7  8 -1 -1</clus>
<clus scale="  106.788">  2  5  1 -1</clus>
<clus scale="   70.422">  1  5  2 -1</clus>
</clustering>
</event>
<event>
 9    1  0.8429841E-005  0.2026816E+03  0.7546771E-02  0.1166185E+00
          1   -1    0    0  502    0 -0.00000000000E+00  0.00000000000E+00  0.51869654368E+03  0.51869654368E+03  0.00000000000E+00 0. -1.
         21   -1    0    0  501  502  0.00000000000E+00 -0.00000000000E+00 -0.21340113481E+03  0.21340113481E+03  0.00000000000E+00 0. -1.
        -24    2    1    2    0    0  0.77595749488E+02  0.67725787467E+02  0.16809202410E+03  0.21302378211E+03  0.80723729797E+02 0.  0.
         23    2    1    2    0    0  0.11157410710E+03 -0.97390991170E+02  0.24397281802E+03  0.29983664857E+03  0.91899365383E+02 0.  0.
         11    1    3    3    0    0  0.12899960106E+02  0.44934785518E+02  0.22077964850E+02  0.51700874772E+02  0.00000000000E+00 0. -1.
        -12    1    3    3    0    0  0.64695789382E+02  0.22791001949E+02  0.14601405925E+03  0.16132290734E+03  0.00000000000E+00 0.  1.
        -11    1    4    4    0    0  0.11314698293E+03 -0.70927911542E+02  0.14391948962E+03  0.19633091421E+03  0.00000000000E+00 0. -1.
         11    1    4    4    0    0 -0.15728758309E+01 -0.26463079628E+02  0.10005332840E+03  0.10350573437E+03  0.00000000000E+00 0.  1.
          2    1    1    2  501    0 -0.18916985658E+03  0.29665203703E+02 -0.10676943325E+03  0.21923724781E+03  0.00000000000E+00 0. -1.
<scales pt_clust_5="13000.00000" pt_clust_6="13000.00000" pt_clust_7="13000.00000" pt_clust_8="13000.00000" pt_clust_9="180.64975"></scales>
<clustering>
<clus scale="   80.724">  5  6 -1 -1</clus>
<clus scale="   91.899">  7  8 -1 -1</clus>
<clus scale="  130.859">  1  5  2 -1</clus>
<clus scale="  180.650">  2  9  1 -1</clus>
<clus scale="  180.650">  2  5  1 -1</clus>
</clustering>
</event>
<event>
 9    1  0.8429841E-005  0.1031994E+03  0.7546771E-02  0.1278608E+00
         21   -1    0    0  501  502  0.00000000000E+00  0.00000000000E+00  0.73313771225E+02  0.73313771225E+02  0.00000000000E+00 0. -1.
          1   -1    0    0  502    0 -0.00000000000E+00 -0.00000000000E+00 -0.22772682335E+03  0.22772682335E+03  0.00000000000E+00 0. -1.
        -24    2    1    2    0    0  0.16555273847E+02  0.61463324815E+02 -0.11256474599E+03  0.15200246002E+03  0.79888099376E+02 0.  0.
         23    2    1    2    0    0 -0.10422744408E+02 -0.28345899011E+02 -0.57968013324E+02  0.11169892234E+03  0.90577232742E+02 0.  0.
         11    1    3    3    0    0  0.46251116317E+01  0.42262498053E+02 -0.12070708423E+03  0.12797542960E+03  0.00000000000E+00 0. -1.
        -12    1    3    3    0    0  0.11930162215E+02  0.19200826762E+02  0.81423382322E+01  0.24027030419E+02  0.00000000000E+00 0.  1.
        -13    1    4    4    0    0  0.38197323169E+01 -0.44893163014E+02 -0.72580297499E+02  0.85427665457E+02  0.00000000000E+00 0.  1.
         13    1    4    4    0    0 -0.14242476725E+02  0.16547264004E+02  0.14612284176E+02  0.26271256881E+02  0.00000000000E+00 0. -1.
          2    1    1    2  501    0 -0.61325294391E+01 -0.33117425805E+02  0.16119707190E+02  0.37339212219E+02  0.00000000000E+00 0. -1.
<scales pt_clust_5="13000.00000" pt_clust_6="13000.00000" pt_clust_7="13000.00000" pt_clust_8="13000.00000" pt_clust_9="33.68044"></scales>
<clustering>
<clus scale="   33.680">  1  9  2 -1</clus>
<clus scale="   79.888">  5  6 -1 -1</clus>
<clus scale="   90.577">  7  8 -1 -1</clus>
<clus scale="   93.957">  2  5  1 -1</clus>
<clus scale="   33.680">  1  5  2 -1</clus>
</clustering>
</event>
<event>
 9    1  0.8429841E-005  0.1229951E+03  0.7546771E-02  0.1241460E+00
         21   -1    0    0  501  502  0.00000000000E+00  0.00000000000E+00  0.21308318550E+03  0.21308318550E+03  0.00000000000E+00 0.  1.
         -2   -1    0    0    0  501 -0.00000000000E+00 -0.00000000000E+00 -0.13548382558E+03  0.13548382558E+03  0.00000000000E+00 0.  1.
        -24    2    1    2    0    0  0.72646338162E+02 -0.19840984138E+02  0.11759083092E+02  0.11009861822E+03  0.79449824414E+02 0.  0.
         23    2    1    2    0    0 -0.79782685093E+02  0.74896406668E+02  0.99693798398E+02  0.17344464397E+03  0.90384968389E+02 0.  0.
         13    1    3    3    0    0  0.76639312593E+01 -0.38375161496E+02 -0.74754005226E+01  0.39840563189E+02  0.00000000000E+00 0. -1.
        -14    1    3    3    0    0  0.64982406903E+02  0.18534177358E+02  0.19234483615E+02  0.70258055034E+02  0.00000000000E+00 0.  1.
        -13    1    4    4    0    0 -0.17600573393E+02 -0.21147820806E+02  0.19284271686E+02  0.33599012531E+02  0.00000000000E+00 0. -1.
         13    1    4    4    0    0 -0.62182111700E+02  0.96044227474E+02  0.80409526712E+02  0.13984563144E+03  0.00000000000E+00 0.  1.
         -1    1    1    2    0  502  0.71363469306E+01 -0.55055422529E+02 -0.33853521567E+02  0.65023748891E+02  0.00000000000E+00 0.  1.
<scales pt_clust_5="13000.00000" pt_clust_6="13000.00000" pt_clust_7="13000.00000" pt_clust_8="13000.00000" pt_clust_9="55.51603"></scales>
<clustering>
<clus scale="   55.516">  1  9  2 -1</clus>
<clus scale="   79.450">  5  6 -1 -1</clus>
<clus scale="   90.385">  7  8 -1 -1</clus>
<clus scale="  115.198">  2  5  1 -1</clus>
<clus scale="   55.516">  1  5  2 -1</clus>
</clustering>
</event>
<event>
 9    1  0.8429841E-005  0.9952866E+02  0.7546771E-02  0.1286658E+00
         21   -1    0    0  501  502  0.00000000000E+00  0.00000000000E+00  0.45410421041E+02  0.45410421041E+02  0.00000000000E+00 0. -1.
         -2   -1    0    0    0  501 -0.00000000000E+00 -0.00000000000E+00 -0.53272002736E+03  0.53272002736E+03  0.00000000000E+00 0.  1.
        -24    2    1    2    0    0 -0.64025171935E+02  0.18085187977E+02 -0.21573982627E+03  0.23972937290E+03  0.80623835972E+02 0.  0.
         23    2    1    2    0    0 -0.10961840227E+02  0.23881990962E+02 -0.66060913805E+02  0.11564966651E+03  0.91215621460E+02 0.  0.
         13    1    3    3    0    0 -0.73707517235E+02  0.37545625901E+02 -0.16707948632E+03  0.18643504732E+03  0.00000000000E+00 0. -1.
        -14    1    3    3    0    0  0.96823453004E+01 -0.19460437924E+02 -0.48660339955E+02  0.53294325582E+02  0.00000000000E+00 0.  1.
        -11    1    4    4    0    0 -0.35338607643E+01  0.57541496451E+02 -0.27324967113E+02  0.63797851166E+02  0.00000000000E+00 0. -1.
         11    1    4    4    0    0 -0.74279794629E+01 -0.33659505489E+02 -0.38735946692E+02  0.51851815347E+02  0.00000000000E+00 0.  1.
         -1    1    1    2    0  502  0.74987012162E+02 -0.41967178939E+02 -0.20550886624E+03  0.22275140899E+03  0.00000000000E+00 0.  1.
<scales pt_clust_5="13000.00000" pt_clust_6="13000.00000" pt_clust_7="13000.00000" pt_clust_8="13000.00000" pt_clust_9="85.93197"></scales>
<clustering>
<clus scale="   80.624">  5  6 -1 -1</clus>
<clus scale="   85.932">  1  9  2 -1</clus>
<clus scale="   89.921">  2  5  1 -1</clus>
<clus scale="   91.216">  7  8 -1 -1</clus>
<clus scale="   85.932">  1  5  2 -1</clus>
</clustering>
</event>
<event>
 9    1  0.8429841E-005  0.1637726E+03  0.7546771E-02  0.1184997E+00
          1   -1    0    0  502    0 -0.00000000000E+00  0.00000000000E+00  0.79962987013E+03  0.79962987013E+03  0.00000000000E+00 0. -1.
         21   -1    0    0  501  502  0.00000000000E+00 -0.00000000000E+00 -0.46443066388E+02  0.46443066388E+02  0.00000000000E+00 0. -1.
        -24    2    1    2    0    0 -0.88815150176E+02 -0.11029028287E+03  0.40517842280E+03  0.43632420144E+03  0.78467681663E+02 0.  0.
         23    2    1    2    0    0  0.11258810371E+03  0.98086719564E+02  0.20552791836E+03  0.26478404112E+03  0.74644340389E+02 0.  0.
         11    1    3    3    0    0 -0.88037763606E+02 -0.11229882627E+03  0.40830859113E+03  0.43252465802E+03  0.00000000000E+00 0. -1.
        -12    1    3    3    0    0 -0.77738656981E+00  0.20085433970E+01 -0.31301683313E+01  0.37995434250E+01  0.00000000000E+00 0.  1.
        -11    1    4    4    0    0 -0.26542588460E+01  0.25404124377E+02  0.12296610037E+02  0.28348214120E+02  0.00000000000E+00 0.  1.
         11    1    4    4    0    0  0.11524236256E+03  0.72682595187E+02  0.19323130833E+03  0.23643582700E+03  0.00000000000E+00 0. -1.
          2    1    1    2  501    0 -0.23772953536E+02  0.12203563307E+02  0.14248046258E+03  0.14496469396E+03  0.00000000000E+00 0. -1.
<scales pt_clust_5="13000.00000" pt_clust_6="13000.00000" pt_clust_7="13000.00000" pt_clust_8="13000.00000" pt_clust_9="26.72229"></scales>
<clustering>
<clus scale="   26.722">  2  9  1 -1</clus>
<clus scale="   74.644">  7  8 -1 -1</clus>
<clus scale="   78.468">  5  6 -1 -1</clus>
<clus scale="  161.975">  2  7  1 -1</clus>
<clus scale="   26.722">  2  5  1 -1</clus>
</clustering>
</event>
<event>
 9    1  0.8429841E-005  0.9294685E+02  0.7546771E-02  0.1302117E+00
         21   -1    0    0  501  502  0.00000000000E+00  0.00000000000E+00  0.32375990224E+03  0.32375990224E+03  0.00000000000E+00 0. -1.
          1   -1    0    0  502    0 -0.00000000000E+00 -0.00000000000E+00 -0.73791644401E+02  0.73791644401E+02  0.00000000000E+00 0. -1.
         23    2    1    2    0    0  0.47350247434E+01  0.14849183204E+02 -0.72150471211E+01  0.92310467531E+02  0.90698659360E+02 0.  0.
        -24    2    1    2    0    0 -0.64009592961E+02 -0.65925543337E+01  0.18283346503E+03  0.20979714239E+03  0.80287453932E+02 0.  0.
         13    1    4    4    0    0 -0.34548764006E+02 -0.34893347778E+02  0.14858419773E+03  0.15648778428E+03  0.00000000000E+00 0. -1.
        -14    1    4    4    0    0 -0.29460828955E+02  0.28300793445E+02  0.34249267302E+02  0.53309358119E+02  0.00000000000E+00 0.  1.
        -13    1    3    3    0    0 -0.31759709717E+02 -0.13938063454E+02 -0.24773784988E+02  0.42622637140E+02  0.00000000000E+00 0. -1.
         13    1    3    3    0    0  0.36494734460E+02  0.28787246658E+02  0.17558737867E+02  0.49687830391E+02  0.00000000000E+00 0.  1.
          2    1    1    2  501    0  0.59274568217E+02 -0.82566288706E+01  0.74349839933E+02  0.95443936715E+02  0.00000000000E+00 0. -1.
<scales pt_clust_5="13000.00000" pt_clust_6="13000.00000" pt_clust_7="13000.00000" pt_clust_8="13000.00000" pt_clust_9="59.84686"></scales>
<clustering>
<clus scale="   59.847">  1  9  2 -1</clus>
<clus scale="   80.287">  5  6 -1 -1</clus>
<clus scale="   82.819">  1  5  2 -1</clus>
<clus scale="   90.699">  7  8 -1 -1</clus>
<clus scale="   59.847">  1  5  2 -1</clus>
</clustering>
</event>
<event>
 9    1  0.8429841E-005  0.1593815E+03  0.7546771E-02  0.1190587E+00
          1   -1    0    0  502    0 -0.00000000000E+00  0.00000000000E+00  0.76795885765E+03  0.76795885765E+03  0.00000000000E+00 0. -1.
         21   -1    0    0  501  502  0.00000000000E+00 -0.00000000000E+00 -0.87847674328E+02  0.87847674328E+02  0.00000000000E+00 0.  1.
        -24    2    1    2    0    0 -0.43545688168E+02 -0.13482883470E+03  0.51638650657E+03  0.54203788962E+03  0.84113066721E+02 0.  0.
         23    2    1    2    0    0  0.89797001147E+02  0.49275949310E+02  0.17950121306E+02  0.13852965935E+03  0.91523980841E+02 0.  0.
         11    1    3    3    0    0 -0.46045605188E+02 -0.12669471429E+03  0.51621589436E+03  0.53352656726E+03  0.00000000000E+00 0. -1.
        -12    1    3    3    0    0  0.24999170198E+01 -0.81341204020E+01  0.17061221609E+00  0.85113223619E+01  0.00000000000E+00 0.  1.
        -11    1    4    4    0    0  0.57211346155E+02  0.25557980827E+02  0.55305827451E+02  0.83576809361E+02  0.00000000000E+00 0. -1.
         11    1    4    4    0    0  0.32585654992E+02  0.23717968482E+02 -0.37355706145E+02  0.54952849988E+02  0.00000000000E+00 0.  1.
          2    1    1    2  501    0 -0.46251312979E+02  0.85552885386E+02  0.14577455544E+03  0.17523898300E+03  0.00000000000E+00 0. -1.
<scales pt_clust_5="13000.00000" pt_clust_6="13000.00000" pt_clust_7="13000.00000" pt_clust_8="13000.00000" pt_clust_9="97.25477"></scales>
<clustering>
<clus scale="   84.113">  5  6 -1 -1</clus>
<clus scale="   91.524">  7  8 -1 -1</clus>
<clus scale="   97.255">  2  9  1 -1</clus>
<clus scale="  155.244">  1  5  2 -1</clus>
<clus scale="   97.255">  2  5  1 -1</clus>
</clustering>
</event>
<event>
 9    1  0.8429841E-005  0.1288670E+03  0.7546771E-02  0.1232171E+00
         21   -1    0    0  501  502  0.00000000000E+00  0.00000000000E+00  0.83758176300E+02  0.83758176300E+02  0.00000000000E+00 0. -1.
          1   -1    0    0  502    0 -0.00000000000E+00 -0.00000000000E+00 -0.40745061627E+03  0.40745061627E+03  0.00000000000E+00 0. -1.
        -24    2    1    2    0    0  0.68882885227E+02 -0.48770289945E+02 -0.23568775869E+03  0.26298518793E+03  0.80554927942E+02 0.  0.
         23    2    1    2    0    0 -0.88431953239E+02  0.54943990749E+02 -0.12442268391E+03  0.18643184040E+03  0.91851915445E+02 0.  0.
         11    1    3    3    0    0  0.36473440095E+02 -0.61766435005E+02 -0.10123545012E+03  0.12407264278E+03  0.00000000000E+00 0. -1.
        -12    1    3    3    0    0  0.32409445133E+02  0.12996145060E+02 -0.13445230857E+03  0.13891254515E+03  0.00000000000E+00 0.  1.
        -11    1    4    4    0    0 -0.25337364649E+02  0.63620619957E+02 -0.92780887968E+02  0.11531634101E+03  0.00000000000E+00 0.  1.
         11    1    4    4    0    0 -0.63094588590E+02 -0.86766292073E+01 -0.31641795941E+02  0.71115499394E+02  0.00000000000E+00 0. -1.
          2    1    1    2  501    0  0.19549068012E+02 -0.61737008043E+01  0.36418002636E+02  0.41791764233E+02  0.00000000000E+00 0. -1.
<scales pt_clust_5="13000.00000" pt_clust_6="13000.00000" pt_clust_7="13000.00000" pt_clust_8="13000.00000" pt_clust_9="20.50075"></scales>
<clustering>
<clus scale="   20.501">  1  9  2 -1</clus>
<clus scale="   80.555">  5  6 -1 -1</clus>
<clus scale="   91.852">  7  8 -1 -1</clus>
<clus scale="  121.074">  2  5  1 -1</clus>
<clus scale="   20.501">  1  5  2 -1</clus>
</clustering>
</event>
<event>
 9    1  0.8429841E-005  0.1120448E+03  0.7546771E-02  0.1267823E+00
         -4   -1    0    0    0  501 -0.00000000000E+00  0.00000000000E+00  0.61839527848E+02  0.61839527848E+02  0.00000000000E+00 0.  1.
         21   -1    0    0  501  502  0.00000000000E+00 -0.00000000000E+00 -0.51552329511E+03  0.51552329511E+03  0.00000000000E+00 0. -1.
        -24    2    1    2    0    0 -0.41424545741E+01 -0.55604916933E+02 -0.12046830619E+03  0.14813707473E+03  0.65748866131E+02 0.  0.
         23    2    1    2    0    0 -0.81364417408E+02  0.64987826883E+02 -0.31006494458E+03  0.34014482676E+03  0.93352275029E+02 0.  0.
         11    1    3    3    0    0  0.56356811902E+01 -0.65009670586E+02 -0.11726365224E+03  0.13419680439E+03  0.00000000000E+00 0. -1.
        -12    1    3    3    0    0 -0.97781357643E+01  0.94047536526E+01 -0.32046539490E+01  0.13940270343E+02  0.00000000000E+00 0.  1.
        -11    1    4    4    0    0 -0.42139290823E+02  0.46819327485E+02 -0.28119144483E+03  0.28816036838E+03  0.00000000000E+00 0. -1.
         11    1    4    4    0    0 -0.39225126585E+02  0.18168499398E+02 -0.28873499751E+02  0.51984458388E+02  0.00000000000E+00 0.  1.
         -3    1    1    2    0  502  0.85506871982E+02 -0.93829099492E+01 -0.23150516498E+02  0.89080921467E+02  0.00000000000E+00 0.  1.
<scales pt_clust_5="13000.00000" pt_clust_6="13000.00000" pt_clust_7="13000.00000" pt_clust_8="13000.00000" pt_clust_9="86.02018"></scales>
<clustering>
<clus scale="   65.749">  5  6 -1 -1</clus>
<clus scale="   86.020">  2  9  1 -1</clus>
<clus scale="   90.345">  1  5  2 -1</clus>
<clus scale="   93.352">  7  8 -1 -1</clus>
<clus scale="   86.020">  2  5  1 -1</clus>
</clustering>
</event>
<event>
 9    1  0.8429841E-005  0.1012224E+03  0.7546771E-02  0.1283444E+00
          1   -1    0    0  502    0 -0.00000000000E+00  0.00000000000E+00  0.13959100425E+03  0.13959100425E+03  0.00000000000E+00 0. -1.
         21   -1    0    0  501  502  0.00000000000E+00 -0.00000000000E+00 -0.13318889806E+03  0.13318889806E+03  0.00000000000E+00 0.  1.
         23    2    1    2    0    0 -0.12474461905E+02  0.36555246982E+02  0.83335048689E+02  0.13009362558E+03  0.92128838020E+02 0.  0.
        -24    2    1    2    0    0  0.24828380894E+01 -0.56090074979E+02 -0.61776753334E+02  0.11601884114E+03  0.80571355022E+02 0.  0.
         11    1    4    4    0    0  0.35112537304E+02 -0.55304311238E+02 -0.43059078775E+02  0.78393503445E+02  0.00000000000E+00 0. -1.
        -12    1    4    4    0    0 -0.32629699215E+02 -0.78576374097E+00 -0.18717674560E+02  0.37625337692E+02  0.00000000000E+00 0.  1.
        -13    1    3    3    0    0 -0.22630415912E+02  0.17076888858E+01 -0.13688110848E+02  0.26503137630E+02  0.00000000000E+00 0.  1.
         13    1    3    3    0    0  0.10155954007E+02  0.34847558096E+02  0.97023159538E+02  0.10359048795E+03  0.00000000000E+00 0. -1.
          2    1    1    2  501    0  0.99916238156E+01  0.19534827997E+02 -0.15156189160E+02  0.26667435595E+02  0.00000000000E+00 0. -1.
<scales pt_clust_5="13000.00000" pt_clust_6="13000.00000" pt_clust_7="13000.00000" pt_clust_8="13000.00000" pt_clust_9="21.94179"></scales>
<clustering>
<clus scale="   21.942">  2  9  1 -1</clus>
<clus scale="   80.571">  5  6 -1 -1</clus>
<clus scale="   90.830">  2  5  1 -1</clus>
<clus scale="   92.129">  7  8 -1 -1</clus>
<clus scale="   21.942">  2  5  1 -1</clus>
</clustering>
</event>
<event>
 9    1  0.8429841E-005  0.9820680E+02  0.7546771E-02  0.1289118E+00
         21   -1    0    0  501  502  0.00000000000E+00  0.00000000000E+00  0.17745243938E+03  0.17745243938E+03  0.00000000000E+00 0. -1.
         -2   -1    0    0    0  501 -0.00000000000E+00 -0.00000000000E+00 -0.10324643490E+03  0.10324643490E+03  0.00000000000E+00 0.  1.
        -24    2    1    2    0    0 -0.33873776358E+02  0.13268184373E+02 -0.36050281699E+01  0.89290083090E+02  0.81463152829E+02 0.  0.
         23    2    1    2    0    0  0.44646795028E+02  0.31336962346E+02  0.94952326484E+02  0.14242408950E+03  0.91067751974E+02 0.  0.
         13    1    3    3    0    0 -0.54335439369E+02  0.12072669078E+02  0.18964442737E+02  0.58802545850E+02  0.00000000000E+00 0. -1.
        -14    1    3    3    0    0  0.20461663011E+02  0.11955152946E+01 -0.22569470907E+02  0.30487537241E+02  0.00000000000E+00 0.  1.
        -11    1    4    4    0    0  0.47796304200E+01 -0.31043097112E+02  0.36091571618E+02  0.47844751929E+02  0.00000000000E+00 0. -1.
         11    1    4    4    0    0  0.39867164608E+02  0.62380059458E+02  0.58860754866E+02  0.94579337571E+02  0.00000000000E+00 0.  1.
         -1    1    1    2    0  502 -0.10773018670E+02 -0.44605146719E+02 -0.17141293836E+02  0.48984701688E+02  0.00000000000E+00 0.  1.
<scales pt_clust_5="13000.00000" pt_clust_6="13000.00000" pt_clust_7="13000.00000" pt_clust_8="13000.00000" pt_clust_9="45.88768"></scales>
<clustering>
<clus scale="   45.888">  1  9  2 -1</clus>
<clus scale="   81.463">  5  6 -1 -1</clus>
<clus scale="   89.373">  2  5  1 -1</clus>
<clus scale="   91.068">  7  8 -1 -1</clus>
<clus scale="   45.888">  1  5  2 -1</clus>
</clustering>
</event>
<event>
 9    1  0.9291672E-005  0.1372775E+03  0.7546771E-02  0.1241762E+00
         -4   -1    0    0    0  501 -0.00000000000E+00  0.00000000000E+00  0.64758769977E+03  0.64758769977E+03  0.00000000000E+00 0.  1.
         21   -1    0    0  501  502  0.00000000000E+00 -0.00000000000E+00 -0.17376760536E+03  0.17376760536E+03  0.00000000000E+00 0.  1.
        -24    2    1    2    0    0 -0.16326809277E+02  0.62353052994E+01 -0.35103498445E+02  0.89517872010E+02  0.80472045288E+02 0.  0.
         23    2    1    2    0    0 -0.29811188599E+02 -0.98645991700E+02  0.58671472055E+03  0.60253194461E+03  0.90503272442E+02 0.  0.
         11    1    3    3    0    0  0.14592829134E+02  0.28576290880E+02  0.68553446093E+01  0.32810833764E+02  0.00000000000E+00 0. -1.
        -12    1    3    3    0    0 -0.30919638411E+02 -0.22340985581E+02 -0.41958843054E+02  0.56707038246E+02  0.00000000000E+00 0.  1.
        -11    1    4    4    0    0 -0.48300500914E+02 -0.10635153218E+03  0.48541208164E+03  0.49926793988E+03  0.00000000000E+00 0.  1.
         11    1    4    4    0    0  0.18489312315E+02  0.77055404787E+01  0.10130263891E+03  0.10326400474E+03  0.00000000000E+00 0. -1.
         -3    1    1    2    0  502  0.46137997876E+02  0.92410686400E+02 -0.77791127694E+02  0.12930548850E+03  0.00000000000E+00 0.  1.
<scales pt_clust_5="13000.00000" pt_clust_6="13000.00000" pt_clust_7="13000.00000" pt_clust_8="13000.00000" pt_clust_9="103.21953"></scales>
<clustering>
<clus scale="   80.472">  5  6 -1 -1</clus>
<clus scale="   82.348">  1  5  2 -1</clus>
<clus scale="   90.503">  7  8 -1 -1</clus>
<clus scale="  103.220">  2  9  1 -1</clus>
<clus scale="  103.220">  2  5  1 -1</clus>
</clustering>
</event>
<event>
 9    1  0.8429841E-005  0.1280791E+03  0.7546771E-02  0.1231872E+00
         21   -1    0    0  501  502  0.00000000000E+00  0.00000000000E+00  0.86313211226E+02  0.86313211226E+02  0.00000000000E+00 0. -1.
         -4   -1    0    0    0  501 -0.00000000000E+00 -0.00000000000E+00 -0.46448968828E+03  0.46448968828E+03  0.00000000000E+00 0.  1.
        -24    2    1    2    0    0 -0.71623787329E+01  0.11788900573E+03 -0.30334056248E+03  0.33550115391E+03  0.81218286657E+02 0.  0.
         23    2    1    2    0    0 -0.39553747813E+02 -0.31299659842E+02 -0.20135462207E+02  0.10273065344E+03  0.87200817916E+02 0.  0.
         11    1    3    3    0    0  0.27485696861E+02  0.96085811418E+02 -0.24123353028E+03  0.26111599495E+03  0.00000000000E+00 0. -1.
        -12    1    3    3    0    0 -0.34648075593E+02  0.21803194312E+02 -0.62107032199E+02  0.74385158957E+02  0.00000000000E+00 0.  1.
        -11    1    4    4    0    0  0.76718820682E-01 -0.48613681162E+02 -0.31609770201E+02  0.57986838628E+02  0.00000000000E+00 0.  1.
         11    1    4    4    0    0 -0.39630466634E+02  0.17314021320E+02  0.11474307994E+02  0.44743814810E+02  0.00000000000E+00 0. -1.
         -3    1    1    2    0  502  0.46716126546E+02 -0.86589345887E+02 -0.54700452368E+02  0.11257109216E+03  0.00000000000E+00 0.  1.
<scales pt_clust_5="13000.00000" pt_clust_6="13000.00000" pt_clust_7="13000.00000" pt_clust_8="13000.00000" pt_clust_9="98.38756"></scales>
<clustering>
<clus scale="   81.218">  5  6 -1 -1</clus>
<clus scale="   87.201">  7  8 -1 -1</clus>
<clus scale="   98.388">  1  9  2 -1</clus>
<clus scale="  124.083">  2  5  1 -1</clus>
<clus scale="   98.388">  1  5  2 -1</clus>
</clustering>
</event>
<event>
 9    1  0.8429841E-005  0.1112607E+03  0.7546771E-02  0.1261934E+00
         21   -1    0    0  501  502  0.00000000000E+00  0.00000000000E+00  0.10443754443E+03  0.10443754443E+03  0.00000000000E+00 0. -1.
          1   -1    0    0  502    0 -0.00000000000E+00 -0.00000000000E+00 -0.27146004617E+03  0.27146004617E+03  0.00000000000E+00 0. -1.
        -24    2    1    2    0    0  0.60812366779E+02 -0.40253984194E+01 -0.13830307982E+03  0.17171964267E+03  0.81520218387E+02 0.  0.
         23    2    1    2    0    0 -0.61134441793E+02  0.48598651673E+02 -0.73686566247E+02  0.14086189382E+03  0.91176280732E+02 0.  0.
         11    1    3    3    0    0  0.72552378200E+02  0.90390335135E+01 -0.13545301783E+03  0.15392553963E+03  0.00000000000E+00 0. -1.
        -12    1    3    3    0    0 -0.11740011421E+02 -0.13064431933E+02 -0.28500619893E+01  0.17794103047E+02  0.00000000000E+00 0.  1.
        -13    1    4    4    0    0  0.12551108454E+02  0.34075507696E+02 -0.50616554595E+02  0.62295314007E+02  0.00000000000E+00 0.  1.
         13    1    4    4    0    0 -0.73685550247E+02  0.14523143977E+02 -0.23070011652E+02  0.78566579815E+02  0.00000000000E+00 0. -1.
          2    1    1    2  501    0  0.32207501424E+00 -0.44573253254E+02  0.44967144332E+02  0.63316054104E+02  0.00000000000E+00 0. -1.
<scales pt_clust_5="13000.00000" pt_clust_6="13000.00000" pt_clust_7="13000.00000" pt_clust_8="13000.00000" pt_clust_9="44.57442"></scales>
<clustering>
<clus scale="   44.574">  1  9  2 -1</clus>
<clus scale="   81.520">  5  6 -1 -1</clus>
<clus scale="   91.176">  7  8 -1 -1</clus>
<clus scale="  103.496">  2  5  1 -1</clus>
<clus scale="   44.574">  1  5  2 -1</clus>
</clustering>
</event>
<event>
 9    1  0.8429841E-005  0.1124790E+03  0.7546771E-02  0.1265664E+00
         21   -1    0    0  501  502  0.00000000000E+00  0.00000000000E+00  0.18804670621E+03  0.18804670621E+03  0.00000000000E+00 0. -1.
          3   -1    0    0  502    0 -0.00000000000E+00 -0.00000000000E+00 -0.32619696769E+03  0.32619696769E+03  0.00000000000E+00 0. -1.
        -24    2    1    2    0    0 -0.17537652894E+02  0.40710762533E+02 -0.27737114503E+03  0.29297973006E+03  0.83291264127E+02 0.  0.
         23    2    1    2    0    0 -0.31843669503E+02 -0.22553210194E+02  0.61359533134E+02  0.12729266313E+03  0.10447852987E+03 0.  0.
         13    1    3    3    0    0 -0.27838155246E+02 -0.18580709226E+02 -0.11684092918E+03  0.12154015128E+03  0.00000000000E+00 0. -1.
        -14    1    3    3    0    0  0.10300502352E+02  0.59291471758E+02 -0.16053021585E+03  0.17143957878E+03  0.00000000000E+00 0.  1.
        -13    1    4    4    0    0  0.17595768583E+02  0.29472263650E+02  0.39364180147E+02  0.52228000874E+02  0.00000000000E+00 0.  1.
         13    1    4    4    0    0 -0.49439438086E+02 -0.52025473844E+02  0.21995352988E+02  0.75064662259E+02  0.00000000000E+00 0. -1.
          4    1    1    2  501    0  0.49381322397E+02 -0.18157552339E+02  0.77861350412E+02  0.93971280701E+02  0.00000000000E+00 0. -1.
<scales pt_clust_5="13000.00000" pt_clust_6="13000.00000" pt_clust_7="13000.00000" pt_clust_8="13000.00000" pt_clust_9="52.61380"></scales>
<clustering>
<clus scale="   52.614">  1  9  2 -1</clus>
<clus scale="   83.291">  5  6 -1 -1</clus>
<clus scale="   93.130">  2  5  1 -1</clus>
<clus scale="  104.479">  7  8 -1 -1</clus>
<clus scale="   52.614">  1  5  2 -1</clus>
</clustering>
</event>
<event>
 9    1  0.8429841E-005  0.2441054E+03  0.7546771E-02  0.1151467E+00
         21   -1    0    0  501  502  0.00000000000E+00  0.00000000000E+00  0.10681402886E+03  0.10681402886E+03  0.00000000000E+00 0. -1.
          1   -1    0    0  502    0 -0.00000000000E+00 -0.00000000000E+00 -0.93802396933E+03  0.93802396933E+03  0.00000000000E+00 0. -1.
        -24    2    1    2    0    0  0.30674108357E+01 -0.68306556186E+02 -0.24453389425E+02  0.10838591614E+03  0.80463308012E+02 0.  0.
         23    2    1    2    0    0  0.10431125314E+03  0.23626002798E+03 -0.42267856267E+03  0.50372301285E+03  0.91542711274E+02 0.  0.
         11    1    3    3    0    0  0.17745210026E+02 -0.33027871950E+02 -0.49945732874E+02  0.62452454209E+02  0.00000000000E+00 0. -1.
        -12    1    3    3    0    0 -0.14677799190E+02 -0.35278684237E+02  0.25492343450E+02  0.45933461932E+02  0.00000000000E+00 0.  1.
        -13    1    4    4    0    0  0.56296745012E+01  0.11916557525E+03 -0.15861760114E+03  0.19847335073E+03  0.00000000000E+00 0. -1.
         13    1    4    4    0    0  0.98681578642E+02  0.11709445274E+03 -0.26406096153E+03  0.30524966213E+03  0.00000000000E+00 0.  1.
          2    1    1    2  501    0 -0.10737866398E+03 -0.16795347180E+03 -0.38407798838E+03  0.43272906919E+03  0.00000000000E+00 0. -1.
<scales pt_clust_5="13000.00000" pt_clust_6="13000.00000" pt_clust_7="13000.00000" pt_clust_8="13000.00000" pt_clust_9="226.29052"></scales>
<clustering>
<clus scale="   80.463">  5  6 -1 -1</clus>
<clus scale="   91.543">  7  8 -1 -1</clus>
<clus scale="  105.591">  2  5  1 -1</clus>
<clus scale="  226.291">  1  9  2 -1</clus>
<clus scale="  226.291">  1  5  2 -1</clus>
</clustering>
</event>
<event>
 9    1  0.8429841E-005  0.1437358E+03  0.7546771E-02  0.1211720E+00
          1   -1    0    0  502    0 -0.00000000000E+00  0.00000000000E+00  0.89957643287E+03  0.89957643287E+03  0.00000000000E+00 0. -1.
         21   -1    0    0  501  502  0.00000000000E+00 -0.00000000000E+00 -0.53281018900E+02  0.53281018900E+02  0.00000000000E+00 0. -1.
        -24    2    1    2    0    0  0.35567410067E+02  0.10219786307E+03  0.58912414491E+03  0.60416259906E+03  0.78966727842E+02 0.  0.
         23    2    1    2    0    0  0.23097262663E+01 -0.11278965571E+03  0.26978938123E+03  0.30739012801E+03  0.94739322878E+02 0.  0.
         11    1    3    3    0    0  0.53409158350E+02  0.98360370573E+02  0.44375957756E+03  0.45765692759E+03  0.00000000000E+00 0. -1.
        -12    1    3    3    0    0 -0.17841748283E+02  0.38374924945E+01  0.14536456735E+03  0.14650567146E+03  0.00000000000E+00 0.  1.
        -13    1    4    4    0    0  0.44876281989E+02 -0.34745563822E+02  0.83310778119E+02  0.10080585619E+03  0.00000000000E+00 0. -1.
         13    1    4    4    0    0 -0.42566555722E+02 -0.78044091891E+02  0.18647860311E+03  0.20658427182E+03  0.00000000000E+00 0.  1.
          2    1    1    2  501    0 -0.37877136333E+02  0.10591792645E+02 -0.12618112174E+02  0.41304724706E+02  0.00000000000E+00 0. -1.
<scales pt_clust_5="13000.00000" pt_clust_6="13000.00000" pt_clust_7="13000.00000" pt_clust_8="13000.00000" pt_clust_9="39.33019"></scales>
<clustering>
<clus scale="   39.330">  2  9  1 -1</clus>
<clus scale="   78.967">  5  6 -1 -1</clus>
<clus scale="   94.739">  7  8 -1 -1</clus>
<clus scale="  133.866">  1  5  2 -1</clus>
<clus scale="   39.330">  2  5  1 -1</clus>
</clustering>
</event>
<event>
 9    1  0.8429841E-005  0.1634144E+03  0.7546771E-02  0.1186690E+00
         21   -1    0    0  501  502  0.00000000000E+00  0.00000000000E+00  0.88954554273E+02  0.88954554273E+02  0.00000000000E+00 0. -1.
          1   -1    0    0  502    0 -0.00000000000E+00 -0.00000000000E+00 -0.67589401574E+03  0.67589401574E+03  0.00000000000E+00 0. -1.
         23    2    1    2    0    0  0.12692278239E+03  0.57342660258E+02 -0.17823387042E+03  0.24424641362E+03  0.92148926331E+02 0.  0.
        -24    2    1    2    0    0 -0.83934641593E+02 -0.11012537324E+03 -0.69237459007E+02  0.17437591864E+03  0.80252809184E+02 0.  0.
         13    1    4    4    0    0 -0.82945719361E+02 -0.65382040567E+02 -0.74594007705E+02  0.12930224118E+03  0.00000000000E+00 0. -1.
        -14    1    4    4    0    0 -0.98892223193E+00 -0.44743332674E+02  0.53565486979E+01  0.45073677461E+02  0.00000000000E+00 0.  1.
        -11    1    3    3    0    0  0.43064288352E+02 -0.21579921196E+02 -0.30817992533E+02  0.57183691677E+02  0.00000000000E+00 0. -1.
         11    1    3    3    0    0  0.83858494042E+02  0.78922581454E+02 -0.14741587789E+03  0.18706272194E+03  0.00000000000E+00 0.  1.
          2    1    1    2  501    0 -0.42988140800E+02  0.52782712982E+02 -0.33946813204E+03  0.34622623775E+03  0.00000000000E+00 0. -1.
<scales pt_clust_5="13000.00000" pt_clust_6="13000.00000" pt_clust_7="13000.00000" pt_clust_8="13000.00000" pt_clust_9="68.07349"></scales>
<clustering>
<clus scale="   68.073">  1  9  2 -1</clus>
<clus scale="   80.253">  5  6 -1 -1</clus>
<clus scale="   92.149">  7  8 -1 -1</clus>
<clus scale="  157.014">  1  5  2 -1</clus>
<clus scale="   68.073">  1  5  2 -1</clus>
</clustering>
</event>
<event>
 9    1  0.8429841E-005  0.1726936E+03  0.7546771E-02  0.1205231E+00
          1   -1    0    0  502    0 -0.00000000000E+00  0.00000000000E+00  0.55960966224E+03  0.55960966224E+03  0.00000000000E+00 0. -1.
         21   -1    0    0  501  502  0.00000000000E+00 -0.00000000000E+00 -0.18086622907E+03  0.18086622907E+03  0.00000000000E+00 0. -1.
        -24    2    1    2    0    0  0.15160180648E+02 -0.35089078549E+02 -0.41037074620E+02  0.97723454147E+02  0.80029728766E+02 0.  0.
         23    2    1    2    0    0 -0.15896820057E+03  0.10229242489E+02  0.45678326025E+03  0.49219360570E+03  0.90708723110E+02 0.  0.
         11    1    3    3    0    0 -0.18686880460E+02 -0.48236763302E+02 -0.29868562243E+02  0.59733707784E+02  0.00000000000E+00 0. -1.
        -12    1    3    3    0    0  0.33847061108E+02  0.13147684752E+02 -0.11168512378E+02  0.37989746363E+02  0.00000000000E+00 0.  1.
        -11    1    4    4    0    0 -0.54039326898E+01  0.28048308441E+02  0.78825879411E+02  0.83841692253E+02  0.00000000000E+00 0.  1.
         11    1    4    4    0    0 -0.15356426788E+03 -0.17819065953E+02  0.37795738084E+03  0.40835191345E+03  0.00000000000E+00 0. -1.
          2    1    1    2  501    0  0.14380801993E+03  0.24859836060E+02 -0.37002752460E+02  0.15055883147E+03  0.00000000000E+00 0. -1.
<scales pt_clust_5="13000.00000" pt_clust_6="13000.00000" pt_clust_7="13000.00000" pt_clust_8="13000.00000" pt_clust_9="146.95235"></scales>
<clustering>
<clus scale="   80.030">  5  6 -1 -1</clus>
<clus scale="   88.690">  1  5  2 -1</clus>
<clus scale="   90.709">  7  8 -1 -1</clus>
<clus scale="  146.952">  2  9  1 -1</clus>
<clus scale="  146.952">  2  5  1 -1</clus>
</clustering>
</event>
<event>
 9    1  0.8429841E-005  0.1308129E+03  0.7546771E-02  0.1245875E+00
         21   -1    0    0  501  502  0.00000000000E+00  0.00000000000E+00  0.97134250603E+02  0.97134250603E+02  0.00000000000E+00 0.  1.
          1   -1    0    0  502    0 -0.00000000000E+00 -0.00000000000E+00 -0.35346678019E+03  0.35346678019E+03  0.00000000000E+00 0. -1.
        -24    2    1    2    0    0  0.47707180545E+01  0.40427634037E+02 -0.34111726551E+01  0.87656526990E+02  0.77555639901E+02 0.  0.
         23    2    1    2    0    0 -0.88301015731E+02  0.65619540628E+01 -0.23210098659E+03  0.26486892152E+03  0.91894227182E+02 0.  0.
         13    1    3    3    0    0 -0.24430699958E+01 -0.23250283053E+02 -0.29999854605E+01  0.23569984425E+02  0.00000000000E+00 0. -1.
        -14    1    3    3    0    0  0.72137880502E+01  0.63677917090E+02 -0.41118719468E+00  0.64086542565E+02  0.00000000000E+00 0.  1.
        -13    1    4    4    0    0  0.19637724165E+01 -0.25649897274E+02 -0.88965338216E+02  0.92609961863E+02  0.00000000000E+00 0. -1.
         13    1    4    4    0    0 -0.90264788147E+02  0.32211851337E+02 -0.14313564837E+03  0.17225895965E+03  0.00000000000E+00 0.  1.
          2    1    1    2  501    0  0.83530297676E+02 -0.46989588100E+02 -0.20820370344E+02  0.98075582287E+02  0.00000000000E+00 0. -1.
<scales pt_clust_5="13000.00000" pt_clust_6="13000.00000" pt_clust_7="13000.00000" pt_clust_8="13000.00000" pt_clust_9="93.09927"></scales>
<clustering>
<clus scale="   77.556">  5  6 -1 -1</clus>
<clus scale="   87.590">  2  5  1 -1</clus>
<clus scale="   91.894">  7  8 -1 -1</clus>
<clus scale="   93.099">  1  9  2 -1</clus>
<clus scale="   93.099">  1  5  2 -1</clus>
</clustering>
</event>
<event>
 9    1  0.8429841E-005  0.1353702E+03  0.7546771E-02  0.1222391E+00
          1   -1    0    0  502    0 -0.00000000000E+00  0.00000000000E+00  0.52472180953E+03  0.52472180953E+03  0.00000000000E+00 0. -1.
         21   -1    0    0  501  502  0.00000000000E+00 -0.00000000000E+00 -0.10216795628E+03  0.10216795628E+03  0.00000000000E+00 0.  1.
        -24    2    1    2    0    0  0.79332168157E+02 -0.70363844282E+02  0.38515222803E+03  0.40722572709E+03  0.79030946861E+02 0.  0.
         23    2    1    2    0    0 -0.39185388253E+02  0.44367719370E+02 -0.50648305846E+02  0.11946247782E+03  0.90565134282E+02 0.  0.
         11    1    3    3    0    0  0.71588917577E+02 -0.86224733380E+02  0.35519519643E+03  0.37245577635E+03  0.00000000000E+00 0. -1.
        -12    1    3    3    0    0  0.77432505805E+01  0.15860889098E+02  0.29957031593E+02  0.34769950739E+02  0.00000000000E+00 0.  1.
        -13    1    4    4    0    0  0.31046465481E+01  0.57664500911E+02 -0.86429851156E+01  0.58391220978E+02  0.00000000000E+00 0. -1.
         13    1    4    4    0    0 -0.42290034801E+02 -0.13296781541E+02 -0.42005320730E+02  0.61071256844E+02  0.00000000000E+00 0.  1.
          2    1    1    2  501    0 -0.40146779905E+02  0.25996124912E+02  0.88049931068E+02  0.10020156091E+03  0.00000000000E+00 0. -1.
<scales pt_clust_5="13000.00000" pt_clust_6="13000.00000" pt_clust_7="13000.00000" pt_clust_8="13000.00000" pt_clust_9="47.82849"></scales>
<clustering>
<clus scale="   47.828">  2  9  1 -1</clus>
<clus scale="   79.031">  5  6 -1 -1</clus>
<clus scale="   90.565">  7  8 -1 -1</clus>
<clus scale="  127.941">  1  5  2 -1</clus>
<clus scale="   47.828">  2  5  1 -1</clus>
</clustering>
</event>
<event>
 9    1  0.8429841E-005  0.1309702E+03  0.7546771E-02  0.1229080E+00
         21   -1    0    0  501  502  0.00000000000E+00  0.00000000000E+00  0.23154616767E+03  0.23154616767E+03  0.00000000000E+00 0.  1.
         -2   -1    0    0    0  501 -0.00000000000E+00 -0.00000000000E+00 -0.13905807602E+03  0.13905807602E+03  0.00000000000E+00 0.  1.
        -24    2    1    2    0    0  0.34799594717E+02  0.81683118402E+02 -0.27388512535E+02  0.12311621235E+03  0.80773309323E+02 0.  0.
         23    2    1    2    0    0 -0.78970659872E+02 -0.70119594187E+02  0.25605965970E+02  0.14274190341E+03  0.92555188332E+02 0.  0.
         13    1    3    3    0    0  0.15065390727E+02  0.17116268868E+02  0.27771289179E+02  0.35932953683E+02  0.00000000000E+00 0. -1.
        -14    1    3    3    0    0  0.19734203990E+02  0.64566849534E+02 -0.55159801714E+02  0.87183258663E+02  0.00000000000E+00 0.  1.
        -11    1    4    4    0    0 -0.60417078484E+01 -0.22255461931E+02 -0.31085652046E+02  0.38705627273E+02  0.00000000000E+00 0. -1.
         11    1    4    4    0    0 -0.72928952023E+02 -0.47864132257E+02  0.56691618015E+02  0.10403627614E+03  0.00000000000E+00 0.  1.
         -1    1    1    2    0  502  0.44171065154E+02 -0.11563524215E+02  0.94270638216E+02  0.10474612794E+03  0.00000000000E+00 0.  1.
<scales pt_clust_5="13000.00000" pt_clust_6="13000.00000" pt_clust_7="13000.00000" pt_clust_8="13000.00000" pt_clust_9="45.65959"></scales>
<clustering>
<clus scale="   45.660">  1  9  2 -1</clus>
<clus scale="   80.773">  5  6 -1 -1</clus>
<clus scale="   92.555">  7  8 -1 -1</clus>
<clus scale="  122.927">  2  5  1 -1</clus>
<clus scale="   45.660">  1  5  2 -1</clus>
</clustering>
</event>
<event>
 9    1  0.8429841E-005  0.1327051E+03  0.7546771E-02  0.1226830E+00
          3   -1    0    0  502    0 -0.00000000000E+00  0.00000000000E+00  0.12802242226E+03  0.12802242226E+03  0.00000000000E+00 0. -1.
         21   -1    0    0  501  502  0.00000000000E+00 -0.00000000000E+00 -0.48271150049E+03  0.48271150049E+03  0.00000000000E+00 0. -1.
         23    2    1    2    0    0 -0.31287570939E+02 -0.98707861751E+02  0.68747378125E+02  0.15566720217E+03  0.93722578742E+02 0.  0.
        -24    2    1    2    0    0 -0.13519654078E+02  0.53576382518E+02 -0.19773943583E+03  0.22058072333E+03  0.80633499328E+02 0.  0.
         13    1    4    4    0    0 -0.42651513114E+02  0.50803641260E+02 -0.11424179675E+03  0.13210355658E+03  0.00000000000E+00 0. -1.
        -14    1    4    4    0    0  0.29131859037E+02  0.27727412586E+01 -0.83497639079E+02  0.88477166754E+02  0.00000000000E+00 0.  1.
        -11    1    3    3    0    0 -0.13673692597E+02 -0.70338840617E+02  0.90786357303E+02  0.11565761990E+03  0.00000000000E+00 0. -1.
         11    1    3    3    0    0 -0.17613878342E+02 -0.28369021134E+02 -0.22038979178E+02  0.40009582272E+02  0.00000000000E+00 0.  1.
          4    1    1    2  501    0  0.44807225017E+02  0.45131479233E+02 -0.22569702052E+03  0.23448599725E+03  0.00000000000E+00 0. -1.
<scales pt_clust_5="13000.00000" pt_clust_6="13000.00000" pt_clust_7="13000.00000" pt_clust_8="13000.00000" pt_clust_9="63.59668"></scales>
<clustering>
<clus scale="   63.597">  2  9  1 -1</clus>
<clus scale="   80.633">  5  6 -1 -1</clus>
<clus scale="   93.723">  7  8 -1 -1</clus>
<clus scale="  123.808">  2  5  1 -1</clus>
<clus scale="   63.597">  2  5  1 -1</clus>
</clustering>
</event>
<event>
 9    1  0.8429841E-005  0.1123731E+03  0.7546771E-02  0.1261506E+00
          3   -1    0    0  502    0 -0.00000000000E+00  0.00000000000E+00  0.39502933855E+03  0.39502933855E+03  0.00000000000E+00 0. -1.
         21   -1    0    0  501  502  0.00000000000E+00 -0.00000000000E+00 -0.88587110760E+02  0.88587110760E+02  0.00000000000E+00 0.  1.
        -24    2    1    2    0    0 -0.35226623765E+02  0.58662550465E+02  0.31664714591E+03  0.33349857750E+03  0.79206542244E+02 0.  0.
         23    2    1    2    0    0  0.14365403885E+02 -0.17634319082E+02 -0.29608142718E+02  0.10016798302E+03  0.92949710424E+02 0.  0.
         13    1    3    3    0    0  0.23249508840E+02  0.34028532309E+02  0.12622269029E+03  0.13278045118E+03  0.00000000000E+00 0. -1.
        -14    1    3    3    0    0 -0.58476132605E+02  0.24634018155E+02  0.19042445562E+03  0.20071812632E+03  0.00000000000E+00 0.  1.
        -13    1    4    4    0    0  0.50805135774E+02 -0.21338718089E+02 -0.35535765108E+01  0.55218933499E+02  0.00000000000E+00 0. -1.
         13    1    4    4    0    0 -0.36439731890E+02  0.37043990070E+01 -0.26054566207E+02  0.44949049516E+02  0.00000000000E+00 0.  1.
          4    1    1    2  501    0  0.20861219880E+02 -0.41028231383E+02  0.19403224593E+02  0.49949888788E+02  0.00000000000E+00 0. -1.
<scales pt_clust_5="13000.00000" pt_clust_6="13000.00000" pt_clust_7="13000.00000" pt_clust_8="13000.00000" pt_clust_9="46.02723"></scales>
<clustering>
<clus scale="   46.027">  2  9  1 -1</clus>
<clus scale="   79.207">  5  6 -1 -1</clus>
<clus scale="   92.950">  7  8 -1 -1</clus>
<clus scale="  101.300">  1  5  2 -1</clus>
<clus scale="   46.027">  2  5  1 -1</clus>
</clustering>
</event>
<event>
 9    1  0.8429841E-005  0.1236213E+03  0.7546771E-02  0.1244860E+00
         21   -1    0    0  501  502  0.00000000000E+00  0.00000000000E+00  0.65355293092E+02  0.65355293092E+02  0.00000000000E+00 0. -1.
         -2   -1    0    0    0  501 -0.00000000000E+00 -0.00000000000E+00 -0.40687231195E+03  0.40687231195E+03  0.00000000000E+00 0.  1.
         23    2    1    2    0    0 -0.74429010872E+02 -0.12134250733E+02 -0.28174968935E+03  0.30843699769E+03  0.10031737834E+03 0.  0.
        -24    2    1    2    0    0  0.61582290714E+02 -0.48909591892E+01  0.13138119169E+01  0.99092834361E+02  0.77468469125E+02 0.  0.
         11    1    4    4    0    0  0.43784903726E+02  0.20394469439E+02  0.30045301843E+02  0.56883849561E+02  0.00000000000E+00 0. -1.
        -12    1    4    4    0    0  0.17797386988E+02 -0.25285428629E+02 -0.28731489926E+02  0.42208984800E+02  0.00000000000E+00 0.  1.
        -13    1    3    3    0    0 -0.24955675991E+02  0.37125905466E+02 -0.53442615269E+02  0.69693842968E+02  0.00000000000E+00 0.  1.
         13    1    3    3    0    0 -0.49473334882E+02 -0.49260156200E+02 -0.22830707408E+03  0.23874315472E+03  0.00000000000E+00 0. -1.
         -1    1    1    2    0  502  0.12846720159E+02  0.17025209923E+02 -0.61081141427E+02  0.64697772990E+02  0.00000000000E+00 0.  1.
<scales pt_clust_5="13000.00000" pt_clust_6="13000.00000" pt_clust_7="13000.00000" pt_clust_8="13000.00000" pt_clust_9="21.32830"></scales>
<clustering>
<clus scale="   21.328">  1  9  2 -1</clus>
<clus scale="   77.468">  5  6 -1 -1</clus>
<clus scale="  100.317">  7  8 -1 -1</clus>
<clus scale="  105.925">  1  5  2 -1</clus>
<clus scale="   21.328">  1  5  2 -1</clus>
</clustering>
</event>
<event>
 9    1  0.8429841E-005  0.1272997E+03  0.7546771E-02  0.1234334E+00
          1   -1    0    0  502    0 -0.00000000000E+00  0.00000000000E+00  0.31007973438E+03  0.31007973438E+03  0.00000000000E+00 0. -1.
         21   -1    0    0  501  502  0.00000000000E+00 -0.00000000000E+00 -0.14668878308E+03  0.14668878308E+03  0.00000000000E+00 0. -1.
         23    2    1    2    0    0  0.10210405726E+03  0.45302019758E+02  0.14645004421E+03  0.20583058374E+03  0.91875471436E+02 0.  0.
        -24    2    1    2    0    0 -0.91679710800E+01 -0.87933605375E+02  0.66286016808E+02  0.13740596438E+03  0.81671245703E+02 0.  0.
         13    1    4    4    0    0 -0.28748528439E+02 -0.41806178896E+02  0.70787973858E+02  0.87092891353E+02  0.00000000000E+00 0. -1.
        -14    1    4    4    0    0  0.19580557359E+02 -0.46127426479E+02 -0.45019570499E+01  0.50313073026E+02  0.00000000000E+00 0.  1.
        -13    1    3    3    0    0 -0.11198323690E+02  0.26717106125E+02  0.21065254501E+02  0.35818307614E+02  0.00000000000E+00 0.  1.
         13    1    3    3    0    0  0.11330238095E+03  0.18584913634E+02  0.12538478971E+03  0.17001227613E+03  0.00000000000E+00 0. -1.
          2    1    1    2  501    0 -0.92936086184E+02  0.42631585616E+02 -0.49345109714E+02  0.11353196933E+03  0.00000000000E+00 0. -1.
<scales pt_clust_5="13000.00000" pt_clust_6="13000.00000" pt_clust_7="13000.00000" pt_clust_8="13000.00000" pt_clust_9="102.24758"></scales>
<clustering>
<clus scale="   81.671">  5  6 -1 -1</clus>
<clus scale="   91.875">  7  8 -1 -1</clus>
<clus scale="  102.248">  2  9  1 -1</clus>
<clus scale="  120.143">  2  5  1 -1</clus>
<clus scale="  102.248">  2  5  1 -1</clus>
</clustering>
</event>
<event>
 9    1  0.8429841E-005  0.1025907E+03  0.7546771E-02  0.1279227E+00
         21   -1    0    0  501  502  0.00000000000E+00  0.00000000000E+00  0.10209894648E+03  0.10209894648E+03  0.00000000000E+00 0. -1.
          3   -1    0    0  502    0 -0.00000000000E+00 -0.00000000000E+00 -0.16171643913E+03  0.16171643913E+03  0.00000000000E+00 0. -1.
        -24    2    1    2    0    0  0.19532017987E+02  0.36417804268E+02 -0.28463512037E+02  0.98128523209E+02  0.84328401831E+02 0.  0.
         23    2    1    2    0    0 -0.41571909910E+02 -0.26261081428E+02  0.21579017184E+02  0.10763787523E+03  0.93286601982E+02 0.  0.
         11    1    3    3    0    0  0.44961021257E+02  0.39147488145E+00 -0.29919566845E+02  0.54007658394E+02  0.00000000000E+00 0. -1.
        -12    1    3    3    0    0 -0.25429003270E+02  0.36026329386E+02  0.14560548084E+01  0.44120864814E+02  0.00000000000E+00 0.  1.
        -13    1    4    4    0    0 -0.62708565914E+02 -0.45007226156E+02  0.16528307514E+02  0.78937947747E+02  0.00000000000E+00 0. -1.
         13    1    4    4    0    0  0.21136656004E+02  0.18746144728E+02  0.50507096702E+01  0.28699927480E+02  0.00000000000E+00 0.  1.
          4    1    1    2  501    0  0.22039891924E+02 -0.10156722840E+02 -0.52732997800E+02  0.58048987173E+02  0.00000000000E+00 0. -1.
<scales pt_clust_5="13000.00000" pt_clust_6="13000.00000" pt_clust_7="13000.00000" pt_clust_8="13000.00000" pt_clust_9="24.26760"></scales>
<clustering>
<clus scale="   24.268">  1  9  2 -1</clus>
<clus scale="   84.328">  5  6 -1 -1</clus>
<clus scale="   93.287">  7  8 -1 -1</clus>
<clus scale="   94.519">  2  5  1 -1</clus>
<clus scale="   24.268">  1  5  2 -1</clus>
</clustering>
</event>
<event>
 9    1  0.8429841E-005  0.1326355E+03  0.7546771E-02  0.1227608E+00
          1   -1    0    0  502    0 -0.00000000000E+00  0.00000000000E+00  0.51226083963E+03  0.51226083963E+03  0.00000000000E+00 0. -1.
         21   -1    0    0  501  502  0.00000000000E+00 -0.00000000000E+00 -0.78953658250E+02  0.78953658250E+02  0.00000000000E+00 0. -1.
        -24    2    1    2    0    0  0.45793358960E+02  0.10114755652E+03  0.17688891444E+03  0.22377364685E+03  0.80356064208E+02 0.  0.
         23    2    1    2    0    0 -0.71726786129E+02 -0.18900120022E+02  0.29421520937E+02  0.12461435711E+03  0.95713978700E+02 0.  0.
         11    1    3    3    0    0  0.19722619666E+02  0.81857256530E+02  0.17128502191E+03  0.19086160144E+03  0.00000000000E+00 0. -1.
        -12    1    3    3    0    0  0.26070739293E+02  0.19290299994E+02  0.56038925266E+01  0.32912045403E+02  0.00000000000E+00 0.  1.
        -13    1    4    4    0    0 -0.66166704996E+02  0.17390380273E+02 -0.11788552867E+02  0.69422101342E+02  0.00000000000E+00 0. -1.
         13    1    4    4    0    0 -0.55600811337E+01 -0.36290500295E+02  0.41210073805E+02  0.55192255769E+02  0.00000000000E+00 0.  1.
          2    1    1    2  501    0  0.25933427170E+02 -0.82247436502E+02  0.22699674600E+03  0.24282649392E+03  0.00000000000E+00 0. -1.
<scales pt_clust_5="13000.00000" pt_clust_6="13000.00000" pt_clust_7="13000.00000" pt_clust_8="13000.00000" pt_clust_9="86.23915"></scales>
<clustering>
<clus scale="   80.356">  5  6 -1 -1</clus>
<clus scale="   86.239">  2  9  1 -1</clus>
<clus scale="   95.714">  7  8 -1 -1</clus>
<clus scale="  122.017">  1  5  2 -1</clus>
<clus scale="   86.239">  2  5  1 -1</clus>
</clustering>
</event>
<event>
 9    1  0.8429841E-005  0.1234622E+03  0.7546771E-02  0.1242710E+00
         21   -1    0    0  501  502  0.00000000000E+00  0.00000000000E+00  0.55891604999E+03  0.55891604999E+03  0.00000000000E+00 0. -1.
         -2   -1    0    0    0  501 -0.00000000000E+00 -0.00000000000E+00 -0.40098786745E+02  0.40098786745E+02  0.00000000000E+00 0.  1.
        -24    2    1    2    0    0  0.75564055652E+02 -0.12774173875E+01  0.21186074704E+03  0.23622672056E+03  0.72156282265E+02 0.  0.
         23    2    1    2    0    0 -0.96497192703E+02 -0.17404778811E+02  0.30710325553E+03  0.33473027923E+03  0.90096147231E+02 0.  0.
         11    1    3    3    0    0  0.11368018599E+02 -0.20883402998E+02  0.12070073885E+03  0.12302039151E+03  0.00000000000E+00 0. -1.
        -12    1    3    3    0    0  0.64196037053E+02  0.19605985611E+02  0.91160008183E+02  0.11320632905E+03  0.00000000000E+00 0.  1.
        -13    1    4    4    0    0 -0.27546541422E+02 -0.43082909068E+02  0.71492559084E+02  0.87898435723E+02  0.00000000000E+00 0.  1.
         13    1    4    4    0    0 -0.68950651281E+02  0.25678130257E+02  0.23561069645E+03  0.24683184350E+03  0.00000000000E+00 0. -1.
         -1    1    1    2    0  502  0.20933137051E+02  0.18682196199E+02 -0.14673932885E+00  0.28057836945E+02  0.00000000000E+00 0.  1.
<scales pt_clust_5="13000.00000" pt_clust_6="13000.00000" pt_clust_7="13000.00000" pt_clust_8="13000.00000" pt_clust_9="28.05747"></scales>
<clustering>
<clus scale="   28.057">  1  9  2 -1</clus>
<clus scale="   72.156">  5  6 -1 -1</clus>
<clus scale="   90.096">  7  8 -1 -1</clus>
<clus scale="  111.050">  2  5  1 -1</clus>
<clus scale="   28.057">  1  5  2 -1</clus>
</clustering>
</event>
<event>
 9    1  0.8429841E-005  0.9110719E+02  0.7546771E-02  0.1305217E+00
         21   -1    0    0  501  502  0.00000000000E+00  0.00000000000E+00  0.43737265396E+02  0.43737265396E+02  0.00000000000E+00 0. -1.
          1   -1    0    0  502    0 -0.00000000000E+00 -0.00000000000E+00 -0.80240215731E+03  0.80240215731E+03  0.00000000000E+00 0. -1.
        -24    2    1    2    0    0 -0.14785756554E+02 -0.19066960882E+02 -0.19131931952E+03  0.20981186347E+03  0.82678706090E+02 0.  0.
         23    2    1    2    0    0 -0.32109131648E+02 -0.35050350263E+02 -0.49890520726E+02  0.11394116545E+03  0.90741400350E+02 0.  0.
         11    1    3    3    0    0 -0.24000678115E+02 -0.24573224732E+02 -0.19534885634E+03  0.19834578795E+03  0.00000000000E+00 0. -1.
        -12    1    3    3    0    0  0.92149215616E+01  0.55062638503E+01  0.40295368234E+01  0.11466075527E+02  0.00000000000E+00 0.  1.
        -13    1    4    4    0    0 -0.14449900707E+02 -0.63905092295E+02 -0.45634963425E+02  0.79844914293E+02  0.00000000000E+00 0. -1.
         13    1    4    4    0    0 -0.17659230941E+02  0.28854742032E+02 -0.42555573011E+01  0.34096251159E+02  0.00000000000E+00 0.  1.
          2    1    1    2  501    0  0.46894888201E+02  0.54117311145E+02 -0.51745505167E+03  0.52238639378E+03  0.00000000000E+00 0. -1.
<scales pt_clust_5="13000.00000" pt_clust_6="13000.00000" pt_clust_7="13000.00000" pt_clust_8="13000.00000" pt_clust_9="71.60879"></scales>
<clustering>
<clus scale="   71.609">  1  9  2 -1</clus>
<clus scale="   82.679">  5  6 -1 -1</clus>
<clus scale="   83.080">  2  5  1 -1</clus>
<clus scale="   90.741">  7  8 -1 -1</clus>
<clus scale="   71.609">  1  5  2 -1</clus>
</clustering>
</event>
<event>
 9    1  0.8429841E-005  0.1033847E+03  0.7546771E-02  0.1275181E+00
          1   -1    0    0  502    0 -0.00000000000E+00  0.00000000000E+00  0.56003474390E+03  0.56003474390E+03  0.00000000000E+00 0. -1.
         21   -1    0    0  501  502  0.00000000000E+00 -0.00000000000E+00 -0.54725849431E+02  0.54725849431E+02  0.00000000000E+00 0. -1.
         23    2    1    2    0    0 -0.82598568928E+00  0.44395016910E+02  0.40341617056E+03  0.41610100141E+03  0.91781462878E+02 0.  0.
        -24    2    1    2    0    0 -0.15037426503E+02 -0.70368405180E+02  0.25287836222E+02  0.11623038859E+03  0.87705141961E+02 0.  0.
         11    1    4    4    0    0 -0.38559297473E+02 -0.11922251528E+01 -0.96905187683E+00  0.38589893547E+02  0.00000000000E+00 0. -1.
        -12    1    4    4    0    0  0.23521870970E+02 -0.69176180028E+02  0.26256888098E+02  0.77640495038E+02  0.00000000000E+00 0.  1.
        -13    1    3    3    0    0 -0.35912565263E+02  0.41975798052E+02  0.33120756188E+03  0.33578285992E+03  0.00000000000E+00 0.  1.
         13    1    3    3    0    0  0.35086579573E+02  0.24192188572E+01  0.72208608676E+02  0.80318141494E+02  0.00000000000E+00 0. -1.
          2    1    1    2  501    0  0.15863412193E+02  0.25973388271E+02  0.76604887690E+02  0.82429203337E+02  0.00000000000E+00 0. -1.
<scales pt_clust_5="13000.00000" pt_clust_6="13000.00000" pt_clust_7="13000.00000" pt_clust_8="13000.00000" pt_clust_9="30.43461"></scales>
<clustering>
<clus scale="   30.435">  2  9  1 -1</clus>
<clus scale="   87.705">  5  6 -1 -1</clus>
<clus scale="   91.781">  7  8 -1 -1</clus>
<clus scale="   99.784">  2  5  1 -1</clus>
<clus scale="   30.435">  2  5  1 -1</clus>
</clustering>
</event>
<event>
 9    1  0.8429841E-005  0.1041709E+03  0.7546771E-02  0.1280286E+00
          1   -1    0    0  502    0 -0.00000000000E+00  0.00000000000E+00  0.33935606577E+02  0.33935606577E+02  0.00000000000E+00 0. -1.
         21   -1    0    0  501  502  0.00000000000E+00 -0.00000000000E+00 -0.68266421874E+03  0.68266421874E+03  0.00000000000E+00 0.  1.
         23    2    1    2    0    0 -0.85673681809E+00 -0.23113768455E+02 -0.11629084192E+03  0.15308276511E+03  0.96828677404E+02 0.  0.
        -24    2    1    2    0    0 -0.25288986436E+02  0.81975152061E+02 -0.38986668267E+03  0.40707289658E+03  0.79704795827E+02 0.  0.
         13    1    4    4    0    0 -0.20405132885E+02  0.20768259485E+02 -0.29265395930E+02  0.41281393497E+02  0.00000000000E+00 0. -1.
        -14    1    4    4    0    0 -0.48838535509E+01  0.61206892576E+02 -0.36060128674E+03  0.36579150308E+03  0.00000000000E+00 0.  1.
        -11    1    3    3    0    0  0.76834200688E+01  0.36460051382E+02 -0.29790028777E+02  0.47705514411E+02  0.00000000000E+00 0. -1.
         11    1    3    3    0    0 -0.85401568869E+01 -0.59573819836E+02 -0.86500813146E+02  0.10537725070E+03  0.00000000000E+00 0.  1.
          2    1    1    2  501    0  0.26145723254E+02 -0.58861383606E+02 -0.14257108756E+03  0.15644416363E+03  0.00000000000E+00 0. -1.
<scales pt_clust_5="13000.00000" pt_clust_6="13000.00000" pt_clust_7="13000.00000" pt_clust_8="13000.00000" pt_clust_9="64.40700"></scales>
<clustering>
<clus scale="   64.407">  2  9  1 -1</clus>
<clus scale="   79.705">  5  6 -1 -1</clus>
<clus scale="   88.480">  2  5  1 -1</clus>
<clus scale="   96.829">  7  8 -1 -1</clus>
<clus scale="   64.407">  2  5  1 -1</clus>
</clustering>
</event>
<event>
 9    1  0.8429841E-005  0.1338399E+03  0.7546771E-02  0.1240072E+00
         21   -1    0    0  501  502  0.00000000000E+00  0.00000000000E+00  0.20782902754E+03  0.20782902754E+03  0.00000000000E+00 0. -1.
          1   -1    0    0  502    0 -0.00000000000E+00 -0.00000000000E+00 -0.19219320242E+03  0.19219320242E+03  0.00000000000E+00 0. -1.
         23    2    1    2    0    0  0.19175247002E+02  0.21478805595E+02  0.10568665301E+02  0.92560798857E+02  0.87331412512E+02 0.  0.
        -24    2    1    2    0    0  0.65213682459E+02  0.57408829283E+02 -0.99195649120E+02  0.15184818077E+03  0.75296049960E+02 0.  0.
         11    1    4    4    0    0  0.64215873142E+02  0.71012618267E+02 -0.99663061352E+02  0.13819984122E+03  0.00000000000E+00 0. -1.
        -12    1    4    4    0    0  0.99780931700E+00 -0.13603788984E+02  0.46741223213E+00  0.13648339546E+02  0.00000000000E+00 0.  1.
        -11    1    3    3    0    0 -0.17328721409E+02 -0.20737470478E+02 -0.15291216061E+02  0.31050741636E+02  0.00000000000E+00 0.  1.
         11    1    3    3    0    0  0.36503968411E+02  0.42216276073E+02  0.25859881362E+02  0.61510057221E+02  0.00000000000E+00 0. -1.
          2    1    1    2  501    0 -0.84388929461E+02 -0.78887634878E+02  0.10426280894E+03  0.15561325033E+03  0.00000000000E+00 0. -1.
<scales pt_clust_5="13000.00000" pt_clust_6="13000.00000" pt_clust_7="13000.00000" pt_clust_8="13000.00000" pt_clust_9="110.65087"></scales>
<clustering>
<clus scale="   75.296">  5  6 -1 -1</clus>
<clus scale="   87.331">  7  8 -1 -1</clus>
<clus scale="   91.955">  2  7  1 -1</clus>
<clus scale="  110.651">  1  9  2 -1</clus>
<clus scale="  110.651">  1  5  2 -1</clus>
</clustering>
</event>
<event>
 9    1  0.8429841E-005  0.1105864E+03  0.7546771E-02  0.1263177E+00
          1   -1    0    0  502    0 -0.00000000000E+00  0.00000000000E+00  0.33252624247E+03  0.33252624247E+03  0.00000000000E+00 0. -1.
         21   -1    0    0  501  502  0.00000000000E+00 -0.00000000000E+00 -0.72537335701E+02  0.72537335701E+02  0.00000000000E+00 0. -1.
         23    2    1    2    0    0  0.17280300991E+02 -0.31740308295E+02  0.10512152949E+03  0.14405303021E+03  0.91622505852E+02 0.  0.
        -24    2    1    2    0    0 -0.51463077364E+02  0.96412514771E+02  0.94936811794E+02  0.16644507238E+03  0.82140991899E+02 0.  0.
         13    1    4    4    0    0 -0.65621563784E+02  0.98648810692E+02  0.95382849843E+02  0.15210412726E+03  0.00000000000E+00 0. -1.
        -14    1    4    4    0    0  0.14158486419E+02 -0.22362959209E+01 -0.44603804950E+00  0.14340945125E+02  0.00000000000E+00 0.  1.
        -13    1    3    3    0    0  0.32504935947E+02  0.29037324762E+01  0.10081691103E+03  0.10596722169E+03  0.00000000000E+00 0. -1.
         13    1    3    3    0    0 -0.15224634956E+02 -0.34644040771E+02  0.43046184536E+01  0.38085808518E+02  0.00000000000E+00 0.  1.
          2    1    1    2  501    0  0.34182776373E+02 -0.64672206477E+02  0.59930565486E+02  0.94565475575E+02  0.00000000000E+00 0. -1.
<scales pt_clust_5="13000.00000" pt_clust_6="13000.00000" pt_clust_7="13000.00000" pt_clust_8="13000.00000" pt_clust_9="73.15023"></scales>
<clustering>
<clus scale="   73.150">  2  9  1 -1</clus>
<clus scale="   82.141">  5  6 -1 -1</clus>
<clus scale="   91.623">  7  8 -1 -1</clus>
<clus scale="  102.868">  2  5  1 -1</clus>
<clus scale="   73.150">  2  5  1 -1</clus>
</clustering>
</event>
<event>
 9    1  0.8429841E-005  0.1293900E+03  0.7546771E-02  0.1228660E+00
         21   -1    0    0  501  502  0.00000000000E+00  0.00000000000E+00  0.19051277163E+03  0.19051277163E+03  0.00000000000E+00 0. -1.
          1   -1    0    0  502    0 -0.00000000000E+00 -0.00000000000E+00 -0.52666971292E+03  0.52666971292E+03  0.00000000000E+00 0. -1.
        -24    2    1    2    0    0 -0.74020038515E+02  0.53677142076E+02 -0.45611938279E+03  0.47387559139E+03  0.90293870648E+02 0.  0.
         23    2    1    2    0    0  0.11321420712E+03 -0.38429649034E+00  0.83453095267E+02  0.16774736295E+03  0.91417472558E+02 0.  0.
         13    1    3    3    0    0 -0.89074097637E+02  0.31737849732E+02 -0.40874929201E+03  0.41954435963E+03  0.00000000000E+00 0. -1.
        -14    1    3    3    0    0  0.15054059122E+02  0.21939292344E+02 -0.47370090783E+02  0.54331231768E+02  0.00000000000E+00 0.  1.
        -13    1    4    4    0    0  0.10435815851E+03 -0.34608935014E+02  0.59159560173E+02  0.12485294226E+03  0.00000000000E+00 0. -1.
         13    1    4    4    0    0  0.88560486095E+01  0.34224638524E+02  0.24293535094E+02  0.42894420691E+02  0.00000000000E+00 0.  1.
          2    1    1    2  501    0 -0.39194168606E+02 -0.53292845586E+02  0.36509346235E+02  0.75559530212E+02  0.00000000000E+00 0. -1.
<scales pt_clust_5="13000.00000" pt_clust_6="13000.00000" pt_clust_7="13000.00000" pt_clust_8="13000.00000" pt_clust_9="66.15369"></scales>
<clustering>
<clus scale="   66.154">  1  9  2 -1</clus>
<clus scale="   90.294">  5  6 -1 -1</clus>
<clus scale="   91.417">  7  8 -1 -1</clus>
<clus scale="  128.599">  2  5  1 -1</clus>
<clus scale="   66.154">  1  5  2 -1</clus>
</clustering>
</event>
<event>
 9    1  0.8429841E-005  0.1218675E+03  0.7546771E-02  0.1251569E+00
          1   -1    0    0  502    0 -0.00000000000E+00  0.00000000000E+00  0.28982335400E+03  0.28982335400E+03  0.00000000000E+00 0. -1.
         21   -1    0    0  501  502  0.00000000000E+00 -0.00000000000E+00 -0.12351532017E+03  0.12351532017E+03  0.00000000000E+00 0.  1.
         23    2    1    2    0    0 -0.33385357447E+02  0.64247123816E+01 -0.49834442874E+02  0.10874775919E+03  0.90480630035E+02 0.  0.
        -24    2    1    2    0    0 -0.66061678832E+02 -0.30414492665E+02  0.13495254403E+03  0.17398835854E+03  0.82283491614E+02 0.  0.
         11    1    4    4    0    0 -0.98347578583E+01 -0.48680548198E+02  0.49859018630E+02  0.70373574399E+02  0.00000000000E+00 0. -1.
        -12    1    4    4    0    0 -0.56226920974E+02  0.18266055533E+02  0.85093525402E+02  0.10361478414E+03  0.00000000000E+00 0.  1.
        -13    1    3    3    0    0  0.14186772884E+02 -0.31828756469E+02 -0.24790522525E+02  0.42765690341E+02  0.00000000000E+00 0.  1.
         13    1    3    3    0    0 -0.47572130331E+02  0.38253468851E+02 -0.25043920348E+02  0.65982068850E+02  0.00000000000E+00 0. -1.
          2    1    1    2  501    0  0.99447036279E+02  0.23989780283E+02  0.81189932673E+02  0.13060255645E+03  0.00000000000E+00 0. -1.
<scales pt_clust_5="13000.00000" pt_clust_6="13000.00000" pt_clust_7="13000.00000" pt_clust_8="13000.00000" pt_clust_9="89.89505"></scales>
<clustering>
<clus scale="   82.283">  5  6 -1 -1</clus>
<clus scale="   90.481">  7  8 -1 -1</clus>
<clus scale="   96.657">  1  7  2 -1</clus>
<clus scale="   89.895">  2  9  1 -1</clus>
<clus scale="   89.895">  2  5  1 -1</clus>
</clustering>
</event>
<event>
 9    1  0.8429841E-005  0.1313516E+03  0.7546771E-02  0.1228146E+00
         -2   -1    0    0    0  501 -0.00000000000E+00  0.00000000000E+00  0.87412279126E+03  0.87412279126E+03  0.00000000000E+00 0.  1.
         21   -1    0    0  501  502  0.00000000000E+00 -0.00000000000E+00 -0.81469182921E+02  0.81469182921E+02  0.00000000000E+00 0. -1.
        -24    2    1    2    0    0  0.90590705056E+02  0.13324437483E+02  0.74659771979E+03  0.75655459439E+03  0.81132500459E+02 0.  0.
         23    2    1    2    0    0 -0.11895376012E+03 -0.37857758818E+02  0.45932754519E+02  0.16153588768E+03  0.91655977013E+02 0.  0.
         13    1    3    3    0    0  0.19570704663E+02  0.41417756374E+02  0.26171025520E+03  0.26568910535E+03  0.00000000000E+00 0. -1.
        -14    1    3    3    0    0  0.71020000393E+02 -0.28093318891E+02  0.48488746458E+03  0.49086548904E+03  0.00000000000E+00 0.  1.
        -13    1    4    4    0    0 -0.12257972835E+03 -0.66062864344E+01  0.30481947367E+02  0.12648550090E+03  0.00000000000E+00 0. -1.
         13    1    4    4    0    0  0.36259682313E+01 -0.31251472384E+02  0.15450807153E+02  0.35050386780E+02  0.00000000000E+00 0.  1.
         -1    1    1    2    0  502  0.28363055065E+02  0.24533321335E+02  0.12313403742E+00  0.37501492109E+02  0.00000000000E+00 0.  1.
<scales pt_clust_5="13000.00000" pt_clust_6="13000.00000" pt_clust_7="13000.00000" pt_clust_8="13000.00000" pt_clust_9="37.50129"></scales>
<clustering>
<clus scale="   37.501">  2  9  1 -1</clus>
<clus scale="   81.133">  5  6 -1 -1</clus>
<clus scale="   91.656">  7  8 -1 -1</clus>
<clus scale="  124.237">  1  5  2 -1</clus>
<clus scale="   37.501">  2  5  1 -1</clus>
</clustering>
</event>
<event>
 9    1  0.8429841E-005  0.9832361E+02  0.7546771E-02  0.1289575E+00
         -4   -1    0    0    0  501 -0.00000000000E+00  0.00000000000E+00  0.24464032369E+03  0.24464032369E+03  0.00000000000E+00 0.  1.
         21   -1    0    0  501  502  0.00000000000E+00 -0.00000000000E+00 -0.85110972247E+02  0.85110972247E+02  0.00000000000E+00 0.  1.
         23    2    1    2    0    0 -0.23329523731E+02  0.10058239872E+02  0.14736491520E+03  0.17603768960E+03  0.92883879435E+02 0.  0.
        -24    2    1    2    0    0  0.47152540698E+02 -0.42019599521E+02 -0.16026656627E+02  0.10488940778E+03  0.82194435964E+02 0.  0.
         13    1    4    4    0    0 -0.19195786109E+02 -0.16253101290E+02 -0.22063366869E+02  0.33457938721E+02  0.00000000000E+00 0. -1.
        -14    1    4    4    0    0  0.66348326807E+02 -0.25766498231E+02  0.60367102423E+01  0.71431469058E+02  0.00000000000E+00 0.  1.
        -11    1    3    3    0    0  0.20426863897E+02  0.32078403403E+02  0.10356463729E+03  0.11032640133E+03  0.00000000000E+00 0. -1.
         11    1    3    3    0    0 -0.43756387628E+02 -0.22020163531E+02  0.43800277909E+02  0.65711288263E+02  0.00000000000E+00 0.  1.
         -3    1    1    2    0  502 -0.23823016967E+02  0.31961359649E+02  0.28191092866E+02  0.48824198560E+02  0.00000000000E+00 0.  1.
<scales pt_clust_5="13000.00000" pt_clust_6="13000.00000" pt_clust_7="13000.00000" pt_clust_8="13000.00000" pt_clust_9="39.86309"></scales>
<clustering>
<clus scale="   39.863">  2  9  1 -1</clus>
<clus scale="   82.194">  5  6 -1 -1</clus>
<clus scale="   88.295">  2  5  1 -1</clus>
<clus scale="   92.884">  7  8 -1 -1</clus>
<clus scale="   39.863">  2  5  1 -1</clus>
</clustering>
</event>
<event>
 9    1  0.8429841E-005  0.9831608E+02  0.7546771E-02  0.1290148E+00
         21   -1    0    0  501  502  0.00000000000E+00  0.00000000000E+00  0.25351656177E+02  0.25351656177E+02  0.00000000000E+00 0.  1.
          1   -1    0    0  502    0 -0.00000000000E+00 -0.00000000000E+00 -0.57508712814E+03  0.57508712814E+03  0.00000000000E+00 0. -1.
         23    2    1    2    0    0  0.35569334509E+01 -0.49247376851E+02 -0.40420047324E+03  0.41647269404E+03  0.87370054433E+02 0.  0.
        -24    2    1    2    0    0  0.14758192338E+02  0.36611487755E+02 -0.13505131264E+03  0.15936899289E+03  0.74842591960E+02 0.  0.
         11    1    4    4    0    0  0.35507741096E+02  0.79930101900E+01 -0.11047510444E+03  0.11631610633E+03  0.00000000000E+00 0. -1.
        -12    1    4    4    0    0 -0.20749548757E+02  0.28618477565E+02 -0.24576208199E+02  0.43052886560E+02  0.00000000000E+00 0.  1.
        -13    1    3    3    0    0 -0.35408390483E+02  0.21985889069E+01 -0.16025575912E+03  0.16413560321E+03  0.00000000000E+00 0.  1.
         13    1    3    3    0    0  0.38965323934E+02 -0.51445965758E+02 -0.24394471412E+03  0.25233709083E+03  0.00000000000E+00 0. -1.
          2    1    1    2  501    0 -0.18315125789E+02  0.12635889096E+02 -0.10483686076E+02  0.24597097383E+02  0.00000000000E+00 0. -1.
<scales pt_clust_5="13000.00000" pt_clust_6="13000.00000" pt_clust_7="13000.00000" pt_clust_8="13000.00000" pt_clust_9="22.25106"></scales>
<clustering>
<clus scale="   22.251">  1  9  2 -1</clus>
<clus scale="   74.843">  5  6 -1 -1</clus>
<clus scale="   87.370">  7  8 -1 -1</clus>
<clus scale="   87.372">  1  5  2 -1</clus>
<clus scale="   22.251">  1  5  2 -1</clus>
</clustering>
</event>
<event>
 9    1  0.8429841E-005  0.1224895E+03  0.7546771E-02  0.1242103E+00
         21   -1    0    0  501  502  0.00000000000E+00  0.00000000000E+00  0.10861571963E+03  0.10861571963E+03  0.00000000000E+00 0. -1.
          3   -1    0    0  502    0 -0.00000000000E+00 -0.00000000000E+00 -0.26461292766E+03  0.26461292766E+03  0.00000000000E+00 0. -1.
         23    2    1    2    0    0 -0.85833725513E+02  0.24911007917E+02 -0.18492484700E+03  0.22488088395E+03  0.91576340721E+02 0.  0.
        -24    2    1    2    0    0  0.44748113140E+02 -0.39951677146E+02  0.26244472152E+02  0.10451343137E+03  0.81460142899E+02 0.  0.
         13    1    4    4    0    0 -0.25643471781E+01 -0.50232922748E+02  0.24788512963E+02  0.56074885459E+02  0.00000000000E+00 0. -1.
        -14    1    4    4    0    0  0.47312460318E+02  0.10281245602E+02  0.14559591892E+01  0.48438545908E+02  0.00000000000E+00 0.  1.
        -11    1    3    3    0    0  0.97073476775E+01 -0.18470114514E+02 -0.48286014761E+02  0.52601491905E+02  0.00000000000E+00 0.  1.
         11    1    3    3    0    0 -0.95541073190E+02  0.43381122431E+02 -0.13663883224E+03  0.17227939205E+03  0.00000000000E+00 0. -1.
          4    1    1    2  501    0  0.41085612373E+02  0.15040669229E+02  0.26831668192E+01  0.43834331968E+02  0.00000000000E+00 0. -1.
<scales pt_clust_5="13000.00000" pt_clust_6="13000.00000" pt_clust_7="13000.00000" pt_clust_8="13000.00000" pt_clust_9="43.75213"></scales>
<clustering>
<clus scale="   43.752">  1  9  2 -1</clus>
<clus scale="   81.460">  5  6 -1 -1</clus>
<clus scale="   91.576">  7  8 -1 -1</clus>
<clus scale="  115.123">  1  5  2 -1</clus>
<clus scale="   43.752">  1  5  2 -1</clus>
</clustering>
</event>
<event>
 9    1  0.8429841E-005  0.1207066E+03  0.7546771E-02  0.1245717E+00
         21   -1    0    0  501  502  0.00000000000E+00  0.00000000000E+00  0.61433500841E+03  0.61433500841E+03  0.00000000000E+00 0.  1.
          3   -1    0    0  502    0 -0.00000000000E+00 -0.00000000000E+00 -0.35517086917E+02  0.35517086917E+02  0.00000000000E+00 0. -1.
         23    2    1    2    0    0  0.75794718701E+02 -0.43438684183E+02  0.12558658475E+03  0.17858706413E+03  0.92138974064E+02 0.  0.
        -24    2    1    2    0    0 -0.50444654232E+02  0.26891730559E+02  0.33052776036E+03  0.34488229859E+03  0.80170887460E+02 0.  0.
         13    1    4    4    0    0 -0.40583164188E+02 -0.21798053805E+02  0.11915232381E+03  0.12774750344E+03  0.00000000000E+00 0. -1.
        -14    1    4    4    0    0 -0.98614900437E+01  0.48689784364E+02  0.21137543655E+03  0.21713479515E+03  0.00000000000E+00 0.  1.
        -13    1    3    3    0    0  0.53490141019E+02 -0.79476812131E+01  0.12551533335E+03  0.13666916158E+03  0.00000000000E+00 0.  1.
         13    1    3    3    0    0  0.22304577682E+02 -0.35491002970E+02  0.71251397479E-01  0.41917902550E+02  0.00000000000E+00 0. -1.
          4    1    1    2  501    0 -0.25350064469E+02  0.16546953624E+02  0.12270357639E+03  0.12638273260E+03  0.00000000000E+00 0. -1.
<scales pt_clust_5="13000.00000" pt_clust_6="13000.00000" pt_clust_7="13000.00000" pt_clust_8="13000.00000" pt_clust_9="30.27255"></scales>
<clustering>
<clus scale="   30.273">  1  9  2 -1</clus>
<clus scale="   80.171">  5  6 -1 -1</clus>
<clus scale="   92.139">  7  8 -1 -1</clus>
<clus scale="  111.839">  1  5  2 -1</clus>
<clus scale="   30.273">  1  5  2 -1</clus>
</clustering>
</event>
<event>
 9    1  0.8429841E-005  0.1232939E+03  0.7546771E-02  0.1251734E+00
         21   -1    0    0  501  502  0.00000000000E+00  0.00000000000E+00  0.37706387199E+03  0.37706387199E+03  0.00000000000E+00 0.  1.
          1   -1    0    0  502    0 -0.00000000000E+00 -0.00000000000E+00 -0.15544888752E+03  0.15544888752E+03  0.00000000000E+00 0. -1.
        -24    2    1    2    0    0  0.43173480410E+02 -0.21522027220E+02 -0.54725844172E+02  0.10793706049E+03  0.79550889005E+02 0.  0.
         23    2    1    2    0    0  0.68701904020E+02 -0.28672012360E+02  0.27784414079E+03  0.30194697808E+03  0.91829053609E+02 0.  0.
         11    1    3    3    0    0  0.42122500193E+02  0.22582881444E+02 -0.36785517061E+02  0.60311407066E+02  0.00000000000E+00 0. -1.
        -12    1    3    3    0    0  0.10509802167E+01 -0.44104908664E+02 -0.17940327111E+02  0.47625653428E+02  0.00000000000E+00 0.  1.
        -11    1    4    4    0    0  0.53675005399E+02 -0.50744297271E+02  0.25883916010E+03  0.26917225100E+03  0.00000000000E+00 0.  1.
         11    1    4    4    0    0  0.15026898621E+02  0.22072284911E+02  0.19004980695E+02  0.32774727071E+02  0.00000000000E+00 0. -1.
          2    1    1    2  501    0 -0.11187538443E+03  0.50194039580E+02 -0.15033121557E+01  0.12262872094E+03  0.00000000000E+00 0. -1.
<scales pt_clust_5="13000.00000" pt_clust_6="13000.00000" pt_clust_7="13000.00000" pt_clust_8="13000.00000" pt_clust_9="82.27279"></scales>
<clustering>
<clus scale="   79.551">  5  6 -1 -1</clus>
<clus scale="   91.829">  7  8 -1 -1</clus>
<clus scale="   93.035">  2  5  1 -1</clus>
<clus scale="   82.273">  1  9  2 -1</clus>
<clus scale="   82.273">  1  5  2 -1</clus>
</clustering>
</event>
<event>
 9    1  0.8429841E-005  0.1132922E+03  0.7546771E-02  0.1261582E+00
          1   -1    0    0  502    0 -0.00000000000E+00  0.00000000000E+00  0.32705727349E+03  0.32705727349E+03  0.00000000000E+00 0. -1.
         21   -1    0    0  501  502  0.00000000000E+00 -0.00000000000E+00 -0.14223796339E+03  0.14223796339E+03  0.00000000000E+00 0. -1.
        -24    2    1    2    0    0  0.94899783056E+01 -0.41762691420E+02  0.23111222565E+03  0.25022782138E+03  0.85830761772E+02 0.  0.
         23    2    1    2    0    0  0.12559342965E+02  0.10369947737E+03 -0.17272452001E+02  0.14720278354E+03  0.10226926803E+03 0.  0.
         13    1    3    3    0    0  0.10596986614E+02 -0.52137001169E+02  0.23353367229E+03  0.23951730440E+03  0.00000000000E+00 0. -1.
        -14    1    3    3    0    0 -0.11070083080E+01  0.10374309749E+02 -0.24214466377E+01  0.10710516980E+02  0.00000000000E+00 0.  1.
        -11    1    4    4    0    0  0.33646063697E+02  0.62911136736E+02  0.33440067679E+02  0.78791540498E+02  0.00000000000E+00 0. -1.
         11    1    4    4    0    0 -0.21086720732E+02  0.40788340631E+02 -0.50712519680E+02  0.68411243045E+02  0.00000000000E+00 0.  1.
          2    1    1    2  501    0 -0.22049321271E+02 -0.61936785947E+02 -0.29020463549E+02  0.71864631958E+02  0.00000000000E+00 0. -1.
<scales pt_clust_5="13000.00000" pt_clust_6="13000.00000" pt_clust_7="13000.00000" pt_clust_8="13000.00000" pt_clust_9="65.74449"></scales>
<clustering>
<clus scale="   65.744">  2  9  1 -1</clus>
<clus scale="   85.831">  5  6 -1 -1</clus>
<clus scale="   98.707">  1  5  2 -1</clus>
<clus scale="  102.269">  7  8 -1 -1</clus>
<clus scale="   65.744">  2  5  1 -1</clus>
</clustering>
</event>
<event>
 9    1  0.8429841E-005  0.2535356E+03  0.7546771E-02  0.1112182E+00
         21   -1    0    0  501  502  0.00000000000E+00  0.00000000000E+00  0.54671088913E+03  0.54671088913E+03  0.00000000000E+00 0. -1.
          1   -1    0    0  502    0 -0.00000000000E+00 -0.00000000000E+00 -0.16157590886E+03  0.16157590886E+03  0.00000000000E+00 0. -1.
        -24    2    1    2    0    0  0.25428538361E+03  0.63921995027E+02  0.65851475635E+02  0.28308240103E+03  0.83977087153E+02 0.  0.
         23    2    1    2    0    0 -0.18764648993E+03 -0.65257976037E+02  0.27764605285E+03  0.34661556577E+03  0.59876632758E+02 0.  0.
         11    1    3    3    0    0  0.19755673965E+03  0.45149245088E+02  0.12597312210E+02  0.20304140462E+03  0.00000000000E+00 0. -1.
        -12    1    3    3    0    0  0.56728643959E+02  0.18772749939E+02  0.53254163425E+02  0.80040996420E+02  0.00000000000E+00 0.  1.
        -13    1    4    4    0    0 -0.16526929389E+03 -0.56733007745E+02  0.26975333599E+03  0.32140229612E+03  0.00000000000E+00 0. -1.
         13    1    4    4    0    0 -0.22377196041E+02 -0.85249682916E+01  0.78927168543E+01  0.25213269649E+02  0.00000000000E+00 0.  1.
          2    1    1    2  501    0 -0.66638893681E+02  0.13359810097E+01  0.41637451781E+02  0.78588831186E+02  0.00000000000E+00 0. -1.
<scales pt_clust_5="13000.00000" pt_clust_6="13000.00000" pt_clust_7="13000.00000" pt_clust_8="13000.00000" pt_clust_9="66.65232"></scales>
<clustering>
<clus scale="   59.877">  7  8 -1 -1</clus>
<clus scale="   66.652">  1  9  2 -1</clus>
<clus scale="   83.977">  5  6 -1 -1</clus>
<clus scale="  246.604">  1  7  2 -1</clus>
<clus scale="   66.652">  1  5  2 -1</clus>
</clustering>
</event>
<event>
 9    1  0.8429841E-005  0.1687368E+03  0.7546771E-02  0.1181265E+00
          1   -1    0    0  502    0 -0.00000000000E+00  0.00000000000E+00  0.24039693957E+03  0.24039693957E+03  0.00000000000E+00 0. -1.
         21   -1    0    0  501  502  0.00000000000E+00 -0.00000000000E+00 -0.33525594821E+03  0.33525594821E+03  0.00000000000E+00 0.  1.
        -24    2    1    2    0    0  0.11568088648E+03  0.99407015976E+02  0.17533608616E+03  0.24423867158E+03  0.75139625125E+02 0.  0.
         23    2    1    2    0    0 -0.65749178211E+02 -0.53391874098E+02 -0.17615224052E+03  0.21542013354E+03  0.90568070744E+02 0.  0.
         13    1    3    3    0    0  0.12282651985E+03  0.10226927808E+03  0.17427544589E+03  0.23646837052E+03  0.00000000000E+00 0. -1.
        -14    1    3    3    0    0 -0.71456333740E+01 -0.28622621069E+01  0.10606402666E+01  0.77703010533E+01  0.00000000000E+00 0.  1.
        -13    1    4    4    0    0  0.17853494413E+02 -0.25308379882E+02 -0.75441764944E+02  0.81551954317E+02  0.00000000000E+00 0.  1.
         13    1    4    4    0    0 -0.83602672624E+02 -0.28083494216E+02 -0.10071047557E+03  0.13386817922E+03  0.00000000000E+00 0. -1.
          2    1    1    2  501    0 -0.49931708266E+02 -0.46015141878E+02 -0.94042854280E+02  0.11599408267E+03  0.00000000000E+00 0. -1.
<scales pt_clust_5="13000.00000" pt_clust_6="13000.00000" pt_clust_7="13000.00000" pt_clust_8="13000.00000" pt_clust_9="67.90117"></scales>
<clustering>
<clus scale="   67.901">  2  9  1 -1</clus>
<clus scale="   75.140">  5  6 -1 -1</clus>
<clus scale="   90.568">  7  8 -1 -1</clus>
<clus scale="  160.983">  1  5  2 -1</clus>
<clus scale="   67.901">  2  5  1 -1</clus>
</clustering>
</event>
<event>
 9    1  0.8429841E-005  0.2782175E+03  0.7546771E-02  0.1128814E+00
          1   -1    0    0  502    0 -0.00000000000E+00  0.00000000000E+00  0.10606226739E+04  0.10606226739E+04  0.00000000000E+00 0. -1.
         21   -1    0    0  501  502  0.00000000000E+00 -0.00000000000E+00 -0.15705368512E+03  0.15705368512E+03  0.00000000000E+00 0. -1.
         23    2    1    2    0    0  0.35174130479E+02 -0.74982516870E+02  0.17114021134E+02  0.12434501328E+03  0.91154787686E+02 0.  0.
        -24    2    1    2    0    0  0.20171138508E+03  0.19422751375E+03  0.72872737334E+03  0.78476674831E+03  0.80021588522E+02 0.  0.
         13    1    4    4    0    0  0.16546780766E+03  0.17485312571E+03  0.67806583560E+03  0.71953213157E+03  0.00000000000E+00 0. -1.
        -14    1    4    4    0    0  0.36243577416E+02  0.19374388044E+02  0.50661537736E+02  0.65234616744E+02  0.00000000000E+00 0.  1.
        -13    1    3    3    0    0  0.40320454982E+02  0.32759093809E+01  0.21468009604E+02  0.45796791466E+02  0.00000000000E+00 0.  1.
         13    1    3    3    0    0 -0.51463245027E+01 -0.78258426251E+02 -0.43539884706E+01  0.78548221818E+02  0.00000000000E+00 0. -1.
          2    1    1    2  501    0 -0.23688551556E+03 -0.11924499688E+03  0.15772759426E+03  0.30856459738E+03  0.00000000000E+00 0. -1.
<scales pt_clust_5="13000.00000" pt_clust_6="13000.00000" pt_clust_7="13000.00000" pt_clust_8="13000.00000" pt_clust_9="266.46113"></scales>
<clustering>
<clus scale="   80.022">  5  6 -1 -1</clus>
<clus scale="   91.155">  7  8 -1 -1</clus>
<clus scale="  123.162">  1  7  2 -1</clus>
<clus scale="  266.461">  2  9  1 -1</clus>
<clus scale="  266.461">  2  5  1 -1</clus>
</clustering>
</event>
<event>
 9    1  0.8429841E-005  0.1085404E+03  0.7546771E-02  0.1272462E+00
          1   -1    0    0  502    0 -0.00000000000E+00  0.00000000000E+00  0.11998589720E+03  0.11998589720E+03  0.00000000000E+00 0. -1.
         21   -1    0    0  501  502  0.00000000000E+00 -0.00000000000E+00 -0.19124210775E+03  0.19124210775E+03  0.00000000000E+00 0. -1.
        -24    2    1    2    0    0  0.62580227000E+01  0.54599249240E+02  0.68824790736E+02  0.11671510694E+03  0.76585400066E+02 0.  0.
         23    2    1    2    0    0 -0.31818780578E+01 -0.19674454253E+02 -0.92779624600E+02  0.13563485280E+03  0.96909989453E+02 0.  0.
         13    1    3    3    0    0  0.40230223617E+02  0.38017112993E+02  0.49511773096E+02  0.74264308034E+02  0.00000000000E+00 0. -1.
        -14    1    3    3    0    0 -0.33972200917E+02  0.16582136247E+02  0.19313017639E+02  0.42450798909E+02  0.00000000000E+00 0.  1.
        -13    1    4    4    0    0  0.31187234538E+02 -0.41176760984E+02 -0.26793965943E+02  0.58190083813E+02  0.00000000000E+00 0.  1.
         13    1    4    4    0    0 -0.34369112596E+02  0.21502306730E+02 -0.65985658657E+02  0.77444768989E+02  0.00000000000E+00 0. -1.
          2    1    1    2  501    0 -0.30761446422E+01 -0.34924794987E+02 -0.47301376681E+02  0.58878045201E+02  0.00000000000E+00 0. -1.
<scales pt_clust_5="13000.00000" pt_clust_6="13000.00000" pt_clust_7="13000.00000" pt_clust_8="13000.00000" pt_clust_9="35.06001"></scales>
<clustering>
<clus scale="   35.060">  2  9  1 -1</clus>
<clus scale="   76.585">  5  6 -1 -1</clus>
<clus scale="   90.856">  1  5  2 -1</clus>
<clus scale="   96.910">  7  8 -1 -1</clus>
<clus scale="   35.060">  2  5  1 -1</clus>
</clustering>
</event>
<event>
 9    1  0.8429841E-005  0.1213041E+03  0.7546771E-02  0.1243512E+00
         21   -1    0    0  501  502  0.00000000000E+00  0.00000000000E+00  0.71495605882E+02  0.71495605882E+02  0.00000000000E+00 0.  1.
         -4   -1    0    0    0  501 -0.00000000000E+00 -0.00000000000E+00 -0.51678473535E+03  0.51678473535E+03  0.00000000000E+00 0.  1.
        -24    2    1    2    0    0  0.15611724570E+02  0.80126731340E+02 -0.40116291951E+03  0.41721749224E+03  0.80465699632E+02 0.  0.
         23    2    1    2    0    0  0.14367451931E+02 -0.91721817521E+02 -0.18433070275E+02  0.12991270350E+03  0.88984363613E+02 0.  0.
         13    1    3    3    0    0 -0.20206615712E+02  0.74281179993E+02 -0.24108093401E+03  0.25307314706E+03  0.00000000000E+00 0. -1.
        -14    1    3    3    0    0  0.35818340282E+02  0.58455513462E+01 -0.16008198550E+03  0.16414434517E+03  0.00000000000E+00 0.  1.
        -11    1    4    4    0    0 -0.13868988897E+02 -0.46468041782E+02 -0.48580900133E+02  0.68642054295E+02  0.00000000000E+00 0. -1.
         11    1    4    4    0    0  0.28236440828E+02 -0.45253775739E+02  0.30147829859E+02  0.61270649209E+02  0.00000000000E+00 0.  1.
         -3    1    1    2    0  502 -0.29979176501E+02  0.11595086182E+02 -0.25693139678E+02  0.41150145489E+02  0.00000000000E+00 0.  1.
<scales pt_clust_5="13000.00000" pt_clust_6="13000.00000" pt_clust_7="13000.00000" pt_clust_8="13000.00000" pt_clust_9="32.14338"></scales>
<clustering>
<clus scale="   32.143">  1  9  2 -1</clus>
<clus scale="   80.466">  5  6 -1 -1</clus>
<clus scale="   88.984">  7  8 -1 -1</clus>
<clus scale="  115.201">  2  5  1 -1</clus>
<clus scale="   32.143">  1  5  2 -1</clus>
</clustering>
</event>
<event>
 9    1  0.8429841E-005  0.1632339E+03  0.7546771E-02  0.1210563E+00
          1   -1    0    0  502    0 -0.00000000000E+00  0.00000000000E+00  0.74892226312E+03  0.74892226312E+03  0.00000000000E+00 0. -1.
         21   -1    0    0  501  502  0.00000000000E+00 -0.00000000000E+00 -0.12143128319E+03  0.12143128319E+03  0.00000000000E+00 0. -1.
         23    2    1    2    0    0  0.22366865270E+02 -0.29885776162E+01  0.21503809995E+01  0.93704945276E+02  0.90921858607E+02 0.  0.
        -24    2    1    2    0    0 -0.13415353299E+03  0.85300973077E+02  0.61147509244E+03  0.63713572780E+03  0.82260078667E+02 0.  0.
         13    1    4    4    0    0 -0.14347911684E+03  0.88642161693E+02  0.56591811259E+03  0.59051418268E+03  0.00000000000E+00 0. -1.
        -14    1    4    4    0    0  0.93255838486E+01 -0.33411886160E+01  0.45556979858E+02  0.46621545119E+02  0.00000000000E+00 0.  1.
        -13    1    3    3    0    0 -0.86267042986E+01 -0.39249925660E+02 -0.15171501800E+02  0.42955222712E+02  0.00000000000E+00 0. -1.
         13    1    3    3    0    0  0.30993569569E+02  0.36261348044E+02  0.17321882800E+02  0.50749722564E+02  0.00000000000E+00 0.  1.
          2    1    1    2  501    0  0.11178666772E+03 -0.82312395460E+02  0.13865506495E+02  0.13951287323E+03  0.00000000000E+00 0. -1.
<scales pt_clust_5="13000.00000" pt_clust_6="13000.00000" pt_clust_7="13000.00000" pt_clust_8="13000.00000" pt_clust_9="140.99142"></scales>
<clustering>
<clus scale="   82.260">  5  6 -1 -1</clus>
<clus scale="   90.922">  7  8 -1 -1</clus>
<clus scale="   93.680">  1  7  2 -1</clus>
<clus scale="  140.991">  2  9  1 -1</clus>
<clus scale="  140.991">  2  5  1 -1</clus>
</clustering>
</event>
<event>
 9    1  0.8429841E-005  0.1152706E+03  0.7546771E-02  0.1252043E+00
         21   -1    0    0  501  502  0.00000000000E+00  0.00000000000E+00  0.42179696689E+02  0.42179696689E+02  0.00000000000E+00 0.  1.
          1   -1    0    0  502    0 -0.00000000000E+00 -0.00000000000E+00 -0.72936879417E+03  0.72936879417E+03  0.00000000000E+00 0. -1.
         23    2    1    2    0    0  0.62155258046E+02  0.14929709199E+02 -0.42309609128E+03  0.43721761314E+03  0.89792908734E+02 0.  0.
        -24    2    1    2    0    0 -0.93031426402E+02 -0.61153033199E+02 -0.14280040587E+03  0.20090738523E+03  0.87047583287E+02 0.  0.
         13    1    4    4    0    0 -0.71032747456E+02  0.45679199649E+01 -0.61424451580E+02  0.94018510709E+02  0.00000000000E+00 0. -1.
        -14    1    4    4    0    0 -0.21998678946E+02 -0.65720953164E+02 -0.81375954291E+02  0.10688887452E+03  0.00000000000E+00 0.  1.
        -11    1    3    3    0    0 -0.11451508381E+02 -0.22557007371E+02 -0.65749900796E+02  0.70448598854E+02  0.00000000000E+00 0.  1.
         11    1    3    3    0    0  0.73606766426E+02  0.37486716571E+02 -0.35734619049E+03  0.36676901429E+03  0.00000000000E+00 0. -1.
          2    1    1    2  501    0  0.30876168357E+02  0.46223324000E+02 -0.12129260033E+03  0.13342349249E+03  0.00000000000E+00 0. -1.
<scales pt_clust_5="13000.00000" pt_clust_6="13000.00000" pt_clust_7="13000.00000" pt_clust_8="13000.00000" pt_clust_9="55.58720"></scales>
<clustering>
<clus scale="   55.587">  1  9  2 -1</clus>
<clus scale="   87.048">  5  6 -1 -1</clus>
<clus scale="   89.793">  7  8 -1 -1</clus>
<clus scale="  113.145">  1  5  2 -1</clus>
<clus scale="   55.587">  1  5  2 -1</clus>
</clustering>
</event>
<event>
 9    1  0.8429841E-005  0.1898294E+03  0.7546771E-02  0.1185556E+00
          1   -1    0    0  502    0 -0.00000000000E+00  0.00000000000E+00  0.12891722072E+04  0.12891722072E+04  0.00000000000E+00 0. -1.
         21   -1    0    0  501  502  0.00000000000E+00 -0.00000000000E+00 -0.74061412138E+02  0.74061412138E+02  0.00000000000E+00 0.  1.
        -24    2    1    2    0    0  0.56566004484E+02  0.26322585949E+02  0.15788134663E+02  0.10393103071E+03  0.81607613327E+02 0.  0.
         23    2    1    2    0    0  0.65570811477E+02 -0.14878635026E+03  0.41275129568E+03  0.45393975911E+03  0.96232860674E+02 0.  0.
         11    1    3    3    0    0  0.29983426792E+02  0.38887673607E+02  0.41942760326E+02  0.64579038275E+02  0.00000000000E+00 0. -1.
        -12    1    3    3    0    0  0.26582577693E+02 -0.12565087658E+02 -0.26154625663E+02  0.39351992430E+02  0.00000000000E+00 0.  1.
        -13    1    4    4    0    0  0.30301777906E+02 -0.39911161651E+02  0.40310800048E+02  0.64312200779E+02  0.00000000000E+00 0.  1.
         13    1    4    4    0    0  0.35269033571E+02 -0.10887518861E+03  0.37244049563E+03  0.38962755833E+03  0.00000000000E+00 0. -1.
          2    1    1    2  501    0 -0.12213681596E+03  0.12246376431E+03  0.78657136473E+03  0.80536282954E+03  0.00000000000E+00 0. -1.
<scales pt_clust_5="13000.00000" pt_clust_6="13000.00000" pt_clust_7="13000.00000" pt_clust_8="13000.00000" pt_clust_9="163.62900"></scales>
<clustering>
<clus scale="   81.608">  5  6 -1 -1</clus>
<clus scale="   96.233">  7  8 -1 -1</clus>
<clus scale="  102.725">  1  5  2 -1</clus>
<clus scale="  163.629">  2  9  1 -1</clus>
<clus scale="  163.629">  2  5  1 -1</clus>
</clustering>
</event>
<event>
 9    1  0.8429841E-005  0.9056660E+02  0.7546771E-02  0.1307676E+00
         21   -1    0    0  501  502  0.00000000000E+00  0.00000000000E+00  0.29950628072E+03  0.29950628072E+03  0.00000000000E+00 0. -1.
         -2   -1    0    0    0  501 -0.00000000000E+00 -0.00000000000E+00 -0.53346227771E+02  0.53346227771E+02  0.00000000000E+00 0.  1.
         23    2    1    2    0    0 -0.65131593666E+01 -0.34454857828E+01  0.69813202664E+01  0.90484699052E+02  0.89913565787E+02 0.  0.
        -24    2    1    2    0    0  0.25398221632E+02 -0.35720500488E+01  0.16129867622E+03  0.18192407394E+03  0.80132867951E+02 0.  0.
         13    1    4    4    0    0  0.49212458862E+02  0.52430619509E+01  0.14094110366E+03  0.14937787824E+03  0.00000000000E+00 0. -1.
        -14    1    4    4    0    0 -0.23814237230E+02 -0.88151119997E+01  0.20357572564E+02  0.32546195709E+02  0.00000000000E+00 0.  1.
        -13    1    3    3    0    0 -0.63463435405E+01 -0.34427912823E+02 -0.27213569985E+02  0.44341128188E+02  0.00000000000E+00 0.  1.
         13    1    3    3    0    0 -0.16681582608E+00  0.30982427040E+02  0.34194890251E+02  0.46143570864E+02  0.00000000000E+00 0. -1.
         -1    1    1    2    0  502 -0.18885062265E+02  0.70175358316E+01  0.77880056466E+02  0.80443735499E+02  0.00000000000E+00 0.  1.
<scales pt_clust_5="13000.00000" pt_clust_6="13000.00000" pt_clust_7="13000.00000" pt_clust_8="13000.00000" pt_clust_9="20.14675"></scales>
<clustering>
<clus scale="   20.147">  1  9  2 -1</clus>
<clus scale="   80.133">  5  6 -1 -1</clus>
<clus scale="   80.865">  1  5  2 -1</clus>
<clus scale="   89.914">  7  8 -1 -1</clus>
<clus scale="   20.147">  1  5  2 -1</clus>
</clustering>
</event>
<event>
 9    1  0.8429841E-005  0.2458290E+03  0.7546771E-02  0.1144290E+00
         21   -1    0    0  501  502  0.00000000000E+00  0.00000000000E+00  0.12964132757E+04  0.12964132757E+04  0.00000000000E+00 0. -1.
          3   -1    0    0  502    0 -0.00000000000E+00 -0.00000000000E+00 -0.77662950105E+02  0.77662950105E+02  0.00000000000E+00 0. -1.
         23    2    1    2    0    0  0.49866057637E+02 -0.65697795676E+02  0.42441995319E+03  0.44178081416E+03  0.90747821118E+02 0.  0.
        -24    2    1    2    0    0 -0.26055204467E+03  0.26908796116E+02  0.44048050068E+03  0.51864954457E+03  0.79767332397E+02 0.  0.
         13    1    4    4    0    0 -0.19998815709E+03  0.11141184992E+02  0.26388297258E+03  0.33129082721E+03  0.00000000000E+00 0. -1.
        -14    1    4    4    0    0 -0.60563887580E+02  0.15767611124E+02  0.17659752810E+03  0.18735871736E+03  0.00000000000E+00 0.  1.
        -11    1    3    3    0    0  0.36304601369E+02 -0.86928521919E+02  0.28684449897E+03  0.30191780105E+03  0.00000000000E+00 0.  1.
         11    1    3    3    0    0  0.13561456268E+02  0.21230726242E+02  0.13757545422E+03  0.13986301311E+03  0.00000000000E+00 0. -1.
          4    1    1    2  501    0  0.21068598703E+03  0.38788999560E+02  0.35384987170E+03  0.41364586704E+03  0.00000000000E+00 0. -1.
<scales pt_clust_5="13000.00000" pt_clust_6="13000.00000" pt_clust_7="13000.00000" pt_clust_8="13000.00000" pt_clust_9="232.52753"></scales>
<clustering>
<clus scale="   79.767">  5  6 -1 -1</clus>
<clus scale="   90.748">  7  8 -1 -1</clus>
<clus scale="  122.630">  2  7  1 -1</clus>
<clus scale="  232.528">  1  9  2 -1</clus>
<clus scale="  232.528">  1  5  2 -1</clus>
</clustering>
</event>
<event>
 9    1  0.8429841E-005  0.9726013E+02  0.7546771E-02  0.1292074E+00
          1   -1    0    0  502    0 -0.00000000000E+00  0.00000000000E+00  0.23068673400E+03  0.23068673400E+03  0.00000000000E+00 0. -1.
         21   -1    0    0  501  502  0.00000000000E+00 -0.00000000000E+00 -0.14686430353E+03  0.14686430353E+03  0.00000000000E+00 0. -1.
        -24    2    1    2    0    0  0.29050684963E+02 -0.62858695610E+01  0.15500250336E+03  0.17789001743E+03  0.82070870598E+02 0.  0.
         23    2    1    2    0    0 -0.12446217148E+02  0.42036893106E+02  0.16082782243E+02  0.10390795268E+03  0.92823477862E+02 0.  0.
         13    1    3    3    0    0  0.45617531782E+02 -0.24927265625E+02  0.13863183886E+03  0.14805780804E+03  0.00000000000E+00 0. -1.
        -14    1    3    3    0    0 -0.16566846818E+02  0.18641396064E+02  0.16370664502E+02  0.29832209388E+02  0.00000000000E+00 0.  1.
        -11    1    4    4    0    0 -0.49978893537E+02  0.39780506250E+02  0.24911830633E+01  0.63926398849E+02  0.00000000000E+00 0.  1.
         11    1    4    4    0    0  0.37532676389E+02  0.22563868559E+01  0.13591599179E+02  0.39981553832E+02  0.00000000000E+00 0. -1.
          2    1    1    2  501    0 -0.16604467815E+02 -0.35751023545E+02 -0.87262855130E+02  0.95753067425E+02  0.00000000000E+00 0. -1.
<scales pt_clust_5="13000.00000" pt_clust_6="13000.00000" pt_clust_7="13000.00000" pt_clust_8="13000.00000" pt_clust_9="39.41883"></scales>
<clustering>
<clus scale="   39.419">  2  9  1 -1</clus>
<clus scale="   82.071">  5  6 -1 -1</clus>
<clus scale="   87.057">  1  5  2 -1</clus>
<clus scale="   92.823">  7  8 -1 -1</clus>
<clus scale="   39.419">  2  5  1 -1</clus>
</clustering>
</event>
<event>
 9    1  0.8429841E-005  0.1112770E+03  0.7546771E-02  0.1261721E+00
         -2   -1    0    0    0  501 -0.00000000000E+00  0.00000000000E+00  0.72076744885E+02  0.72076744885E+02  0.00000000000E+00 0.  1.
         21   -1    0    0  501  502  0.00000000000E+00 -0.00000000000E+00 -0.39661027898E+03  0.39661027898E+03  0.00000000000E+00 0. -1.
         23    2    1    2    0    0 -0.43483404464E+02 -0.39569471281E+02 -0.15336317400E+02  0.10905426250E+03  0.90559814586E+02 0.  0.
        -24    2    1    2    0    0  0.56958968012E+02  0.75617546465E+02 -0.29186803527E+03  0.31742665912E+03  0.81304345129E+02 0.  0.
         13    1    4    4    0    0  0.49047377686E+01  0.70166836551E+02 -0.19541121560E+03  0.20768482031E+03  0.00000000000E+00 0. -1.
        -14    1    4    4    0    0  0.52054230244E+02  0.54507099143E+01 -0.96456819667E+02  0.10974183881E+03  0.00000000000E+00 0.  1.
        -13    1    3    3    0    0 -0.59372254287E+02 -0.17385959114E+01 -0.28609622709E+02  0.65928732783E+02  0.00000000000E+00 0. -1.
         13    1    3    3    0    0  0.15888849823E+02 -0.37830875369E+02  0.13273305310E+02  0.43125529721E+02  0.00000000000E+00 0.  1.
         -1    1    1    2    0  502 -0.13475563548E+02 -0.36048075184E+02 -0.17329181425E+02  0.42206102240E+02  0.00000000000E+00 0.  1.
<scales pt_clust_5="13000.00000" pt_clust_6="13000.00000" pt_clust_7="13000.00000" pt_clust_8="13000.00000" pt_clust_9="38.48449"></scales>
<clustering>
<clus scale="   38.484">  2  9  1 -1</clus>
<clus scale="   81.304">  5  6 -1 -1</clus>
<clus scale="   90.560">  7  8 -1 -1</clus>
<clus scale="  103.884">  2  5  1 -1</clus>
<clus scale="   38.484">  2  5  1 -1</clus>
</clustering>
</event>
<event>
 9    1  0.8429841E-005  0.1507933E+03  0.7546771E-02  0.1218748E+00
          1   -1    0    0  502    0 -0.00000000000E+00  0.00000000000E+00  0.55521998107E+03  0.55521998107E+03  0.00000000000E+00 0. -1.
         21   -1    0    0  501  502  0.00000000000E+00 -0.00000000000E+00 -0.16319933041E+03  0.16319933041E+03  0.00000000000E+00 0. -1.
         23    2    1    2    0    0  0.38237158510E+02 -0.21390795375E+02  0.89050013414E+02  0.13383723801E+03  0.89793401606E+02 0.  0.
        -24    2    1    2    0    0  0.11884672480E+03  0.37711923287E+02 -0.81326393349E+02  0.16909930205E+03  0.80211336761E+02 0.  0.
         13    1    4    4    0    0  0.12092701672E+03  0.37528812542E+02 -0.47538106642E+02  0.13524654053E+03  0.00000000000E+00 0. -1.
        -14    1    4    4    0    0 -0.20802919137E+01  0.18311074489E+00 -0.33788286706E+02  0.33852761520E+02  0.00000000000E+00 0.  1.
        -13    1    3    3    0    0  0.52663720623E+01  0.32821171400E+02  0.47561016583E+02  0.58025979227E+02  0.00000000000E+00 0.  1.
         13    1    3    3    0    0  0.32970786447E+02 -0.54211966775E+02  0.41488996831E+02  0.75811258786E+02  0.00000000000E+00 0. -1.
          2    1    1    2  501    0 -0.15708388331E+03 -0.16321127912E+02  0.38429703060E+03  0.41548277141E+03  0.00000000000E+00 0. -1.
<scales pt_clust_5="13000.00000" pt_clust_6="13000.00000" pt_clust_7="13000.00000" pt_clust_8="13000.00000" pt_clust_9="127.69019"></scales>
<clustering>
<clus scale="   80.211">  5  6 -1 -1</clus>
<clus scale="   89.793">  7  8 -1 -1</clus>
<clus scale="   99.912">  1  7  2 -1</clus>
<clus scale="  127.690">  2  9  1 -1</clus>
<clus scale="  127.690">  2  5  1 -1</clus>
</clustering>
</event>
<event>
 9    1  0.8429841E-005  0.1041262E+03  0.7546771E-02  0.1274952E+00
         21   -1    0    0  501  502  0.00000000000E+00  0.00000000000E+00  0.42750142512E+02  0.42750142512E+02  0.00000000000E+00 0. -1.
         -4   -1    0    0    0  501 -0.00000000000E+00 -0.00000000000E+00 -0.35457001399E+03  0.35457001399E+03  0.00000000000E+00 0.  1.
        -24    2    1    2    0    0  0.45154496535E+02 -0.35567720660E+01 -0.14354220600E+03  0.17082915717E+03  0.80787727093E+02 0.  0.
         23    2    1    2    0    0 -0.68649548691E+02 -0.52061548766E+01 -0.16756496242E+03  0.20140486152E+03  0.88011573269E+02 0.  0.
         11    1    3    3    0    0  0.20073294789E+02 -0.41572812337E+02 -0.60309582597E+02  0.75950521014E+02  0.00000000000E+00 0. -1.
        -12    1    3    3    0    0  0.25081201746E+02  0.38016040271E+02 -0.83232623407E+02  0.94878636152E+02  0.00000000000E+00 0.  1.
        -13    1    4    4    0    0 -0.51298489627E+00 -0.25873370627E+02 -0.99834895154E+02  0.10313438200E+03  0.00000000000E+00 0.  1.
         13    1    4    4    0    0 -0.68136563794E+02  0.20667215750E+02 -0.67730067271E+02  0.98270479520E+02  0.00000000000E+00 0. -1.
         -3    1    1    2    0  502  0.23495052156E+02  0.87629269426E+01 -0.71270304368E+00  0.25086137806E+02  0.00000000000E+00 0.  1.
<scales pt_clust_5="13000.00000" pt_clust_6="13000.00000" pt_clust_7="13000.00000" pt_clust_8="13000.00000" pt_clust_9="25.07601"></scales>
<clustering>
<clus scale="   25.076">  1  9  2 -1</clus>
<clus scale="   80.788">  5  6 -1 -1</clus>
<clus scale="   88.012">  7  8 -1 -1</clus>
<clus scale="   98.096">  2  5  1 -1</clus>
<clus scale="   25.076">  1  5  2 -1</clus>
</clustering>
</event>
<event>
 9    1  0.8429841E-005  0.1005816E+03  0.7546771E-02  0.1279286E+00
         21   -1    0    0  501  502  0.00000000000E+00  0.00000000000E+00  0.25085170046E+03  0.25085170046E+03  0.00000000000E+00 0. -1.
          1   -1    0    0  502    0 -0.00000000000E+00 -0.00000000000E+00 -0.58363752880E+02  0.58363752880E+02  0.00000000000E+00 0. -1.
        -24    2    1    2    0    0  0.45713526430E+02  0.67583903876E+01  0.61395197582E+02  0.12204536896E+03  0.94817189678E+02 0.  0.
         23    2    1    2    0    0 -0.14024282404E+02  0.92889728523E+01  0.10710507126E+03  0.14430827405E+03  0.95238732437E+02 0.  0.
         13    1    3    3    0    0  0.36399369851E+02  0.48580257538E+02  0.24352907834E+02  0.65406572055E+02  0.00000000000E+00 0. -1.
        -14    1    3    3    0    0  0.93141565789E+01 -0.41821867150E+02  0.37042289748E+02  0.56638796902E+02  0.00000000000E+00 0.  1.
        -11    1    4    4    0    0  0.29732385580E+02 -0.26723011871E+02  0.46941112622E+02  0.61657133974E+02  0.00000000000E+00 0.  1.
         11    1    4    4    0    0 -0.43756667984E+02  0.36011984724E+02  0.60163958636E+02  0.82651140074E+02  0.00000000000E+00 0. -1.
          2    1    1    2  501    0 -0.31689244026E+02 -0.16047363240E+02  0.23987678743E+02  0.42861810337E+02  0.00000000000E+00 0. -1.
<scales pt_clust_5="13000.00000" pt_clust_6="13000.00000" pt_clust_7="13000.00000" pt_clust_8="13000.00000" pt_clust_9="35.52080"></scales>
<clustering>
<clus scale="   35.521">  1  9  2 -1</clus>
<clus scale="   94.817">  5  6 -1 -1</clus>
<clus scale="   95.239">  7  8 -1 -1</clus>
<clus scale="  100.183">  2  5  1 -1</clus>
<clus scale="   35.521">  1  5  2 -1</clus>
</clustering>
</event>
<event>
 9    1  0.8429841E-005  0.2433818E+03  0.7546771E-02  0.1118280E+00
         21   -1    0    0  501  502  0.00000000000E+00  0.00000000000E+00  0.83911992548E+02  0.83911992548E+02  0.00000000000E+00 0.  1.
          1   -1    0    0  502    0 -0.00000000000E+00 -0.00000000000E+00 -0.13620854396E+04  0.13620854396E+04  0.00000000000E+00 0. -1.
         23    2    1    2    0    0  0.22748860838E+03 -0.63926814511E+02 -0.57810581793E+03  0.63122911052E+03  0.91685051619E+02 0.  0.
        -24    2    1    2    0    0 -0.14674758207E+03  0.18763709287E+03 -0.54785920105E+03  0.60265808642E+03  0.79401092480E+02 0.  0.
         11    1    4    4    0    0 -0.87103860059E+02  0.72820018181E+02 -0.33330657628E+03  0.35211235604E+03  0.00000000000E+00 0. -1.
        -12    1    4    4    0    0 -0.59643722010E+02  0.11481707469E+03 -0.21455262477E+03  0.25054573038E+03  0.00000000000E+00 0.  1.
        -11    1    3    3    0    0  0.34146949052E+02  0.18195395238E+02 -0.52625516225E+02  0.65318691776E+02  0.00000000000E+00 0.  1.
         11    1    3    3    0    0  0.19334165933E+03 -0.82122209749E+02 -0.52548030170E+03  0.56591041875E+03  0.00000000000E+00 0. -1.
          2    1    1    2  501    0 -0.80741026313E+02 -0.12371027835E+03 -0.15220842805E+03  0.21211023518E+03  0.00000000000E+00 0. -1.
<scales pt_clust_5="13000.00000" pt_clust_6="13000.00000" pt_clust_7="13000.00000" pt_clust_8="13000.00000" pt_clust_9="147.72727"></scales>
<clustering>
<clus scale="   79.401">  5  6 -1 -1</clus>
<clus scale="   91.685">  7  8 -1 -1</clus>
<clus scale="  147.727">  1  9  2 -1</clus>
<clus scale="  239.025">  1  5  2 -1</clus>
<clus scale="  147.727">  1  5  2 -1</clus>
</clustering>
</event>
<event>
 9    1  0.8429841E-005  0.1004956E+03  0.7546771E-02  0.1283634E+00
         21   -1    0    0  501  502  0.00000000000E+00  0.00000000000E+00  0.11987316735E+03  0.11987316735E+03  0.00000000000E+00 0.  1.
          1   -1    0    0  502    0 -0.00000000000E+00 -0.00000000000E+00 -0.20149015069E+03  0.20149015069E+03  0.00000000000E+00 0. -1.
        -24    2    1    2    0    0 -0.47256942491E+02 -0.66289671571E+01 -0.15433090411E+03  0.18054152117E+03  0.80622894304E+02 0.  0.
         23    2    1    2    0    0  0.29246738010E+02 -0.77658673116E+01  0.69720666393E+02  0.11757231738E+03  0.89702832239E+02 0.  0.
         11    1    3    3    0    0  0.19316489359E+02  0.13065507716E+02 -0.50682404210E+02  0.55790145631E+02  0.00000000000E+00 0. -1.
        -12    1    3    3    0    0 -0.66573431850E+02 -0.19694474873E+02 -0.10364849990E+03  0.12475137554E+03  0.00000000000E+00 0.  1.
        -11    1    4    4    0    0  0.44560680044E+02  0.64985114546E+01  0.26572845065E+00  0.45032826568E+02  0.00000000000E+00 0. -1.
         11    1    4    4    0    0 -0.15313942034E+02 -0.14264378766E+02  0.69454937942E+02  0.72539490809E+02  0.00000000000E+00 0.  1.
          2    1    1    2  501    0  0.18010204482E+02  0.14394834469E+02  0.29932543814E+01  0.23249479492E+02  0.00000000000E+00 0. -1.
<scales pt_clust_5="13000.00000" pt_clust_6="13000.00000" pt_clust_7="13000.00000" pt_clust_8="13000.00000" pt_clust_9="23.05599"></scales>
<clustering>
<clus scale="   23.056">  1  9  2 -1</clus>
<clus scale="   80.623">  5  6 -1 -1</clus>
<clus scale="   89.703">  7  8 -1 -1</clus>
<clus scale="   92.481">  2  5  1 -1</clus>
<clus scale="   23.056">  1  5  2 -1</clus>
</clustering>
</event>
<event>
 9    1  0.8429841E-005  0.9996959E+02  0.7546771E-02  0.1286583E+00
         21   -1    0    0  501  502  0.00000000000E+00  0.00000000000E+00  0.13334891507E+03  0.13334891507E+03  0.00000000000E+00 0.  1.
          1   -1    0    0  502    0 -0.00000000000E+00 -0.00000000000E+00 -0.36684044809E+03  0.36684044809E+03  0.00000000000E+00 0. -1.
        -24    2    1    2    0    0 -0.22196614849E+02  0.30467670289E+02 -0.31603738101E+03  0.32810948418E+03  0.79719751465E+02 0.  0.
         23    2    1    2    0    0  0.57660210735E+02 -0.34248955707E+02  0.51977693153E+02  0.12510779320E+03  0.91937959868E+02 0.  0.
         11    1    3    3    0    0 -0.15859579325E+02 -0.13771772568E+02 -0.20982798369E+02  0.29689489781E+02  0.00000000000E+00 0. -1.
        -12    1    3    3    0    0 -0.63370355236E+01  0.44239442857E+02 -0.29505458264E+03  0.29841999440E+03  0.00000000000E+00 0.  1.
        -11    1    4    4    0    0  0.57272678099E+02 -0.57986774193E+02  0.17684909847E+02  0.83398930894E+02  0.00000000000E+00 0. -1.
         11    1    4    4    0    0  0.38753263630E+00  0.23737818486E+02  0.34292783305E+02  0.41708862306E+02  0.00000000000E+00 0.  1.
          2    1    1    2  501    0 -0.35463595886E+02  0.37812854179E+01  0.30568154829E+02  0.46972085777E+02  0.00000000000E+00 0. -1.
<scales pt_clust_5="13000.00000" pt_clust_6="13000.00000" pt_clust_7="13000.00000" pt_clust_8="13000.00000" pt_clust_9="35.66461"></scales>
<clustering>
<clus scale="   35.665">  1  9  2 -1</clus>
<clus scale="   79.720">  5  6 -1 -1</clus>
<clus scale="   88.863">  2  5  1 -1</clus>
<clus scale="   91.938">  7  8 -1 -1</clus>
<clus scale="   35.665">  1  5  2 -1</clus>
</clustering>
</event>
<event>
 9    1  0.8429841E-005  0.1362421E+03  0.7546771E-02  0.1220928E+00
          1   -1    0    0  502    0 -0.00000000000E+00  0.00000000000E+00  0.99591278897E+03  0.99591278897E+03  0.00000000000E+00 0. -1.
         21   -1    0    0  501  502  0.00000000000E+00 -0.00000000000E+00 -0.35394379610E+02  0.35394379610E+02  0.00000000000E+00 0. -1.
        -24    2    1    2    0    0  0.18526055593E+02 -0.82999300194E+02  0.49444106213E+03  0.50809119271E+03  0.80328062477E+02 0.  0.
         23    2    1    2    0    0 -0.35634147715E+02  0.13581822865E+03  0.41627615508E+03  0.44863256781E+03  0.90933821491E+02 0.  0.
         11    1    3    3    0    0  0.13735032265E+02 -0.84856478845E+02  0.49545241580E+03  0.50285422285E+03  0.00000000000E+00 0. -1.
        -12    1    3    3    0    0  0.47910233285E+01  0.18571786510E+01 -0.10113536723E+01  0.52369698611E+01  0.00000000000E+00 0.  1.
        -13    1    4    4    0    0  0.22584277701E+02  0.16384026810E+02  0.13091208072E+03  0.13385237694E+03  0.00000000000E+00 0.  1.
         13    1    4    4    0    0 -0.58218425417E+02  0.11943420184E+03  0.28536407437E+03  0.31478019087E+03  0.00000000000E+00 0. -1.
          2    1    1    2  501    0  0.17108092122E+02 -0.52818928453E+02  0.49801192147E+02  0.74583408062E+02  0.00000000000E+00 0. -1.
<scales pt_clust_5="13000.00000" pt_clust_6="13000.00000" pt_clust_7="13000.00000" pt_clust_8="13000.00000" pt_clust_9="55.52050"></scales>
<clustering>
<clus scale="   55.521">  2  9  1 -1</clus>
<clus scale="   80.328">  5  6 -1 -1</clus>
<clus scale="   90.934">  7  8 -1 -1</clus>
<clus scale="  129.405">  1  5  2 -1</clus>
<clus scale="   55.521">  2  5  1 -1</clus>
</clustering>
</event>
<event>
 9    1  0.8429841E-005  0.1175159E+03  0.7546771E-02  0.1251652E+00
         21   -1    0    0  501  502  0.00000000000E+00  0.00000000000E+00  0.22482582141E+03  0.22482582141E+03  0.00000000000E+00 0. -1.
          1   -1    0    0  502    0 -0.00000000000E+00 -0.00000000000E+00 -0.17748193044E+03  0.17748193044E+03  0.00000000000E+00 0. -1.
         23    2    1    2    0    0 -0.20893503856E+02 -0.62266163869E+02 -0.78543550560E+02  0.13685374938E+03  0.90808841638E+02 0.  0.
        -24    2    1    2    0    0 -0.40588096798E+02  0.11476061102E+03  0.45254408740E+02  0.15127282987E+03  0.77576517727E+02 0.  0.
         13    1    4    4    0    0 -0.54348303118E+02  0.48748387890E+02  0.60140365692E+01  0.73255115927E+02  0.00000000000E+00 0. -1.
        -14    1    4    4    0    0  0.13760206320E+02  0.66012223127E+02  0.39240372171E+02  0.78017713939E+02  0.00000000000E+00 0.  1.
        -13    1    3    3    0    0  0.51791270979E+01 -0.38846709562E+02  0.10992631936E+02  0.40702925671E+02  0.00000000000E+00 0.  1.
         13    1    3    3    0    0 -0.26072630954E+02 -0.23419454306E+02 -0.89536182496E+02  0.96150823714E+02  0.00000000000E+00 0. -1.
          2    1    1    2  501    0  0.61481600654E+02 -0.52494447148E+02  0.80633032786E+02  0.11418117260E+03  0.00000000000E+00 0. -1.
<scales pt_clust_5="13000.00000" pt_clust_6="13000.00000" pt_clust_7="13000.00000" pt_clust_8="13000.00000" pt_clust_9="80.84339"></scales>
<clustering>
<clus scale="   77.577">  5  6 -1 -1</clus>
<clus scale="   80.843">  1  9  2 -1</clus>
<clus scale="   90.809">  7  8 -1 -1</clus>
<clus scale="  107.619">  1  5  2 -1</clus>
<clus scale="   80.843">  1  5  2 -1</clus>
</clustering>
</event>
<event>
 9    1  0.8429841E-005  0.1112802E+03  0.7546771E-02  0.1262137E+00
         21   -1    0    0  501  502  0.00000000000E+00  0.00000000000E+00  0.63775027920E+02  0.63775027920E+02  0.00000000000E+00 0.  1.
         -2   -1    0    0    0  501 -0.00000000000E+00 -0.00000000000E+00 -0.39346621419E+03  0.39346621419E+03  0.00000000000E+00 0.  1.
         23    2    1    2    0    0 -0.96543712787E+01  0.62197827246E+02 -0.18507398199E+03  0.21611046958E+03  0.92138914962E+02 0.  0.
        -24    2    1    2    0    0  0.51621699790E+02 -0.49573825591E+02 -0.22154792875E+02  0.11106285071E+03  0.81986327449E+02 0.  0.
         13    1    4    4    0    0 -0.20974277138E+02 -0.23969002290E+02 -0.67426625135E+01  0.32556057348E+02  0.00000000000E+00 0. -1.
        -14    1    4    4    0    0  0.72595976928E+02 -0.25604823301E+02 -0.15412130361E+02  0.78506793367E+02  0.00000000000E+00 0.  1.
        -13    1    3    3    0    0  0.28710279355E+02 -0.38762140673E+00 -0.98519542537E+02  0.10261837386E+03  0.00000000000E+00 0.  1.
         13    1    3    3    0    0 -0.38364650634E+02  0.62585448653E+02 -0.86554439457E+02  0.11349209572E+03  0.00000000000E+00 0. -1.
         -1    1    1    2    0  502 -0.41967328511E+02 -0.12624001655E+02 -0.12246241140E+03  0.13006792182E+03  0.00000000000E+00 0.  1.
<scales pt_clust_5="13000.00000" pt_clust_6="13000.00000" pt_clust_7="13000.00000" pt_clust_8="13000.00000" pt_clust_9="43.82492"></scales>
<clustering>
<clus scale="   43.825">  1  9  2 -1</clus>
<clus scale="   81.986">  5  6 -1 -1</clus>
<clus scale="   92.139">  7  8 -1 -1</clus>
<clus scale="  103.031">  1  5  2 -1</clus>
<clus scale="   43.825">  1  5  2 -1</clus>
</clustering>
</event>
<event>
 9    1  0.8429841E-005  0.8922692E+02  0.7546771E-02  0.1310290E+00
         21   -1    0    0  501  502  0.00000000000E+00  0.00000000000E+00  0.12802833430E+03  0.12802833430E+03  0.00000000000E+00 0. -1.
          3   -1    0    0  502    0 -0.00000000000E+00 -0.00000000000E+00 -0.14353453709E+03  0.14353453709E+03  0.00000000000E+00 0. -1.
         23    2    1    2    0    0  0.75746604254E+01 -0.11810661068E+02 -0.66262195896E+02  0.11197803220E+03  0.89171373742E+02 0.  0.
        -24    2    1    2    0    0  0.19998930118E+02 -0.31402310534E+02  0.19167218554E+01  0.88782733100E+02  0.80576904640E+02 0.  0.
         13    1    4    4    0    0  0.37935665916E+02 -0.24064492440E+02 -0.28147159557E+02  0.53013933414E+02  0.00000000000E+00 0. -1.
        -14    1    4    4    0    0 -0.17936735798E+02 -0.73378180936E+01  0.30063881412E+02  0.35768799687E+02  0.00000000000E+00 0.  1.
        -13    1    3    3    0    0 -0.89548992733E+01  0.28107273767E+02 -0.61879566687E+02  0.68551366382E+02  0.00000000000E+00 0.  1.
         13    1    3    3    0    0  0.16529559699E+02 -0.39917934834E+02 -0.43826292096E+01  0.43426665818E+02  0.00000000000E+00 0. -1.
          4    1    1    2  501    0 -0.27573590544E+02  0.43212971601E+02  0.48839271247E+02  0.70802106084E+02  0.00000000000E+00 0. -1.
<scales pt_clust_5="13000.00000" pt_clust_6="13000.00000" pt_clust_7="13000.00000" pt_clust_8="13000.00000" pt_clust_9="51.26074"></scales>
<clustering>
<clus scale="   51.261">  1  9  2 -1</clus>
<clus scale="   80.577">  5  6 -1 -1</clus>
<clus scale="   80.638">  1  5  2 -1</clus>
<clus scale="   89.171">  7  8 -1 -1</clus>
<clus scale="   51.261">  1  5  2 -1</clus>
</clustering>
</event>
<event>
 9    1  0.8429841E-005  0.2729122E+03  0.7546771E-02  0.1141984E+00
          1   -1    0    0  502    0 -0.00000000000E+00  0.00000000000E+00  0.55248144702E+03  0.55248144702E+03  0.00000000000E+00 0. -1.
         21   -1    0    0  501  502  0.00000000000E+00 -0.00000000000E+00 -0.23135605347E+03  0.23135605347E+03  0.00000000000E+00 0. -1.
        -24    2    1    2    0    0 -0.40828417750E+02 -0.27493167914E+02  0.12436086877E+03  0.15632483792E+03  0.80925862939E+02 0.  0.
         23    2    1    2    0    0 -0.22041637656E+03  0.80262771368E+02  0.25136184473E+03  0.35545689448E+03  0.90229348468E+02 0.  0.
         11    1    3    3    0    0 -0.30119253796E+02 -0.21560395366E+01  0.12521463770E+03  0.12880420587E+03  0.00000000000E+00 0. -1.
        -12    1    3    3    0    0 -0.10709163953E+02 -0.25337128378E+02 -0.85376893312E+00  0.27520632049E+02  0.00000000000E+00 0.  1.
        -11    1    4    4    0    0 -0.12569582371E+03  0.87842939106E+02  0.12805864124E+03  0.19978698067E+03  0.00000000000E+00 0. -1.
         11    1    4    4    0    0 -0.94720552847E+02 -0.75801677382E+01  0.12330320349E+03  0.15566991381E+03  0.00000000000E+00 0.  1.
          2    1    1    2  501    0  0.26124479431E+03 -0.52769603453E+02 -0.54597319942E+02  0.27205576808E+03  0.00000000000E+00 0. -1.
<scales pt_clust_5="13000.00000" pt_clust_6="13000.00000" pt_clust_7="13000.00000" pt_clust_8="13000.00000" pt_clust_9="257.56501"></scales>
<clustering>
<clus scale="   80.926">  5  6 -1 -1</clus>
<clus scale="   90.229">  7  8 -1 -1</clus>
<clus scale="   94.720">  1  5  2 -1</clus>
<clus scale="  257.565">  2  9  1 -1</clus>
<clus scale="  257.565">  2  5  1 -1</clus>
</clustering>
</event>
<event>
 9    1  0.8429841E-005  0.1777197E+03  0.7546771E-02  0.1170744E+00
         21   -1    0    0  501  502  0.00000000000E+00  0.00000000000E+00  0.12942971808E+03  0.12942971808E+03  0.00000000000E+00 0.  1.
          1   -1    0    0  502    0 -0.00000000000E+00 -0.00000000000E+00 -0.38193202215E+03  0.38193202215E+03  0.00000000000E+00 0. -1.
         23    2    1    2    0    0  0.64883461414E+02  0.12714191849E+03 -0.19439858836E+03  0.25875327646E+03  0.93741751187E+02 0.  0.
        -24    2    1    2    0    0 -0.50609284788E+02 -0.16045167967E+03 -0.84385392591E+02  0.20784219469E+03  0.88155783665E+02 0.  0.
         13    1    4    4    0    0 -0.10398516355E+02 -0.20260959177E+02 -0.54363255378E+02  0.58940640855E+02  0.00000000000E+00 0. -1.
        -14    1    4    4    0    0 -0.40210768433E+02 -0.14019072050E+03 -0.30022137213E+02  0.14890155383E+03  0.00000000000E+00 0.  1.
        -13    1    3    3    0    0  0.36736633424E+02  0.76213990514E+02 -0.17987573087E+03  0.19877985598E+03  0.00000000000E+00 0.  1.
         13    1    3    3    0    0  0.28146827990E+02  0.50927927979E+02 -0.14522857491E+02  0.59973420478E+02  0.00000000000E+00 0. -1.
          2    1    1    2  501    0 -0.14274176627E+02  0.33309761180E+02  0.26281676881E+02  0.44766269087E+02  0.00000000000E+00 0. -1.
<scales pt_clust_5="13000.00000" pt_clust_6="13000.00000" pt_clust_7="13000.00000" pt_clust_8="13000.00000" pt_clust_9="36.23938"></scales>
<clustering>
<clus scale="   36.239">  1  9  2 -1</clus>
<clus scale="   88.156">  5  6 -1 -1</clus>
<clus scale="   93.742">  7  8 -1 -1</clus>
<clus scale="  174.838">  1  5  2 -1</clus>
<clus scale="   36.239">  1  5  2 -1</clus>
</clustering>
</event>
<event>
 9    1  0.8429841E-005  0.1361546E+03  0.7546771E-02  0.1230541E+00
         21   -1    0    0  501  502  0.00000000000E+00  0.00000000000E+00  0.54344733751E+02  0.54344733751E+02  0.00000000000E+00 0.  1.
          1   -1    0    0  502    0 -0.00000000000E+00 -0.00000000000E+00 -0.10667213681E+04  0.10667213681E+04  0.00000000000E+00 0. -1.
         23    2    1    2    0    0  0.39114653461E+02 -0.34857861128E+02 -0.40004572291E+03  0.41389217635E+03  0.92331612262E+02 0.  0.
        -24    2    1    2    0    0  0.86151687131E+02  0.64516482523E+02 -0.73566088936E+02  0.15324358343E+03  0.80542763227E+02 0.  0.
         11    1    4    4    0    0 -0.65019139518E+01  0.35807807257E+02 -0.28811014145E+02  0.46417114103E+02  0.00000000000E+00 0. -1.
        -12    1    4    4    0    0  0.92653601083E+02  0.28708675266E+02 -0.44755074791E+02  0.10682646933E+03  0.00000000000E+00 0.  1.
        -11    1    3    3    0    0 -0.69271516782E+01 -0.54894801861E+02 -0.18733685473E+03  0.19533694439E+03  0.00000000000E+00 0.  1.
         11    1    3    3    0    0  0.46041805139E+02  0.20036940732E+02 -0.21270886818E+03  0.21855523196E+03  0.00000000000E+00 0. -1.
          2    1    1    2  501    0 -0.12526634059E+03 -0.29658621394E+02 -0.53876482254E+03  0.55393034212E+03  0.00000000000E+00 0. -1.
<scales pt_clust_5="13000.00000" pt_clust_6="13000.00000" pt_clust_7="13000.00000" pt_clust_8="13000.00000" pt_clust_9="109.77680"></scales>
<clustering>
<clus scale="   80.543">  5  6 -1 -1</clus>
<clus scale="   92.332">  7  8 -1 -1</clus>
<clus scale="  106.161">  2  7  1 -1</clus>
<clus scale="  109.777">  1  9  2 -1</clus>
<clus scale="  109.777">  1  5  2 -1</clus>
</clustering>
</event>
<event>
 9    1  0.8429841E-005  0.1364347E+03  0.7546771E-02  0.1222274E+00
          1   -1    0    0  502    0 -0.00000000000E+00  0.00000000000E+00  0.11517721017E+04  0.11517721017E+04  0.00000000000E+00 0. -1.
         21   -1    0    0  501  502  0.00000000000E+00 -0.00000000000E+00 -0.59879982645E+02  0.59879982645E+02  0.00000000000E+00 0. -1.
        -24    2    1    2    0    0  0.52200654100E+02 -0.10094738839E+03  0.41860423910E+03  0.44128821071E+03  0.81181847770E+02 0.  0.
         23    2    1    2    0    0  0.61033426946E+02  0.54137356110E+02  0.52437371369E+02  0.13753807593E+03  0.97524929543E+02 0.  0.
         13    1    3    3    0    0  0.10100415427E+02 -0.93186384913E+02  0.24071682331E+03  0.25832210465E+03  0.00000000000E+00 0. -1.
        -14    1    3    3    0    0  0.42100238673E+02 -0.77610034804E+01  0.17788741579E+03  0.18296610606E+03  0.00000000000E+00 0.  1.
        -13    1    4    4    0    0 -0.20187607208E+02 -0.78719735383E+01 -0.19928499625E+01  0.21759570380E+02  0.00000000000E+00 0.  1.
         13    1    4    4    0    0  0.81221034154E+02  0.62009329649E+02  0.54430221332E+02  0.11577850555E+03  0.00000000000E+00 0. -1.
          2    1    1    2  501    0 -0.11323408105E+03  0.46810032283E+02  0.62085050860E+03  0.63282579772E+03  0.00000000000E+00 0. -1.
<scales pt_clust_5="13000.00000" pt_clust_6="13000.00000" pt_clust_7="13000.00000" pt_clust_8="13000.00000" pt_clust_9="122.52817"></scales>
<clustering>
<clus scale="   81.182">  5  6 -1 -1</clus>
<clus scale="   97.525">  7  8 -1 -1</clus>
<clus scale="  122.528">  2  9  1 -1</clus>
<clus scale="  125.275">  1  5  2 -1</clus>
<clus scale="  122.528">  2  5  1 -1</clus>
</clustering>
</event>
<event>
 9    1  0.8429841E-005  0.1815030E+03  0.7546771E-02  0.1167774E+00
          1   -1    0    0  502    0 -0.00000000000E+00  0.00000000000E+00  0.14263686461E+04  0.14263686461E+04  0.00000000000E+00 0. -1.
         21   -1    0    0  501  502  0.00000000000E+00 -0.00000000000E+00 -0.33620570327E+02  0.33620570327E+02  0.00000000000E+00 0. -1.
        -24    2    1    2    0    0  0.11476184595E+03  0.95208867409E+02  0.71908158352E+03  0.73886242791E+03  0.81267175960E+02 0.  0.
         23    2    1    2    0    0 -0.16279890193E+03 -0.59901716123E+02  0.53945077365E+03  0.57426626694E+03  0.93182133977E+02 0.  0.
         13    1    3    3    0    0  0.78529718060E+02  0.10606723317E+03  0.56392742154E+03  0.57916432153E+03  0.00000000000E+00 0. -1.
        -14    1    3    3    0    0  0.36232127888E+02 -0.10858365762E+02  0.15515416199E+03  0.15969810638E+03  0.00000000000E+00 0.  1.
        -13    1    4    4    0    0 -0.77447006372E+02 -0.25807697269E+02  0.12182968321E+03  0.14665110892E+03  0.00000000000E+00 0. -1.
         13    1    4    4    0    0 -0.85351895556E+02 -0.34094018854E+02  0.41762109043E+03  0.42761515802E+03  0.00000000000E+00 0.  1.
          2    1    1    2  501    0  0.48037055979E+02 -0.35307151286E+02  0.13421571859E+03  0.14686052157E+03  0.00000000000E+00 0. -1.
<scales pt_clust_5="13000.00000" pt_clust_6="13000.00000" pt_clust_7="13000.00000" pt_clust_8="13000.00000" pt_clust_9="59.61672"></scales>
<clustering>
<clus scale="   59.617">  2  9  1 -1</clus>
<clus scale="   81.267">  5  6 -1 -1</clus>
<clus scale="   93.182">  7  8 -1 -1</clus>
<clus scale="  175.684">  1  5  2 -1</clus>
<clus scale="   59.617">  2  5  1 -1</clus>
</clustering>
</event>
<event>
 9    1  0.8429841E-005  0.9765320E+02  0.7546771E-02  0.1290909E+00
         21   -1    0    0  501  502  0.00000000000E+00  0.00000000000E+00  0.21634508045E+03  0.21634508045E+03  0.00000000000E+00 0. -1.
         -4   -1    0    0    0  501 -0.00000000000E+00 -0.00000000000E+00 -0.75526945363E+02  0.75526945363E+02  0.00000000000E+00 0.  1.
        -24    2    1    2    0    0 -0.10629650943E+02 -0.36747926248E+02 -0.81489309936E+01  0.89218968864E+02  0.80188651106E+02 0.  0.
         23    2    1    2    0    0  0.38902261754E+02  0.14508980493E+02  0.12236993713E+03  0.15791695856E+03  0.90771514277E+02 0.  0.
         13    1    3    3    0    0  0.28542726165E+02 -0.18405449447E+02 -0.25648159603E+02  0.42559086894E+02  0.00000000000E+00 0. -1.
        -14    1    3    3    0    0 -0.39172377108E+02 -0.18342476802E+02  0.17499228610E+02  0.46659881970E+02  0.00000000000E+00 0.  1.
        -13    1    4    4    0    0  0.29977971983E+01  0.49309923494E+02  0.53639897281E+02  0.72922520002E+02  0.00000000000E+00 0.  1.
         13    1    4    4    0    0  0.35904464555E+02 -0.34800943002E+02  0.68730039845E+02  0.84994438559E+02  0.00000000000E+00 0. -1.
         -3    1    1    2    0  502 -0.28272610810E+02  0.22238945756E+02  0.26597128953E+02  0.44736098387E+02  0.00000000000E+00 0.  1.
<scales pt_clust_5="13000.00000" pt_clust_6="13000.00000" pt_clust_7="13000.00000" pt_clust_8="13000.00000" pt_clust_9="35.97098"></scales>
<clustering>
<clus scale="   35.971">  1  9  2 -1</clus>
<clus scale="   80.189">  5  6 -1 -1</clus>
<clus scale="   87.903">  2  5  1 -1</clus>
<clus scale="   90.772">  7  8 -1 -1</clus>
<clus scale="   35.971">  1  5  2 -1</clus>
</clustering>
</event>
<event>
 9    1  0.8429841E-005  0.1941257E+03  0.7546771E-02  0.1178797E+00
         21   -1    0    0  501  502  0.00000000000E+00  0.00000000000E+00  0.21536122148E+03  0.21536122148E+03  0.00000000000E+00 0.  1.
         -2   -1    0    0    0  501 -0.00000000000E+00 -0.00000000000E+00 -0.37288992114E+03  0.37288992114E+03  0.00000000000E+00 0.  1.
        -24    2    1    2    0    0  0.47215760731E+02  0.61841677449E+02 -0.17914546325E+03  0.21114391199E+03  0.80218036834E+02 0.  0.
         23    2    1    2    0    0  0.79288159333E+02  0.97089739625E+02 -0.48233154739E+02  0.16230162499E+03  0.91117234968E+02 0.  0.
         13    1    3    3    0    0  0.44918930743E+02 -0.28823845061E+01 -0.93476320350E+02  0.10374893226E+03  0.00000000000E+00 0. -1.
        -14    1    3    3    0    0  0.22968299881E+01  0.64724061955E+02 -0.85669142902E+02  0.10739497972E+03  0.00000000000E+00 0.  1.
        -11    1    4    4    0    0 -0.17676808470E+01  0.20598748409E+02  0.22299249332E+02  0.30408710139E+02  0.00000000000E+00 0. -1.
         11    1    4    4    0    0  0.81055840180E+02  0.76490991216E+02 -0.70532404070E+02  0.13189291485E+03  0.00000000000E+00 0.  1.
         -1    1    1    2    0  502 -0.12650392006E+03 -0.15893141707E+03  0.69849918333E+02  0.21480560564E+03  0.00000000000E+00 0.  1.
<scales pt_clust_5="13000.00000" pt_clust_6="13000.00000" pt_clust_7="13000.00000" pt_clust_8="13000.00000" pt_clust_9="171.41301"></scales>
<clustering>
<clus scale="   80.218">  5  6 -1 -1</clus>
<clus scale="   91.117">  7  8 -1 -1</clus>
<clus scale="  111.753">  2  5  1 -1</clus>
<clus scale="  171.413">  1  9  2 -1</clus>
<clus scale="  171.413">  1  5  2 -1</clus>
</clustering>
</event>
<event>
 9    1  0.8429841E-005  0.1641432E+03  0.7546771E-02  0.1207021E+00
          1   -1    0    0  502    0 -0.00000000000E+00  0.00000000000E+00  0.99713201712E+03  0.99713201712E+03  0.00000000000E+00 0. -1.
         21   -1    0    0  501  502  0.00000000000E+00 -0.00000000000E+00 -0.57425388978E+02  0.57425388978E+02  0.00000000000E+00 0. -1.
         23    2    1    2    0    0 -0.35038658205E+02  0.88062358088E+00  0.47566672527E+02  0.11018172917E+03  0.92999688392E+02 0.  0.
        -24    2    1    2    0    0  0.15074045475E+03 -0.56270758197E+02  0.46717058243E+03  0.50046809546E+03  0.79566818222E+02 0.  0.
         11    1    4    4    0    0  0.14963783104E+03 -0.56381730047E+02  0.47051470486E+03  0.49694513525E+03  0.00000000000E+00 0. -1.
        -12    1    4    4    0    0  0.11026237066E+01  0.11097184924E+00 -0.33441224317E+01  0.35229602081E+01  0.00000000000E+00 0.  1.
        -13    1    3    3    0    0 -0.28832032015E+01  0.24391932531E+02  0.62879029429E+02  0.67505937333E+02  0.00000000000E+00 0.  1.
         13    1    3    3    0    0 -0.32155455003E+02 -0.23511308951E+02 -0.15312356902E+02  0.42675791837E+02  0.00000000000E+00 0. -1.
          2    1    1    2  501    0 -0.11570179654E+03  0.55390134616E+02  0.42496937318E+03  0.44390758146E+03  0.00000000000E+00 0. -1.
<scales pt_clust_5="13000.00000" pt_clust_6="13000.00000" pt_clust_7="13000.00000" pt_clust_8="13000.00000" pt_clust_9="143.56932"></scales>
<clustering>
<clus scale="   79.567">  5  6 -1 -1</clus>
<clus scale="   93.000">  7  8 -1 -1</clus>
<clus scale="   99.385">  1  7  2 -1</clus>
<clus scale="  143.569">  2  9  1 -1</clus>
<clus scale="  143.569">  2  5  1 -1</clus>
</clustering>
</event>
<event>
 9    1  0.8429841E-005  0.1731504E+03  0.7546771E-02  0.1176938E+00
         21   -1    0    0  501  502  0.00000000000E+00  0.00000000000E+00  0.86552641588E+02  0.86552641588E+02  0.00000000000E+00 0. -1.
         -4   -1    0    0    0  501 -0.00000000000E+00 -0.00000000000E+00 -0.93588265541E+03  0.93588265541E+03  0.00000000000E+00 0.  1.
        -24    2    1    2    0    0 -0.50355653730E+02  0.13587060359E+03 -0.81027225463E+03  0.82720840476E+03  0.82073780797E+02 0.  0.
         23    2    1    2    0    0  0.30909934296E+02 -0.12091631820E+03 -0.52104942153E+02  0.16744208274E+03  0.98720545130E+02 0.  0.
         13    1    3    3    0    0 -0.63744331132E+01  0.67136190163E+02 -0.19044324146E+03  0.20203101159E+03  0.00000000000E+00 0. -1.
        -14    1    3    3    0    0 -0.43981220617E+02  0.68734413423E+02 -0.61982901317E+03  0.62517739317E+03  0.00000000000E+00 0.  1.
        -13    1    4    4    0    0  0.65296710370E+02 -0.61715536457E+02 -0.37940254040E+02  0.97529127454E+02  0.00000000000E+00 0. -1.
         13    1    4    4    0    0 -0.34386776074E+02 -0.59200781740E+02 -0.14164688113E+02  0.69912955286E+02  0.00000000000E+00 0.  1.
         -3    1    1    2    0  502  0.19445719434E+02 -0.14954285390E+02  0.13047182962E+02  0.27784809502E+02  0.00000000000E+00 0.  1.
<scales pt_clust_5="13000.00000" pt_clust_6="13000.00000" pt_clust_7="13000.00000" pt_clust_8="13000.00000" pt_clust_9="24.53093"></scales>
<clustering>
<clus scale="   24.531">  1  9  2 -1</clus>
<clus scale="   82.074">  5  6 -1 -1</clus>
<clus scale="   98.721">  7  8 -1 -1</clus>
<clus scale="  164.230">  2  5  1 -1</clus>
<clus scale="   24.531">  1  5  2 -1</clus>
</clustering>
</event>
<event>
 9    1  0.8429841E-005  0.9736840E+02  0.7546771E-02  0.1292068E+00
         21   -1    0    0  501  502  0.00000000000E+00  0.00000000000E+00  0.44619786376E+02  0.44619786376E+02  0.00000000000E+00 0.  1.
         -2   -1    0    0    0  501 -0.00000000000E+00 -0.00000000000E+00 -0.66698098979E+03  0.66698098979E+03  0.00000000000E+00 0.  1.
         23    2    1    2    0    0  0.36894202774E+01 -0.37894402968E+02 -0.54569672717E+03  0.55477920379E+03  0.92441599507E+02 0.  0.
        -24    2    1    2    0    0 -0.82331044580E+01  0.30859216249E+01 -0.87869381373E+02  0.11997289074E+03  0.81210586802E+02 0.  0.
         13    1    4    4    0    0  0.21413690299E+02  0.18883015383E+02 -0.30126244809E+01  0.28708714852E+02  0.00000000000E+00 0. -1.
        -14    1    4    4    0    0 -0.29646794757E+02 -0.15797093759E+02 -0.84856756892E+02  0.91264175890E+02  0.00000000000E+00 0.  1.
        -13    1    3    3    0    0  0.21234658931E+02  0.26082608530E+02 -0.18174194803E+03  0.18482788989E+03  0.00000000000E+00 0. -1.
         13    1    3    3    0    0 -0.17545238654E+02 -0.63977011498E+02 -0.36395477914E+03  0.36995131390E+03  0.00000000000E+00 0.  1.
         -1    1    1    2    0  502  0.45436841806E+01  0.34808481343E+02  0.11204905125E+02  0.36848681635E+02  0.00000000000E+00 0.  1.
<scales pt_clust_5="13000.00000" pt_clust_6="13000.00000" pt_clust_7="13000.00000" pt_clust_8="13000.00000" pt_clust_9="35.10378"></scales>
<clustering>
<clus scale="   35.104">  1  9  2 -1</clus>
<clus scale="   81.211">  5  6 -1 -1</clus>
<clus scale="   86.777">  1  5  2 -1</clus>
<clus scale="   92.442">  7  8 -1 -1</clus>
<clus scale="   35.104">  1  5  2 -1</clus>
</clustering>
</event>
<event>
 9    1  0.8429841E-005  0.2225712E+03  0.7546771E-02  0.1169225E+00
          3   -1    0    0  502    0 -0.00000000000E+00  0.00000000000E+00  0.39325372230E+03  0.39325372230E+03  0.00000000000E+00 0. -1.
         21   -1    0    0  501  502  0.00000000000E+00 -0.00000000000E+00 -0.26273604854E+03  0.26273604854E+03  0.00000000000E+00 0. -1.
        -24    2    1    2    0    0 -0.50338736113E+02 -0.71992190292E+01  0.18253494227E+03  0.20447922462E+03  0.76856561498E+02 0.  0.
         23    2    1    2    0    0  0.19884170747E+03  0.86360541103E+02 -0.12352584905E+03  0.26866327523E+03  0.99625059019E+02 0.  0.
         13    1    3    3    0    0 -0.45851495684E+02  0.20260745784E+02  0.57040811418E+02  0.75937550944E+02  0.00000000000E+00 0. -1.
        -14    1    3    3    0    0 -0.44872404290E+01 -0.27459964813E+02  0.12549413085E+03  0.12854167368E+03  0.00000000000E+00 0.  1.
        -13    1    4    4    0    0  0.25412204270E+02 -0.98748852009E+01  0.10575492930E+02  0.29242683432E+02  0.00000000000E+00 0.  1.
         13    1    4    4    0    0  0.17342950320E+03  0.96235426303E+02 -0.13410134198E+03  0.23942059180E+03  0.00000000000E+00 0. -1.
          4    1    1    2  501    0 -0.14850297136E+03 -0.79161322073E+02  0.71508580545E+02  0.18284727098E+03  0.00000000000E+00 0. -1.
<scales pt_clust_5="13000.00000" pt_clust_6="13000.00000" pt_clust_7="13000.00000" pt_clust_8="13000.00000" pt_clust_9="199.02970"></scales>
<clustering>
<clus scale="   76.857">  5  6 -1 -1</clus>
<clus scale="   92.156">  1  5  2 -1</clus>
<clus scale="   99.625">  7  8 -1 -1</clus>
<clus scale="  199.030">  2  9  1 -1</clus>
<clus scale="  199.030">  2  5  1 -1</clus>
</clustering>
</event>
<event>
 9    1  0.8429841E-005  0.1433331E+03  0.7546771E-02  0.1219949E+00
          3   -1    0    0  502    0 -0.00000000000E+00  0.00000000000E+00  0.12127985823E+03  0.12127985823E+03  0.00000000000E+00 0. -1.
         21   -1    0    0  501  502  0.00000000000E+00 -0.00000000000E+00 -0.31154798029E+03  0.31154798029E+03  0.00000000000E+00 0. -1.
        -24    2    1    2    0    0 -0.30788845658E+02  0.73861423388E+02 -0.21049475117E+02  0.11537612982E+03  0.80405895598E+02 0.  0.
         23    2    1    2    0    0 -0.84912050280E+02 -0.81295060394E+02 -0.11937942956E+03  0.19125383285E+03  0.92236854078E+02 0.  0.
         11    1    3    3    0    0 -0.13550201811E+02  0.14731026246E+02  0.29532473331E+02  0.35676015534E+02  0.00000000000E+00 0. -1.
        -12    1    3    3    0    0 -0.17238643847E+02  0.59130397143E+02 -0.50581948448E+02  0.79700114283E+02  0.00000000000E+00 0.  1.
        -13    1    4    4    0    0 -0.27886243603E+02 -0.19849417515E+02  0.11257517880E+02  0.36032952513E+02  0.00000000000E+00 0.  1.
         13    1    4    4    0    0 -0.57025806677E+02 -0.61445642879E+02 -0.13063694744E+03  0.15522088034E+03  0.00000000000E+00 0. -1.
          4    1    1    2  501    0  0.11570089594E+03  0.74336370056E+01 -0.49839217376E+02  0.12619787585E+03  0.00000000000E+00 0. -1.
<scales pt_clust_5="13000.00000" pt_clust_6="13000.00000" pt_clust_7="13000.00000" pt_clust_8="13000.00000" pt_clust_9="109.71218"></scales>
<clustering>
<clus scale="   80.406">  5  6 -1 -1</clus>
<clus scale="   92.237">  7  8 -1 -1</clus>
<clus scale="  113.440">  1  5  2 -1</clus>
<clus scale="  109.712">  2  9  1 -1</clus>
<clus scale="  109.712">  2  5  1 -1</clus>
</clustering>
</event>
<event>
 9    1  0.8909842E-005  0.1979193E+03  0.7546771E-02  0.1152342E+00
         -2   -1    0    0    0  501 -0.00000000000E+00  0.00000000000E+00  0.38080791918E+03  0.38080791918E+03  0.00000000000E+00 0.  1.
         21   -1    0    0  501  502  0.00000000000E+00 -0.00000000000E+00 -0.37106073224E+03  0.37106073224E+03  0.00000000000E+00 0. -1.
         23    2    1    2    0    0  0.10902753061E+03 -0.14166263832E+03  0.17860216630E+03  0.26796293501E+03  0.89163306387E+02 0.  0.
        -24    2    1    2    0    0 -0.79831144644E+02  0.14236627236E+03 -0.29930454181E+03  0.35022695073E+03  0.80215591424E+02 0.  0.
         13    1    4    4    0    0 -0.65722599061E+02  0.76456475826E+02 -0.24049875822E+03  0.26077711830E+03  0.00000000000E+00 0. -1.
        -14    1    4    4    0    0 -0.14108545583E+02  0.65909796538E+02 -0.58805783586E+02  0.89449832428E+02  0.00000000000E+00 0.  1.
        -11    1    3    3    0    0  0.82453982902E+02 -0.60579596622E+02  0.14222858597E+03  0.17520707032E+03  0.00000000000E+00 0.  1.
         11    1    3    3    0    0  0.26573547704E+02 -0.81083041694E+02  0.36373580333E+02  0.92755864689E+02  0.00000000000E+00 0. -1.
         -1    1    1    2    0  502 -0.29196385961E+02 -0.70363404766E+00  0.13044956244E+03  0.13367876568E+03  0.00000000000E+00 0.  1.
<scales pt_clust_5="13000.00000" pt_clust_6="13000.00000" pt_clust_7="13000.00000" pt_clust_8="13000.00000" pt_clust_9="29.20488"></scales>
<clustering>
<clus scale="   29.205">  2  9  1 -1</clus>
<clus scale="   80.216">  5  6 -1 -1</clus>
<clus scale="   89.163">  7  8 -1 -1</clus>
<clus scale="  194.053">  2  5  1 -1</clus>
<clus scale="   29.205">  2  5  1 -1</clus>
</clustering>
</event>
<event>
 9    1  0.8429841E-005  0.1064589E+03  0.7546771E-02  0.1271299E+00
         21   -1    0    0  501  502  0.00000000000E+00  0.00000000000E+00  0.17423095559E+02  0.17423095559E+02  0.00000000000E+00 0. -1.
          1   -1    0    0  502    0 -0.00000000000E+00 -0.00000000000E+00 -0.11001644443E+04  0.11001644443E+04  0.00000000000E+00 0. -1.
         23    2    1    2    0    0 -0.96880098828E+01  0.50118268470E+02 -0.56075912184E+03  0.57038015472E+03  0.90978183100E+02 0.  0.
        -24    2    1    2    0    0  0.51643886594E+02 -0.44207023869E+02 -0.46029866211E+03  0.47237356546E+03  0.81489723443E+02 0.  0.
         13    1    4    4    0    0  0.69460182368E+02 -0.43023433142E+02 -0.42536681674E+03  0.43314277267E+03  0.00000000000E+00 0. -1.
        -14    1    4    4    0    0 -0.17816295774E+02 -0.11835907272E+01 -0.34931845364E+02  0.39230792787E+02  0.00000000000E+00 0.  1.
        -11    1    3    3    0    0 -0.30548862231E+02 -0.16352803401E+02 -0.18806200858E+03  0.19122752478E+03  0.00000000000E+00 0.  1.
         11    1    3    3    0    0  0.20860852349E+02  0.66471071871E+02 -0.37269711326E+03  0.37915262994E+03  0.00000000000E+00 0. -1.
          2    1    1    2  501    0 -0.41955876711E+02 -0.59112446010E+01 -0.61683564842E+02  0.74833819727E+02  0.00000000000E+00 0. -1.
<scales pt_clust_5="13000.00000" pt_clust_6="13000.00000" pt_clust_7="13000.00000" pt_clust_8="13000.00000" pt_clust_9="42.37025"></scales>
<clustering>
<clus scale="   42.370">  1  9  2 -1</clus>
<clus scale="   81.490">  5  6 -1 -1</clus>
<clus scale="   90.978">  7  8 -1 -1</clus>
<clus scale="   98.474">  1  5  2 -1</clus>
<clus scale="   42.370">  1  5  2 -1</clus>
</clustering>
</event>
<event>
 9    1  0.8429841E-005  0.5951880E+03  0.7546771E-02  0.9916483E-01
          1   -1    0    0  502    0 -0.00000000000E+00  0.00000000000E+00  0.10571574860E+04  0.10571574860E+04  0.00000000000E+00 0. -1.
         21   -1    0    0  501  502  0.00000000000E+00 -0.00000000000E+00 -0.38090090133E+03  0.38090090133E+03  0.00000000000E+00 0. -1.
        -24    2    1    2    0    0  0.60916898753E+03 -0.88211207401E+02  0.46309165935E+03  0.77415007555E+03  0.77371713387E+02 0.  0.
         23    2    1    2    0    0 -0.54574546898E+03  0.95627659537E+02  0.21143615899E+03  0.60002924557E+03  0.91362355684E+02 0.  0.
         13    1    3    3    0    0  0.50002698846E+03 -0.42796233400E+02  0.38408771872E+03  0.63196667827E+03  0.00000000000E+00 0. -1.
        -14    1    3    3    0    0  0.10914199907E+03 -0.45414974001E+02  0.79003940639E+02  0.14218339728E+03  0.00000000000E+00 0.  1.
        -11    1    4    4    0    0 -0.42958313694E+03  0.98506038031E+02  0.13499967200E+03  0.46094470657E+03  0.00000000000E+00 0. -1.
         11    1    4    4    0    0 -0.11616233204E+03 -0.28783784935E+01  0.76436486991E+02  0.13908453900E+03  0.00000000000E+00 0.  1.
          2    1    1    2  501    0 -0.63423518552E+02 -0.74164521362E+01  0.17287663312E+01  0.63879066217E+02  0.00000000000E+00 0. -1.
<scales pt_clust_5="13000.00000" pt_clust_6="13000.00000" pt_clust_7="13000.00000" pt_clust_8="13000.00000" pt_clust_9="63.85567"></scales>
<clustering>
<clus scale="   63.856">  2  9  1 -1</clus>
<clus scale="   77.372">  5  6 -1 -1</clus>
<clus scale="   91.362">  7  8 -1 -1</clus>
<clus scale="  593.202">  1  5  2 -1</clus>
<clus scale="   63.856">  2  5  1 -1</clus>
</clustering>
</event>
<event>
 9    1  0.8429841E-005  0.2626555E+03  0.7546771E-02  0.1105788E+00
         21   -1    0    0  501  502  0.00000000000E+00  0.00000000000E+00  0.16845509835E+03  0.16845509835E+03  0.00000000000E+00 0.  1.
          1   -1    0    0  502    0 -0.00000000000E+00 -0.00000000000E+00 -0.77511768592E+03  0.77511768592E+03  0.00000000000E+00 0. -1.
        -24    2    1    2    0    0 -0.16453178441E+01  0.24787154498E+03 -0.52237670792E+03  0.58477721832E+03  0.87429744371E+02 0.  0.
         23    2    1    2    0    0  0.52568001658E+02 -0.23940751285E+03 -0.12776532545E+03  0.29130318287E+03  0.91946799611E+02 0.  0.
         13    1    3    3    0    0  0.17872546510E+02  0.41700079988E+02 -0.42690307827E+02  0.62295962727E+02  0.00000000000E+00 0. -1.
        -14    1    3    3    0    0 -0.19517864354E+02  0.20617146499E+03 -0.47968640010E+03  0.52248125559E+03  0.00000000000E+00 0.  1.
        -11    1    4    4    0    0  0.24480961043E+02 -0.14953913507E+03 -0.12609604037E+03  0.19713315745E+03  0.00000000000E+00 0.  1.
         11    1    4    4    0    0  0.28087040615E+02 -0.89868377779E+02 -0.16692850809E+01  0.94170025421E+02  0.00000000000E+00 0. -1.
          2    1    1    2  501    0 -0.50922683814E+02 -0.84640321329E+01  0.43479445796E+02  0.67492383078E+02  0.00000000000E+00 0. -1.
<scales pt_clust_5="13000.00000" pt_clust_6="13000.00000" pt_clust_7="13000.00000" pt_clust_8="13000.00000" pt_clust_9="51.62131"></scales>
<clustering>
<clus scale="   51.621">  1  9  2 -1</clus>
<clus scale="   87.430">  5  6 -1 -1</clus>
<clus scale="   91.947">  7  8 -1 -1</clus>
<clus scale="  261.108">  2  5  1 -1</clus>
<clus scale="   51.621">  1  5  2 -1</clus>
</clustering>
</event>
<event>
 9    1  0.8429841E-005  0.1630753E+03  0.7546771E-02  0.1206774E+00
          1   -1    0    0  502    0 -0.00000000000E+00  0.00000000000E+00  0.52781765214E+03  0.52781765214E+03  0.00000000000E+00 0. -1.
         21   -1    0    0  501  502  0.00000000000E+00 -0.00000000000E+00 -0.94075711824E+02  0.94075711824E+02  0.00000000000E+00 0.  1.
         23    2    1    2    0    0  0.35103311116E+02  0.29523179998E+02  0.18940408247E+03  0.21507077643E+03  0.90981711393E+02 0.  0.
        -24    2    1    2    0    0  0.10098242340E+03 -0.95658676020E+02  0.67633960083E+02  0.17419090771E+03  0.80125449387E+02 0.  0.
         13    1    4    4    0    0  0.21839410552E+02 -0.27890189141E+02  0.60053336343E+02  0.69722490701E+02  0.00000000000E+00 0. -1.
        -14    1    4    4    0    0  0.79143012848E+02 -0.67768486879E+02  0.75806237396E+01  0.10446841701E+03  0.00000000000E+00 0.  1.
        -11    1    3    3    0    0  0.24824978301E+02  0.58560434096E+02  0.84657756570E+02  0.10588928056E+03  0.00000000000E+00 0. -1.
         11    1    3    3    0    0  0.10278332815E+02 -0.29037254098E+02  0.10474632590E+03  0.10918149587E+03  0.00000000000E+00 0.  1.
          2    1    1    2  501    0 -0.13608573452E+03  0.66135496022E+02  0.17670389776E+03  0.23263167982E+03  0.00000000000E+00 0. -1.
<scales pt_clust_5="13000.00000" pt_clust_6="13000.00000" pt_clust_7="13000.00000" pt_clust_8="13000.00000" pt_clust_9="142.03342"></scales>
<clustering>
<clus scale="   80.125">  5  6 -1 -1</clus>
<clus scale="   90.982">  7  8 -1 -1</clus>
<clus scale="  101.890">  1  7  2 -1</clus>
<clus scale="  142.033">  2  9  1 -1</clus>
<clus scale="  142.033">  2  5  1 -1</clus>
</clustering>
</event>
<event>
 9    1  0.8429841E-005  0.1191212E+03  0.7546771E-02  0.1246997E+00
         21   -1    0    0  501  502  0.00000000000E+00  0.00000000000E+00  0.35612311892E+02  0.35612311892E+02  0.00000000000E+00 0. -1.
          1   -1    0    0  502    0 -0.00000000000E+00 -0.00000000000E+00 -0.61319406525E+03  0.61319406525E+03  0.00000000000E+00 0. -1.
         23    2    1    2    0    0  0.78853631827E+01  0.79908188112E+02 -0.40705682471E+03  0.42495078781E+03  0.91871736857E+02 0.  0.
        -24    2    1    2    0    0 -0.36766314071E+02 -0.60678989548E+02 -0.13354027416E+03  0.17314330217E+03  0.84332061765E+02 0.  0.
         11    1    4    4    0    0 -0.56015726216E+02 -0.35768281500E+02 -0.47967865688E+02  0.81963697353E+02  0.00000000000E+00 0. -1.
        -12    1    4    4    0    0  0.19249412145E+02 -0.24910708048E+02 -0.85572408475E+02  0.91179604822E+02  0.00000000000E+00 0.  1.
        -11    1    3    3    0    0 -0.32629964197E+02  0.45746960764E+01 -0.16412849370E+03  0.16740312079E+03  0.00000000000E+00 0.  1.
         11    1    3    3    0    0  0.40515327380E+02  0.75333492035E+02 -0.24292833102E+03  0.25754766702E+03  0.00000000000E+00 0. -1.
          2    1    1    2  501    0  0.28880950889E+02 -0.19229198564E+02 -0.36984654479E+02  0.50712287156E+02  0.00000000000E+00 0. -1.
<scales pt_clust_5="13000.00000" pt_clust_6="13000.00000" pt_clust_7="13000.00000" pt_clust_8="13000.00000" pt_clust_9="34.69685"></scales>
<clustering>
<clus scale="   34.697">  1  9  2 -1</clus>
<clus scale="   84.332">  5  6 -1 -1</clus>
<clus scale="   91.872">  7  8 -1 -1</clus>
<clus scale="  113.408">  1  5  2 -1</clus>
<clus scale="   34.697">  1  5  2 -1</clus>
</clustering>
</event>
<event>
 9    1  0.8429841E-005  0.1023826E+03  0.7546771E-02  0.1277686E+00
          3   -1    0    0  502    0 -0.00000000000E+00  0.00000000000E+00  0.27918563254E+03  0.27918563254E+03  0.00000000000E+00 0. -1.
         21   -1    0    0  501  502  0.00000000000E+00 -0.00000000000E+00 -0.25648192746E+03  0.25648192746E+03  0.00000000000E+00 0. -1.
         23    2    1    2    0    0 -0.38244388362E+02  0.37554090900E+02  0.80056819437E+02  0.12669438196E+03  0.82276540381E+02 0.  0.
        -24    2    1    2    0    0  0.96655253032E+02 -0.88652651986E+02 -0.19726189016E+03  0.24898143575E+03  0.76667929374E+02 0.  0.
         13    1    4    4    0    0  0.96960864334E+02 -0.48132854772E+02 -0.11912495888E+03  0.16096253213E+03  0.00000000000E+00 0. -1.
        -14    1    4    4    0    0 -0.30561130193E+00 -0.40519797214E+02 -0.78136931279E+02  0.88018903619E+02  0.00000000000E+00 0.  1.
        -11    1    3    3    0    0 -0.60168735310E+02  0.39663143729E+02  0.43980431710E+02  0.84425825745E+02  0.00000000000E+00 0. -1.
         11    1    3    3    0    0  0.21924346949E+02 -0.21090528291E+01  0.36076387727E+02  0.42268556214E+02  0.00000000000E+00 0.  1.
          4    1    1    2  501    0 -0.58410864670E+02  0.51098561085E+02  0.13990877581E+03  0.15999174230E+03  0.00000000000E+00 0. -1.
<scales pt_clust_5="13000.00000" pt_clust_6="13000.00000" pt_clust_7="13000.00000" pt_clust_8="13000.00000" pt_clust_9="77.60733"></scales>
<clustering>
<clus scale="   76.668">  5  6 -1 -1</clus>
<clus scale="   77.607">  2  9  1 -1</clus>
<clus scale="   82.277">  7  8 -1 -1</clus>
<clus scale="   97.932">  2  5  1 -1</clus>
<clus scale="   77.607">  2  5  1 -1</clus>
</clustering>
</event>
<event>
 9    1  0.8429841E-005  0.9954649E+02  0.7546771E-02  0.1281450E+00
          3   -1    0    0  502    0 -0.00000000000E+00  0.00000000000E+00  0.37624638698E+03  0.37624638698E+03  0.00000000000E+00 0. -1.
         21   -1    0    0  501  502  0.00000000000E+00 -0.00000000000E+00 -0.21001987490E+03  0.21001987490E+03  0.00000000000E+00 0.  1.
         23    2    1    2    0    0  0.46890322125E+02  0.30763909296E+02  0.34555477348E+03  0.35971589664E+03  0.82718222879E+02 0.  0.
        -24    2    1    2    0    0 -0.48961310325E+02 -0.71938360045E+01 -0.81603298494E+02  0.12600184101E+03  0.82270313168E+02 0.  0.
         11    1    4    4    0    0 -0.57024250668E+02 -0.41880481081E+01 -0.15364142324E+02  0.59206095806E+02  0.00000000000E+00 0. -1.
        -12    1    4    4    0    0  0.80629403433E+01 -0.30057878965E+01 -0.66239156169E+02  0.66795745208E+02  0.00000000000E+00 0.  1.
        -11    1    3    3    0    0  0.33197179860E+02 -0.23893102583E+02  0.18774110137E+03  0.19214487827E+03  0.00000000000E+00 0.  1.
         11    1    3    3    0    0  0.13693142265E+02  0.54657011879E+02  0.15781367211E+03  0.16757101837E+03  0.00000000000E+00 0. -1.
          4    1    1    2  501    0  0.20709881999E+01 -0.23570073292E+02 -0.97724962916E+02  0.10054852423E+03  0.00000000000E+00 0. -1.
<scales pt_clust_5="13000.00000" pt_clust_6="13000.00000" pt_clust_7="13000.00000" pt_clust_8="13000.00000" pt_clust_9="23.66088"></scales>
<clustering>
<clus scale="   23.661">  2  9  1 -1</clus>
<clus scale="   82.270">  5  6 -1 -1</clus>
<clus scale="   82.718">  7  8 -1 -1</clus>
<clus scale="   99.175">  2  5  1 -1</clus>
<clus scale="   23.661">  2  5  1 -1</clus>
</clustering>
</event>
<event>
 9    1  0.8429841E-005  0.1516009E+03  0.7546771E-02  0.1216461E+00
          1   -1    0    0  502    0 -0.00000000000E+00  0.00000000000E+00  0.11782552315E+03  0.11782552315E+03  0.00000000000E+00 0. -1.
         21   -1    0    0  501  502  0.00000000000E+00 -0.00000000000E+00 -0.10180723082E+04  0.10180723082E+04  0.00000000000E+00 0. -1.
        -24    2    1    2    0    0  0.40024077913E+02 -0.49787580802E+02 -0.15905348580E+03  0.18958961635E+03  0.81027657426E+02 0.  0.
         23    2    1    2    0    0 -0.60591406886E+02 -0.66832212248E+02  0.53563610867E+02  0.14277742073E+03  0.96842492113E+02 0.  0.
         11    1    3    3    0    0  0.26450623819E+02 -0.40539234557E+02 -0.24899475607E+02  0.54433894995E+02  0.00000000000E+00 0. -1.
        -12    1    3    3    0    0  0.13573454094E+02 -0.92483462451E+01 -0.13415401019E+03  0.13515572135E+03  0.00000000000E+00 0.  1.
        -11    1    4    4    0    0 -0.41394469438E+02  0.15898586726E+02  0.41911941330E+01  0.44540243243E+02  0.00000000000E+00 0.  1.
         11    1    4    4    0    0 -0.19196937448E+02 -0.82730798974E+02  0.49372416734E+02  0.98237177486E+02  0.00000000000E+00 0. -1.
          2    1    1    2  501    0  0.20567328972E+02  0.11661979305E+03 -0.79475691008E+03  0.80353079423E+03  0.00000000000E+00 0. -1.
<scales pt_clust_5="13000.00000" pt_clust_6="13000.00000" pt_clust_7="13000.00000" pt_clust_8="13000.00000" pt_clust_9="116.63771"></scales>
<clustering>
<clus scale="   81.028">  5  6 -1 -1</clus>
<clus scale="   96.842">  7  8 -1 -1</clus>
<clus scale="  103.181">  1  5  2 -1</clus>
<clus scale="  116.638">  2  9  1 -1</clus>
<clus scale="  116.638">  2  5  1 -1</clus>
</clustering>
</event>
<event>
 9    1  0.8429841E-005  0.1225120E+03  0.7546771E-02  0.1243014E+00
         21   -1    0    0  501  502  0.00000000000E+00  0.00000000000E+00  0.62193823253E+02  0.62193823253E+02  0.00000000000E+00 0. -1.
          1   -1    0    0  502    0 -0.00000000000E+00 -0.00000000000E+00 -0.54282837884E+03  0.54282837884E+03  0.00000000000E+00 0. -1.
         23    2    1    2    0    0  0.18127683425E+02 -0.56551687964E+02 -0.14196955514E+03  0.17860658906E+03  0.90654579307E+02 0.  0.
        -24    2    1    2    0    0  0.70806810754E+02  0.11257728671E+03 -0.20918408564E+03  0.25964175636E+03  0.77256779835E+02 0.  0.
         11    1    4    4    0    0  0.24984797428E+02  0.81239573555E+02 -0.17473030978E+03  0.19430591748E+03  0.00000000000E+00 0. -1.
        -12    1    4    4    0    0  0.45822013326E+02  0.31337713159E+02 -0.34453775861E+02  0.65335838882E+02  0.00000000000E+00 0.  1.
        -13    1    3    3    0    0 -0.95279201382E+01 -0.72158166081E+02 -0.11870021691E+03  0.13923837003E+03  0.00000000000E+00 0. -1.
         13    1    3    3    0    0  0.27655603563E+02  0.15606478117E+02 -0.23269338237E+02  0.39368219030E+02  0.00000000000E+00 0.  1.
          2    1    1    2  501    0 -0.88934494179E+02 -0.56025598751E+02 -0.12948091481E+03  0.16677385667E+03  0.00000000000E+00 0. -1.
<scales pt_clust_5="13000.00000" pt_clust_6="13000.00000" pt_clust_7="13000.00000" pt_clust_8="13000.00000" pt_clust_9="105.11048"></scales>
<clustering>
<clus scale="   77.257">  5  6 -1 -1</clus>
<clus scale="   90.655">  7  8 -1 -1</clus>
<clus scale="  105.110">  1  9  2 -1</clus>
<clus scale="  112.958">  1  5  2 -1</clus>
<clus scale="  105.110">  1  5  2 -1</clus>
</clustering>
</event>
<event>
 9    1  0.8429841E-005  0.1020609E+03  0.7546771E-02  0.1280836E+00
         21   -1    0    0  501  502  0.00000000000E+00  0.00000000000E+00  0.24914958247E+03  0.24914958247E+03  0.00000000000E+00 0.  1.
          3   -1    0    0  502    0 -0.00000000000E+00 -0.00000000000E+00 -0.20473415667E+03  0.20473415667E+03  0.00000000000E+00 0. -1.
        -24    2    1    2    0    0 -0.51622300559E+02  0.71704036278E+01 -0.75888968333E+02  0.12169307068E+03  0.79585120050E+02 0.  0.
         23    2    1    2    0    0 -0.28196894976E+01 -0.78848749865E+02  0.18573118515E+03  0.22091452284E+03  0.89900374086E+02 0.  0.
         13    1    3    3    0    0 -0.52613655197E+02 -0.26512429413E+02 -0.34326972274E+02  0.68186851020E+02  0.00000000000E+00 0. -1.
        -14    1    3    3    0    0  0.99135463831E+00  0.33682833041E+02 -0.41561996060E+02  0.53506219658E+02  0.00000000000E+00 0.  1.
        -11    1    4    4    0    0 -0.36739450079E+02 -0.37173306458E+02  0.14302776630E+03  0.15227798212E+03  0.00000000000E+00 0.  1.
         11    1    4    4    0    0  0.33919760581E+02 -0.41675443407E+02  0.42703418852E+02  0.68636540725E+02  0.00000000000E+00 0. -1.
          4    1    1    2  501    0  0.54441990056E+02  0.71678346237E+02 -0.65426791017E+02  0.11127614562E+03  0.00000000000E+00 0. -1.
<scales pt_clust_5="13000.00000" pt_clust_6="13000.00000" pt_clust_7="13000.00000" pt_clust_8="13000.00000" pt_clust_9="90.00958"></scales>
<clustering>
<clus scale="   79.585">  5  6 -1 -1</clus>
<clus scale="   89.900">  7  8 -1 -1</clus>
<clus scale="   90.010">  1  9  2 -1</clus>
<clus scale="   93.103">  2  5  1 -1</clus>
<clus scale="   90.010">  1  5  2 -1</clus>
</clustering>
</event>
<event>
 9    1  0.8429841E-005  0.1683255E+03  0.7546771E-02  0.1197934E+00
         21   -1    0    0  501  502  0.00000000000E+00  0.00000000000E+00  0.41964385708E+03  0.41964385708E+03  0.00000000000E+00 0.  1.
         -2   -1    0    0    0  501 -0.00000000000E+00 -0.00000000000E+00 -0.13441116353E+03  0.13441116353E+03  0.00000000000E+00 0.  1.
         23    2    1    2    0    0  0.30288558011E+02 -0.60815504307E+02  0.21363642267E+02  0.11419203558E+03  0.89260817093E+02 0.  0.
        -24    2    1    2    0    0 -0.12165798359E+03  0.15363162237E+03  0.11117681407E+03  0.23916888195E+03  0.80237956981E+02 0.  0.
         11    1    4    4    0    0 -0.10816778872E+01  0.42922672125E+02  0.31657961225E+01  0.43052852106E+02  0.00000000000E+00 0. -1.
        -12    1    4    4    0    0 -0.12057630571E+03  0.11070895025E+03  0.10801101794E+03  0.19611602984E+03  0.00000000000E+00 0.  1.
        -11    1    3    3    0    0 -0.21872902620E+02 -0.53643322051E+02  0.20752850305E+02  0.61536254886E+02  0.00000000000E+00 0. -1.
         11    1    3    3    0    0  0.52161460631E+02 -0.71721822559E+01  0.61079196190E+00  0.52655780692E+02  0.00000000000E+00 0.  1.
         -1    1    1    2    0  502  0.91369425584E+02 -0.92816118065E+02  0.15269223723E+03  0.20069410308E+03  0.00000000000E+00 0.  1.
<scales pt_clust_5="13000.00000" pt_clust_6="13000.00000" pt_clust_7="13000.00000" pt_clust_8="13000.00000" pt_clust_9="147.97076"></scales>
<clustering>
<clus scale="   80.238">  5  6 -1 -1</clus>
<clus scale="   89.261">  7  8 -1 -1</clus>
<clus scale="  112.176">  2  7  1 -1</clus>
<clus scale="  147.971">  1  9  2 -1</clus>
<clus scale="  147.971">  1  5  2 -1</clus>
</clustering>
</event>
<event>
 9    1  0.9602032E-005  0.1055730E+03  0.7546771E-02  0.1272360E+00
         -4   -1    0    0    0  501 -0.00000000000E+00  0.00000000000E+00  0.39241982235E+03  0.39241982235E+03  0.00000000000E+00 0.  1.
         21   -1    0    0  501  502  0.00000000000E+00 -0.00000000000E+00 -0.84960501058E+02  0.84960501058E+02  0.00000000000E+00 0. -1.
         23    2    1    2    0    0 -0.30993828161E+02 -0.28075477639E+01  0.43047185432E+02  0.10379174484E+03  0.89169313186E+02 0.  0.
        -24    2    1    2    0    0  0.81527821981E+02  0.60984328749E+02  0.39867528682E+02  0.13618911987E+03  0.81192255903E+02 0.  0.
         13    1    4    4    0    0  0.92070436881E+02  0.46146755398E+02  0.13097508181E+02  0.10381730637E+03  0.00000000000E+00 0. -1.
        -14    1    4    4    0    0 -0.10542614900E+02  0.14837573351E+02  0.26770020501E+02  0.32371813503E+02  0.00000000000E+00 0.  1.
        -11    1    3    3    0    0 -0.18863530923E+02  0.37070890038E+02  0.45985159813E+02  0.62005794972E+02  0.00000000000E+00 0. -1.
         11    1    3    3    0    0 -0.12130297238E+02 -0.39878437802E+02 -0.29379743803E+01  0.41785949865E+02  0.00000000000E+00 0.  1.
         -3    1    1    2    0  502 -0.50533993820E+02 -0.58176780985E+02  0.22454460718E+03  0.23739945870E+03  0.00000000000E+00 0.  1.
<scales pt_clust_5="13000.00000" pt_clust_6="13000.00000" pt_clust_7="13000.00000" pt_clust_8="13000.00000" pt_clust_9="77.05990"></scales>
<clustering>
<clus scale="   77.060">  2  9  1 -1</clus>
<clus scale="   81.192">  5  6 -1 -1</clus>
<clus scale="   89.169">  7  8 -1 -1</clus>
<clus scale="   98.928">  2  5  1 -1</clus>
<clus scale="   77.060">  2  5  1 -1</clus>
</clustering>
</event>
<event>
 9    1  0.8429841E-005  0.1124413E+03  0.7546771E-02  0.1259081E+00
         21   -1    0    0  501  502  0.00000000000E+00  0.00000000000E+00  0.83613026279E+03  0.83613026279E+03  0.00000000000E+00 0. -1.
         -4   -1    0    0    0  501 -0.00000000000E+00 -0.00000000000E+00 -0.48164421438E+02  0.48164421438E+02  0.00000000000E+00 0.  1.
         23    2    1    2    0    0 -0.44464701062E+02  0.55574836389E+02  0.12584074630E+03  0.17006861964E+03  0.89564333718E+02 0.  0.
        -24    2    1    2    0    0  0.73414332316E+02 -0.52505086627E+01  0.64417815533E+03  0.65345837782E+03  0.81394862901E+02 0.  0.
         11    1    4    4    0    0  0.83388919994E+02  0.11855199275E+02  0.41714925939E+03  0.42556757670E+03  0.00000000000E+00 0. -1.
        -12    1    4    4    0    0 -0.99745876782E+01 -0.17105707938E+02  0.22702889594E+03  0.22789080112E+03  0.00000000000E+00 0.  1.
        -11    1    3    3    0    0  0.14838522732E+02  0.49533735378E+02  0.78248783202E+02  0.93790430055E+02  0.00000000000E+00 0.  1.
         11    1    3    3    0    0 -0.59303223794E+02  0.60411010106E+01  0.47591963103E+02  0.76278189581E+02  0.00000000000E+00 0. -1.
         -3    1    1    2    0  502 -0.28949631254E+02 -0.50324327726E+02  0.17946939720E+02  0.60767686776E+02  0.00000000000E+00 0.  1.
<scales pt_clust_5="13000.00000" pt_clust_6="13000.00000" pt_clust_7="13000.00000" pt_clust_8="13000.00000" pt_clust_9="58.05706"></scales>
<clustering>
<clus scale="   58.057">  1  9  2 -1</clus>
<clus scale="   81.395">  5  6 -1 -1</clus>
<clus scale="   89.564">  7  8 -1 -1</clus>
<clus scale="  106.049">  1  5  2 -1</clus>
<clus scale="   58.057">  1  5  2 -1</clus>
</clustering>
</event>
<event>
 9    1  0.8429841E-005  0.1824234E+03  0.7546771E-02  0.1196300E+00
         -2   -1    0    0    0  501 -0.00000000000E+00  0.00000000000E+00  0.42224760331E+03  0.42224760331E+03  0.00000000000E+00 0.  1.
         21   -1    0    0  501  502  0.00000000000E+00 -0.00000000000E+00 -0.30884043780E+03  0.30884043780E+03  0.00000000000E+00 0.  1.
        -24    2    1    2    0    0 -0.94153952449E+01  0.42650875192E+02  0.11524625161E+03  0.14704451805E+03  0.80203771474E+02 0.  0.
         23    2    1    2    0    0  0.57363573640E+02  0.11061827050E+03  0.24481739193E+03  0.28971398498E+03  0.92041601189E+02 0.  0.
         13    1    3    3    0    0  0.30548818432E+02  0.32231083887E+01  0.20551606926E+02  0.36959265179E+02  0.00000000000E+00 0. -1.
        -14    1    3    3    0    0 -0.39964213677E+02  0.39427766804E+02  0.94694644679E+02  0.11008525288E+03  0.00000000000E+00 0.  1.
        -11    1    4    4    0    0  0.28676306622E+02  0.26843907816E+01  0.11460271604E+03  0.11816648864E+03  0.00000000000E+00 0. -1.
         11    1    4    4    0    0  0.28687267018E+02  0.10793387971E+03  0.13021467590E+03  0.17154749633E+03  0.00000000000E+00 0.  1.
         -1    1    1    2    0  502 -0.47948178395E+02 -0.15326914569E+03 -0.24665647803E+03  0.29432953808E+03  0.00000000000E+00 0.  1.
<scales pt_clust_5="13000.00000" pt_clust_6="13000.00000" pt_clust_7="13000.00000" pt_clust_8="13000.00000" pt_clust_9="157.50119"></scales>
<clustering>
<clus scale="   80.204">  5  6 -1 -1</clus>
<clus scale="   91.326">  1  5  2 -1</clus>
<clus scale="   92.042">  7  8 -1 -1</clus>
<clus scale="  157.501">  2  9  1 -1</clus>
<clus scale="  157.501">  2  5  1 -1</clus>
</clustering>
</event>
<event>
 9    1  0.8429841E-005  0.1286306E+03  0.7546771E-02  0.1244447E+00
          1   -1    0    0  502    0 -0.00000000000E+00  0.00000000000E+00  0.47789515072E+03  0.47789515072E+03  0.00000000000E+00 0. -1.
         21   -1    0    0  501  502  0.00000000000E+00 -0.00000000000E+00 -0.75011559235E+02  0.75011559235E+02  0.00000000000E+00 0. -1.
         23    2    1    2    0    0  0.29496787505E+02 -0.26274088210E+02  0.42401619915E+02  0.10386037768E+03  0.86189863073E+02 0.  0.
        -24    2    1    2    0    0  0.76727250843E+02  0.11001193315E+02  0.31195272370E+03  0.33126732081E+03  0.80096434013E+02 0.  0.
         11    1    4    4    0    0  0.70266847404E+02  0.37912759338E+02  0.26497992508E+03  0.27674748031E+03  0.00000000000E+00 0. -1.
        -12    1    4    4    0    0  0.64604034392E+01 -0.26911566022E+02  0.46972798620E+02  0.54519840504E+02  0.00000000000E+00 0.  1.
        -13    1    3    3    0    0  0.57215541918E+02 -0.52227981019E+01  0.37747383858E+02  0.68744169535E+02  0.00000000000E+00 0. -1.
         13    1    3    3    0    0 -0.27718754412E+02 -0.21051290108E+02  0.46542360567E+01  0.35116208148E+02  0.00000000000E+00 0.  1.
          2    1    1    2  501    0 -0.10622403835E+03  0.15272894895E+02  0.48529247878E+02  0.11777901146E+03  0.00000000000E+00 0. -1.
<scales pt_clust_5="13000.00000" pt_clust_6="13000.00000" pt_clust_7="13000.00000" pt_clust_8="13000.00000" pt_clust_9="100.64988"></scales>
<clustering>
<clus scale="   80.096">  5  6 -1 -1</clus>
<clus scale="   86.190">  7  8 -1 -1</clus>
<clus scale="   94.811">  1  7  2 -1</clus>
<clus scale="  100.650">  2  9  1 -1</clus>
<clus scale="  100.650">  2  5  1 -1</clus>
</clustering>
</event>
<event>
 9    1  0.8429841E-005  0.2192565E+03  0.7546771E-02  0.1166417E+00
         21   -1    0    0  501  502  0.00000000000E+00  0.00000000000E+00  0.16517986057E+03  0.16517986057E+03  0.00000000000E+00 0.  1.
          1   -1    0    0  502    0 -0.00000000000E+00 -0.00000000000E+00 -0.18409456382E+04  0.18409456382E+04  0.00000000000E+00 0. -1.
         23    2    1    2    0    0 -0.34231807532E+02 -0.39303932322E+02 -0.13404174602E+03  0.16893469187E+03  0.88629141349E+02 0.  0.
        -24    2    1    2    0    0 -0.17484567674E+03  0.10078473796E+03  0.55065931979E+02  0.22559797009E+03  0.84460719633E+02 0.  0.
         11    1    4    4    0    0 -0.68440127371E+02  0.53809649240E+02  0.65309948281E+02  0.10883436374E+03  0.00000000000E+00 0. -1.
        -12    1    4    4    0    0 -0.10640554937E+03  0.46975088724E+02 -0.10244016302E+02  0.11676360635E+03  0.00000000000E+00 0.  1.
        -11    1    3    3    0    0 -0.37987510201E+02  0.45654159378E+01 -0.13449544123E+02  0.40555939035E+02  0.00000000000E+00 0.  1.
         11    1    3    3    0    0  0.37557026690E+01 -0.43869348259E+02 -0.12059220190E+03  0.12837875283E+03  0.00000000000E+00 0. -1.
          2    1    1    2  501    0  0.20907748427E+03 -0.61480805642E+02 -0.15967899636E+04  0.16115928369E+04  0.00000000000E+00 0. -1.
<scales pt_clust_5="13000.00000" pt_clust_6="13000.00000" pt_clust_7="13000.00000" pt_clust_8="13000.00000" pt_clust_9="202.33596"></scales>
<clustering>
<clus scale="   84.461">  5  6 -1 -1</clus>
<clus scale="   88.629">  7  8 -1 -1</clus>
<clus scale="  102.819">  2  7  1 -1</clus>
<clus scale="  202.336">  1  9  2 -1</clus>
<clus scale="  202.336">  1  5  2 -1</clus>
</clustering>
</event>
<event>
 9    1  0.8429841E-005  0.1258090E+03  0.7546771E-02  0.1237971E+00
         -4   -1    0    0    0  501 -0.00000000000E+00  0.00000000000E+00  0.58101252079E+03  0.58101252079E+03  0.00000000000E+00 0.  1.
         21   -1    0    0  501  502  0.00000000000E+00 -0.00000000000E+00 -0.12953058074E+03  0.12953058074E+03  0.00000000000E+00 0. -1.
        -24    2    1    2    0    0  0.84056991508E+02 -0.70243939633E+01  0.89396198063E+02  0.14609340335E+03  0.78972668318E+02 0.  0.
         23    2    1    2    0    0  0.46512278101E+02  0.68270321815E+02 -0.46216011162E+02  0.13142577336E+03  0.91173380764E+02 0.  0.
         13    1    3    3    0    0  0.98138366525E+02 -0.28355861266E+01  0.65434829360E+02  0.11798684853E+03  0.00000000000E+00 0. -1.
        -14    1    3    3    0    0 -0.14081375017E+02 -0.41888078366E+01  0.23961368703E+02  0.28106554816E+02  0.00000000000E+00 0.  1.
        -13    1    4    4    0    0  0.11152312692E+02  0.80926128081E+02 -0.46238643849E+02  0.93869188073E+02  0.00000000000E+00 0. -1.
         13    1    4    4    0    0  0.35359965409E+02 -0.12655806266E+02  0.22632686243E-01  0.37556585284E+02  0.00000000000E+00 0.  1.
         -3    1    1    2    0  502 -0.13056926961E+03 -0.61245927852E+02  0.40830175315E+03  0.43302392483E+03  0.00000000000E+00 0.  1.
<scales pt_clust_5="13000.00000" pt_clust_6="13000.00000" pt_clust_7="13000.00000" pt_clust_8="13000.00000" pt_clust_9="86.69096"></scales>
<clustering>
<clus scale="   78.973">  5  6 -1 -1</clus>
<clus scale="   91.173">  7  8 -1 -1</clus>
<clus scale="  115.549">  1  5  2 -1</clus>
<clus scale="   86.691">  2  9  1 -1</clus>
<clus scale="   86.691">  2  5  1 -1</clus>
</clustering>
</event>
<event>
 9    1  0.8429841E-005  0.2111057E+03  0.7546771E-02  0.1141459E+00
         21   -1    0    0  501  502  0.00000000000E+00  0.00000000000E+00  0.10491680635E+03  0.10491680635E+03  0.00000000000E+00 0. -1.
         -4   -1    0    0    0  501 -0.00000000000E+00 -0.00000000000E+00 -0.10594427780E+04  0.10594427780E+04  0.00000000000E+00 0.  1.
         23    2    1    2    0    0  0.14881056072E+03 -0.89308493955E+02 -0.52948266498E+03  0.56432007475E+03  0.89356948112E+02 0.  0.
        -24    2    1    2    0    0 -0.16841310679E+03  0.21604851572E+03 -0.22939950631E+03  0.36610834547E+03  0.79820119280E+02 0.  0.
         13    1    4    4    0    0 -0.17322894199E+03  0.21804657334E+03 -0.22954473214E+03  0.36089244733E+03  0.00000000000E+00 0. -1.
        -14    1    4    4    0    0  0.48158351942E+01 -0.19980576153E+01  0.14522583266E+00  0.52158981387E+01  0.00000000000E+00 0.  1.
        -11    1    3    3    0    0  0.11181663162E+03 -0.18393730234E+02 -0.27079369343E+03  0.29354814396E+03  0.00000000000E+00 0.  1.
         11    1    3    3    0    0  0.36993929103E+02 -0.70914763721E+02 -0.25868897154E+03  0.27077193079E+03  0.00000000000E+00 0. -1.
         -3    1    1    2    0  502  0.19602546071E+02 -0.12674002177E+03 -0.19564380039E+03  0.23393116415E+03  0.00000000000E+00 0.  1.
<scales pt_clust_5="13000.00000" pt_clust_6="13000.00000" pt_clust_7="13000.00000" pt_clust_8="13000.00000" pt_clust_9="128.24706"></scales>
<clustering>
<clus scale="   79.820">  5  6 -1 -1</clus>
<clus scale="   89.357">  7  8 -1 -1</clus>
<clus scale="  128.247">  1  9  2 -1</clus>
<clus scale="  207.249">  1  5  2 -1</clus>
<clus scale="  128.247">  1  5  2 -1</clus>
</clustering>
</event>
<event>
 9    1  0.8429841E-005  0.9849567E+02  0.7546771E-02  0.1289520E+00
          1   -1    0    0  502    0 -0.00000000000E+00  0.00000000000E+00  0.34871170385E+03  0.34871170385E+03  0.00000000000E+00 0. -1.
         21   -1    0    0  501  502  0.00000000000E+00 -0.00000000000E+00 -0.45783581230E+02  0.45783581230E+02  0.00000000000E+00 0. -1.
         23    2    1    2    0    0 -0.37766247934E+02  0.86899783187E+00  0.19850666127E+03  0.22177605129E+03  0.91392985057E+02 0.  0.
        -24    2    1    2    0    0  0.29620784107E+02  0.35811303835E+02  0.45943226142E+02  0.10321026239E+03  0.79885780346E+02 0.  0.
         11    1    4    4    0    0  0.17318648569E+02  0.11017204113E+02 -0.21853363338E+02  0.29981391961E+02  0.00000000000E+00 0. -1.
        -12    1    4    4    0    0  0.12302135538E+02  0.24794099722E+02  0.67796589479E+02  0.73228870433E+02  0.00000000000E+00 0.  1.
        -13    1    3    3    0    0 -0.47146783874E+02  0.31912974799E+02  0.16748847035E+03  0.17690009862E+03  0.00000000000E+00 0. -1.
         13    1    3    3    0    0  0.93805359410E+01 -0.31043976967E+02  0.31018190917E+02  0.44875952672E+02  0.00000000000E+00 0.  1.
          2    1    1    2  501    0  0.81454638262E+01 -0.36680301667E+02  0.58478235201E+02  0.69508971389E+02  0.00000000000E+00 0. -1.
<scales pt_clust_5="13000.00000" pt_clust_6="13000.00000" pt_clust_7="13000.00000" pt_clust_8="13000.00000" pt_clust_9="37.57385"></scales>
<clustering>
<clus scale="   37.574">  2  9  1 -1</clus>
<clus scale="   79.886">  5  6 -1 -1</clus>
<clus scale="   87.923">  2  5  1 -1</clus>
<clus scale="   91.393">  7  8 -1 -1</clus>
<clus scale="   37.574">  2  5  1 -1</clus>
</clustering>
</event>
<event>
 9    1  0.8429841E-005  0.1100809E+03  0.7546771E-02  0.1266394E+00
         21   -1    0    0  501  502  0.00000000000E+00  0.00000000000E+00  0.10574865006E+03  0.10574865006E+03  0.00000000000E+00 0. -1.
          1   -1    0    0  502    0 -0.00000000000E+00 -0.00000000000E+00 -0.20613852342E+03  0.20613852342E+03  0.00000000000E+00 0. -1.
        -24    2    1    2    0    0  0.17447785731E+02 -0.65565141367E+02 -0.10460823219E+03  0.14499546380E+03  0.74010737680E+02 0.  0.
         23    2    1    2    0    0 -0.35066571239E+02  0.48757893625E+02 -0.41206253019E+02  0.11535239905E+03  0.89449561590E+02 0.  0.
         13    1    3    3    0    0  0.34767463548E+02 -0.72208907098E+02 -0.73322292456E+02  0.10862348437E+03  0.00000000000E+00 0. -1.
        -14    1    3    3    0    0 -0.17319677817E+02  0.66437657313E+01 -0.31285939730E+02  0.36371979429E+02  0.00000000000E+00 0.  1.
        -11    1    4    4    0    0  0.15310253719E+01 -0.25188040465E+02 -0.96955231965E+01  0.27033027785E+02  0.00000000000E+00 0. -1.
         11    1    4    4    0    0 -0.36597596611E+02  0.73945934089E+02 -0.31510729822E+02  0.88319371261E+02  0.00000000000E+00 0.  1.
          2    1    1    2  501    0  0.17618785508E+02  0.16807247742E+02  0.45424611849E+02  0.51539310638E+02  0.00000000000E+00 0. -1.
<scales pt_clust_5="13000.00000" pt_clust_6="13000.00000" pt_clust_7="13000.00000" pt_clust_8="13000.00000" pt_clust_9="24.34964"></scales>
<clustering>
<clus scale="   24.350">  1  9  2 -1</clus>
<clus scale="   74.011">  5  6 -1 -1</clus>
<clus scale="   89.450">  7  8 -1 -1</clus>
<clus scale="   97.950">  2  5  1 -1</clus>
<clus scale="   24.350">  1  5  2 -1</clus>
</clustering>
</event>
<event>
 9    1  0.8429841E-005  0.2757771E+03  0.7546771E-02  0.1099252E+00
         21   -1    0    0  501  502  0.00000000000E+00  0.00000000000E+00  0.31563407057E+03  0.31563407057E+03  0.00000000000E+00 0.  1.
          1   -1    0    0  502    0 -0.00000000000E+00 -0.00000000000E+00 -0.54628957686E+03  0.54628957686E+03  0.00000000000E+00 0. -1.
        -24    2    1    2    0    0  0.21715980993E+03  0.65774176015E+02 -0.23297204664E+03  0.33456067397E+03  0.78550905611E+02 0.  0.
         23    2    1    2    0    0 -0.34615539627E+03 -0.12646743542E+03  0.20846202838E+02  0.38360316884E+03  0.10439950375E+03 0.  0.
         13    1    3    3    0    0  0.20369010715E+03  0.70625408486E+02 -0.23629446583E+03  0.31986353756E+03  0.00000000000E+00 0. -1.
        -14    1    3    3    0    0  0.13469702782E+02 -0.48512324712E+01  0.33224191927E+01  0.14697136415E+02  0.00000000000E+00 0.  1.
        -11    1    4    4    0    0 -0.32399597736E+02 -0.35017783841E+02 -0.24550840163E+02  0.53653731197E+02  0.00000000000E+00 0. -1.
         11    1    4    4    0    0 -0.31375579853E+03 -0.91449651584E+02  0.45397043001E+02  0.32994943764E+03  0.00000000000E+00 0.  1.
          2    1    1    2  501    0  0.12899558634E+03  0.60693259410E+02 -0.18529662488E+02  0.14375980462E+03  0.00000000000E+00 0. -1.
<scales pt_clust_5="13000.00000" pt_clust_6="13000.00000" pt_clust_7="13000.00000" pt_clust_8="13000.00000" pt_clust_9="142.56063"></scales>
<clustering>
<clus scale="   78.551">  5  6 -1 -1</clus>
<clus scale="  104.400">  7  8 -1 -1</clus>
<clus scale="  142.561">  1  9  2 -1</clus>
<clus scale="  267.066">  2  5  1 -1</clus>
<clus scale="  142.561">  1  5  2 -1</clus>
</clustering>
</event>
<event>
 9    1  0.8429841E-005  0.2397981E+03  0.7546771E-02  0.1153824E+00
         21   -1    0    0  501  502  0.00000000000E+00  0.00000000000E+00  0.11814401794E+04  0.11814401794E+04  0.00000000000E+00 0. -1.
          1   -1    0    0  502    0 -0.00000000000E+00 -0.00000000000E+00 -0.10379244295E+03  0.10379244295E+03  0.00000000000E+00 0. -1.
        -24    2    1    2    0    0  0.59107764183E+02  0.10718435744E+02  0.35061119493E+02  0.11104178161E+03  0.86558549617E+02 0.  0.
         23    2    1    2    0    0  0.10857583121E+03  0.15067799036E+03  0.16127489201E+03  0.26266632048E+03  0.92148994662E+02 0.  0.
         11    1    3    3    0    0  0.47307355845E+02  0.49162359556E+01 -0.22058300351E+02  0.52428273931E+02  0.00000000000E+00 0. -1.
        -12    1    3    3    0    0  0.11800408338E+02  0.58021997887E+01  0.57119419844E+02  0.58613507681E+02  0.00000000000E+00 0.  1.
        -11    1    4    4    0    0  0.30291135300E+02 -0.31037960114E+01  0.45923142772E+02  0.55101011510E+02  0.00000000000E+00 0.  1.
         11    1    4    4    0    0  0.78284695910E+02  0.15378178637E+03  0.11535174924E+03  0.20756530896E+03  0.00000000000E+00 0. -1.
          2    1    1    2  501    0 -0.16768359539E+03 -0.16139642610E+03  0.88131172492E+03  0.91152452024E+03  0.00000000000E+00 0. -1.
<scales pt_clust_5="13000.00000" pt_clust_6="13000.00000" pt_clust_7="13000.00000" pt_clust_8="13000.00000" pt_clust_9="221.38589"></scales>
<clustering>
<clus scale="   86.559">  5  6 -1 -1</clus>
<clus scale="   92.149">  7  8 -1 -1</clus>
<clus scale="  105.361">  2  5  1 -1</clus>
<clus scale="  221.386">  1  9  2 -1</clus>
<clus scale="  221.386">  1  5  2 -1</clus>
</clustering>
</event>
<event>
 9    1  0.8429841E-005  0.1036460E+03  0.7546771E-02  0.1277721E+00
          1   -1    0    0  502    0 -0.00000000000E+00  0.00000000000E+00  0.15239783768E+03  0.15239783768E+03  0.00000000000E+00 0. -1.
         21   -1    0    0  501  502  0.00000000000E+00 -0.00000000000E+00 -0.19028297779E+03  0.19028297779E+03  0.00000000000E+00 0.  1.
        -24    2    1    2    0    0 -0.60332615346E+01  0.51104047787E+02  0.94675058679E+02  0.13470315137E+03  0.80830367491E+02 0.  0.
         23    2    1    2    0    0 -0.29026541985E+01 -0.26105248653E+02 -0.14894382895E+03  0.17678128794E+03  0.91528411833E+02 0.  0.
         11    1    3    3    0    0  0.22255108551E+02  0.59275809519E+02  0.79329914671E+02  0.10149949169E+03  0.00000000000E+00 0. -1.
        -12    1    3    3    0    0 -0.28288370086E+02 -0.81717617319E+01  0.15345144008E+02  0.33203659686E+02  0.00000000000E+00 0.  1.
        -11    1    4    4    0    0 -0.32843533734E+02 -0.47406103497E+02 -0.10189595685E+03  0.11708468038E+03  0.00000000000E+00 0. -1.
         11    1    4    4    0    0  0.29940879536E+02  0.21300854844E+02 -0.47047872104E+02  0.59696607558E+02  0.00000000000E+00 0.  1.
          2    1    1    2  501    0  0.89359157331E+01 -0.24998799134E+02  0.16383630161E+02  0.31196376158E+02  0.00000000000E+00 0. -1.
<scales pt_clust_5="13000.00000" pt_clust_6="13000.00000" pt_clust_7="13000.00000" pt_clust_8="13000.00000" pt_clust_9="26.54790"></scales>
<clustering>
<clus scale="   26.548">  2  9  1 -1</clus>
<clus scale="   80.830">  5  6 -1 -1</clus>
<clus scale="   91.528">  7  8 -1 -1</clus>
<clus scale="   94.332">  1  5  2 -1</clus>
<clus scale="   26.548">  2  5  1 -1</clus>
</clustering>
</event>
<event>
 9    1  0.8429841E-005  0.1169140E+03  0.7546771E-02  0.1270839E+00
         21   -1    0    0  501  502  0.00000000000E+00  0.00000000000E+00  0.11690443423E+03  0.11690443423E+03  0.00000000000E+00 0. -1.
         -2   -1    0    0    0  501 -0.00000000000E+00 -0.00000000000E+00 -0.21034965789E+03  0.21034965789E+03  0.00000000000E+00 0.  1.
        -24    2    1    2    0    0 -0.31586523819E+02 -0.17154207710E+02 -0.48261760321E+02  0.89195044808E+02  0.65837551442E+02 0.  0.
         23    2    1    2    0    0 -0.60615383238E+02 -0.15256879640E+02  0.30076990712E+02  0.11470668133E+03  0.91356446462E+02 0.  0.
         11    1    3    3    0    0 -0.49951088521E+02 -0.34562610988E+01 -0.42236324852E+02  0.65505451088E+02  0.00000000000E+00 0. -1.
        -12    1    3    3    0    0  0.18364564702E+02 -0.13697946611E+02 -0.60254354698E+01  0.23689593721E+02  0.00000000000E+00 0.  1.
        -13    1    4    4    0    0 -0.56411647270E+02 -0.43802407411E+02 -0.21466249840E+01  0.71453011424E+02  0.00000000000E+00 0.  1.
         13    1    4    4    0    0 -0.42037359680E+01  0.28545527772E+02  0.32223615696E+02  0.43253669906E+02  0.00000000000E+00 0. -1.
         -1    1    1    2    0  502  0.92201907058E+02  0.32411087350E+02 -0.75260454057E+02  0.12335236598E+03  0.00000000000E+00 0.  1.
<scales pt_clust_5="13000.00000" pt_clust_6="13000.00000" pt_clust_7="13000.00000" pt_clust_8="13000.00000" pt_clust_9="72.95807"></scales>
<clustering>
<clus scale="   65.838">  5  6 -1 -1</clus>
<clus scale="   75.010">  2  5  1 -1</clus>
<clus scale="   72.958">  1  9  2 -1</clus>
<clus scale="   91.356">  7  8 -1 -1</clus>
<clus scale="   72.958">  1  5  2 -1</clus>
</clustering>
</event>
<event>
 9    1  0.1099837E-004  0.1178010E+03  0.7546771E-02  0.1251715E+00
         21   -1    0    0  501  502  0.00000000000E+00  0.00000000000E+00  0.60976957709E+03  0.60976957709E+03  0.00000000000E+00 0.  1.
          1   -1    0    0  502    0 -0.00000000000E+00 -0.00000000000E+00 -0.14791579242E+03  0.14791579242E+03  0.00000000000E+00 0. -1.
         23    2    1    2    0    0 -0.29552505383E+02 -0.62241327438E+02 -0.40964874266E+02  0.12337489326E+03  0.93786512605E+02 0.  0.
        -24    2    1    2    0    0  0.48938094352E+02  0.91693696252E+02  0.55562626166E+03  0.57081334252E+03  0.79401878749E+02 0.  0.
         13    1    4    4    0    0  0.12350222637E+02  0.67801425102E+02  0.18150047610E+03  0.19414423522E+03  0.00000000000E+00 0. -1.
        -14    1    4    4    0    0  0.36587871715E+02  0.23892271150E+02  0.37412578556E+03  0.37666910730E+03  0.00000000000E+00 0.  1.
        -13    1    3    3    0    0 -0.26462622338E+02 -0.85647897069E+02 -0.20104022010E+02  0.91869496322E+02  0.00000000000E+00 0. -1.
         13    1    3    3    0    0 -0.30898830449E+01  0.23406569631E+02 -0.20860852255E+02  0.31505396934E+02  0.00000000000E+00 0.  1.
          2    1    1    2  501    0 -0.19385588968E+02 -0.29452368814E+02 -0.52807602720E+02  0.63497133742E+02  0.00000000000E+00 0. -1.
<scales pt_clust_5="13000.00000" pt_clust_6="13000.00000" pt_clust_7="13000.00000" pt_clust_8="13000.00000" pt_clust_9="35.25967"></scales>
<clustering>
<clus scale="   35.260">  1  9  2 -1</clus>
<clus scale="   79.402">  5  6 -1 -1</clus>
<clus scale="   93.787">  7  8 -1 -1</clus>
<clus scale="  106.704">  1  5  2 -1</clus>
<clus scale="   35.260">  1  5  2 -1</clus>
</clustering>
</event>
<event>
 9    1  0.8429841E-005  0.9718519E+02  0.7546771E-02  0.1293040E+00
         21   -1    0    0  501  502  0.00000000000E+00  0.00000000000E+00  0.20856268013E+03  0.20856268013E+03  0.00000000000E+00 0.  1.
          1   -1    0    0  502    0 -0.00000000000E+00 -0.00000000000E+00 -0.87907158648E+02  0.87907158648E+02  0.00000000000E+00 0. -1.
         23    2    1    2    0    0  0.18498911450E+02  0.31578087558E+02 -0.32495890990E+00  0.98454905015E+02  0.91399548055E+02 0.  0.
        -24    2    1    2    0    0  0.14747625391E+02 -0.30852620874E+02  0.13642203501E+03  0.16135023518E+03  0.79079391032E+02 0.  0.
         13    1    4    4    0    0 -0.18763156552E+02  0.12412333214E+02  0.78519443262E+02  0.81678791799E+02  0.00000000000E+00 0. -1.
        -14    1    4    4    0    0  0.33510781944E+02 -0.43264954088E+02  0.57902591746E+02  0.79671443376E+02  0.00000000000E+00 0.  1.
        -11    1    3    3    0    0 -0.37867880073E+01  0.54411017640E+02 -0.23122140439E+02  0.59241303012E+02  0.00000000000E+00 0. -1.
         11    1    3    3    0    0  0.22285699457E+02 -0.22832930082E+02  0.22797181529E+02  0.39213602004E+02  0.00000000000E+00 0.  1.
          2    1    1    2  501    0 -0.33246536841E+02 -0.72546668387E+00 -0.15441554614E+02  0.36664698590E+02  0.00000000000E+00 0. -1.
<scales pt_clust_5="13000.00000" pt_clust_6="13000.00000" pt_clust_7="13000.00000" pt_clust_8="13000.00000" pt_clust_9="33.25447"></scales>
<clustering>
<clus scale="   33.254">  1  9  2 -1</clus>
<clus scale="   79.079">  5  6 -1 -1</clus>
<clus scale="   85.701">  1  5  2 -1</clus>
<clus scale="   91.400">  7  8 -1 -1</clus>
<clus scale="   33.254">  1  5  2 -1</clus>
</clustering>
</event>
<event>
 9    1  0.8429841E-005  0.1170792E+03  0.7546771E-02  0.1263672E+00
         -2   -1    0    0    0  501 -0.00000000000E+00  0.00000000000E+00  0.10029208368E+03  0.10029208368E+03  0.00000000000E+00 0.  1.
         21   -1    0    0  501  502  0.00000000000E+00 -0.00000000000E+00 -0.28242774116E+03  0.28242774116E+03  0.00000000000E+00 0.  1.
        -24    2    1    2    0    0  0.15282020912E+02  0.24822271776E+02  0.59793870761E+01  0.86058869433E+02  0.80750793179E+02 0.  0.
         23    2    1    2    0    0  0.76481685199E+02 -0.33942535334E+02 -0.35253896017E+02  0.11813844227E+03  0.75579828538E+02 0.  0.
         11    1    3    3    0    0 -0.12235831196E+02 -0.21117822504E+02 -0.14884203825E+02  0.28587016562E+02  0.00000000000E+00 0. -1.
        -12    1    3    3    0    0  0.27517852108E+02  0.45940094281E+02  0.20863590901E+02  0.57471852871E+02  0.00000000000E+00 0.  1.
        -13    1    4    4    0    0  0.52005651451E+02  0.16644153298E+02 -0.64323648481E+01  0.54981732779E+02  0.00000000000E+00 0.  1.
         13    1    4    4    0    0  0.24476033748E+02 -0.50586688632E+02 -0.28821531169E+02  0.63156709491E+02  0.00000000000E+00 0. -1.
         -1    1    1    2    0  502 -0.91763706111E+02  0.91202635579E+01 -0.15286114854E+03  0.17852251314E+03  0.00000000000E+00 0.  1.
<scales pt_clust_5="13000.00000" pt_clust_6="13000.00000" pt_clust_7="13000.00000" pt_clust_8="13000.00000" pt_clust_9="89.41607"></scales>
<clustering>
<clus scale="   75.580">  7  8 -1 -1</clus>
<clus scale="   80.751">  5  6 -1 -1</clus>
<clus scale="   85.851">  1  5  2 -1</clus>
<clus scale="   89.416">  2  9  1 -1</clus>
<clus scale="   89.416">  2  5  1 -1</clus>
</clustering>
</event>
<event>
 9    1  0.8429841E-005  0.1337703E+03  0.7546771E-02  0.1229885E+00
         21   -1    0    0  501  502  0.00000000000E+00  0.00000000000E+00  0.27725404251E+03  0.27725404251E+03  0.00000000000E+00 0. -1.
          1   -1    0    0  502    0 -0.00000000000E+00 -0.00000000000E+00 -0.15072530924E+03  0.15072530924E+03  0.00000000000E+00 0. -1.
         23    2    1    2    0    0  0.67658031078E+02  0.29098708604E+01 -0.32095180815E+02  0.11791706739E+03  0.91039868366E+02 0.  0.
        -24    2    1    2    0    0  0.63958629924E+02 -0.57609244181E+02  0.10094719817E+03  0.15630412863E+03  0.82650544171E+02 0.  0.
         11    1    4    4    0    0  0.33843175006E+02 -0.68211077351E+02  0.36628258016E+02  0.84496987243E+02  0.00000000000E+00 0. -1.
        -12    1    4    4    0    0  0.30115454918E+02  0.10601833171E+02  0.64318940158E+02  0.71807141389E+02  0.00000000000E+00 0.  1.
        -13    1    3    3    0    0  0.79464842709E+02  0.28118034077E+02 -0.16113068181E+02  0.85819088980E+02  0.00000000000E+00 0. -1.
         13    1    3    3    0    0 -0.11806811631E+02 -0.25208163217E+02 -0.15982112634E+02  0.32097978409E+02  0.00000000000E+00 0.  1.
          2    1    1    2  501    0 -0.13161666100E+03  0.54699373320E+02  0.57676715905E+02  0.15375815573E+03  0.00000000000E+00 0. -1.
<scales pt_clust_5="13000.00000" pt_clust_6="13000.00000" pt_clust_7="13000.00000" pt_clust_8="13000.00000" pt_clust_9="105.18271"></scales>
<clustering>
<clus scale="   82.651">  5  6 -1 -1</clus>
<clus scale="   91.040">  7  8 -1 -1</clus>
<clus scale="  113.465">  2  7  1 -1</clus>
<clus scale="  105.183">  1  9  2 -1</clus>
<clus scale="  105.183">  1  5  2 -1</clus>
</clustering>
</event>
<event>
 9    1  0.8429841E-005  0.9469069E+02  0.7546771E-02  0.1296685E+00
          1   -1    0    0  502    0 -0.00000000000E+00  0.00000000000E+00  0.46819970237E+03  0.46819970237E+03  0.00000000000E+00 0. -1.
         21   -1    0    0  501  502  0.00000000000E+00 -0.00000000000E+00 -0.31082535356E+02  0.31082535356E+02  0.00000000000E+00 0. -1.
         23    2    1    2    0    0  0.47233363239E+02 -0.90300177001E+01  0.19386000988E+03  0.21875358669E+03  0.89212647287E+02 0.  0.
        -24    2    1    2    0    0 -0.73635068548E+00  0.33416974140E+02  0.15112156247E+03  0.17448307770E+03  0.80556696720E+02 0.  0.
         11    1    4    4    0    0 -0.78244560400E+00  0.24905708773E+02  0.18689649608E+01  0.24987988727E+02  0.00000000000E+00 0. -1.
        -12    1    4    4    0    0  0.46094918518E-01  0.85112653666E+01  0.14925259751E+03  0.14949508897E+03  0.00000000000E+00 0.  1.
        -11    1    3    3    0    0  0.19571566844E+02 -0.48971172257E+02  0.98421162551E+02  0.11165996229E+03  0.00000000000E+00 0.  1.
         11    1    3    3    0    0  0.27661796395E+02  0.39941154557E+02  0.95438847332E+02  0.10709362440E+03  0.00000000000E+00 0. -1.
          2    1    1    2  501    0 -0.46497012554E+02 -0.24386956440E+02  0.92135594659E+02  0.10604557333E+03  0.00000000000E+00 0. -1.
<scales pt_clust_5="13000.00000" pt_clust_6="13000.00000" pt_clust_7="13000.00000" pt_clust_8="13000.00000" pt_clust_9="52.50425"></scales>
<clustering>
<clus scale="   52.504">  2  9  1 -1</clus>
<clus scale="   80.557">  5  6 -1 -1</clus>
<clus scale="   86.584">  2  5  1 -1</clus>
<clus scale="   89.213">  7  8 -1 -1</clus>
<clus scale="   52.504">  2  5  1 -1</clus>
</clustering>
</event>
<event>
 9    1  0.8429841E-005  0.1162710E+03  0.7546771E-02  0.1252325E+00
         -2   -1    0    0    0  501 -0.00000000000E+00  0.00000000000E+00  0.51632390568E+03  0.51632390568E+03  0.00000000000E+00 0.  1.
         21   -1    0    0  501  502  0.00000000000E+00 -0.00000000000E+00 -0.80833011131E+02  0.80833011131E+02  0.00000000000E+00 0.  1.
         23    2    1    2    0    0 -0.14395053890E+02 -0.92158087378E+02  0.30262905281E+03  0.32898779548E+03  0.89153212662E+02 0.  0.
        -24    2    1    2    0    0  0.96883539713E+01  0.56185319749E+02  0.18208966233E+03  0.20701708657E+03  0.80304262938E+02 0.  0.
         13    1    4    4    0    0 -0.67668012092E+01  0.51636660959E+02  0.44877196408E+02  0.68746615270E+02  0.00000000000E+00 0. -1.
        -14    1    4    4    0    0  0.16455155181E+02  0.45486587894E+01  0.13721246592E+03  0.13827047130E+03  0.00000000000E+00 0.  1.
        -13    1    3    3    0    0 -0.47579121569E+02 -0.61236133715E+02  0.23576354150E+03  0.24818961377E+03  0.00000000000E+00 0.  1.
         13    1    3    3    0    0  0.33184067679E+02 -0.30921953663E+02  0.66865511306E+02  0.80798181714E+02  0.00000000000E+00 0. -1.
         -1    1    1    2    0  502  0.47066999188E+01  0.35972767630E+02 -0.49227820589E+02  0.61152034758E+02  0.00000000000E+00 0.  1.
<scales pt_clust_5="13000.00000" pt_clust_6="13000.00000" pt_clust_7="13000.00000" pt_clust_8="13000.00000" pt_clust_9="36.27937"></scales>
<clustering>
<clus scale="   36.279">  2  9  1 -1</clus>
<clus scale="   80.304">  5  6 -1 -1</clus>
<clus scale="   89.153">  7  8 -1 -1</clus>
<clus scale="  109.633">  2  5  1 -1</clus>
<clus scale="   36.279">  2  5  1 -1</clus>
</clustering>
</event>
<event>
 9    1  0.8429841E-005  0.1227763E+03  0.7546771E-02  0.1241671E+00
         21   -1    0    0  501  502  0.00000000000E+00  0.00000000000E+00  0.16971258630E+03  0.16971258630E+03  0.00000000000E+00 0.  1.
          1   -1    0    0  502    0 -0.00000000000E+00 -0.00000000000E+00 -0.43053818048E+03  0.43053818048E+03  0.00000000000E+00 0. -1.
         23    2    1    2    0    0  0.72829466018E+02  0.41858262058E+02 -0.25149979636E+03  0.28010002588E+03  0.90264232700E+02 0.  0.
        -24    2    1    2    0    0 -0.94507129877E+02  0.17704090264E+02  0.12180104055E+03  0.17450788092E+03  0.79827780962E+02 0.  0.
         11    1    4    4    0    0 -0.46712122430E+02 -0.75683414300E+01  0.72957206188E+01  0.47880368767E+02  0.00000000000E+00 0. -1.
        -12    1    4    4    0    0 -0.47795007447E+02  0.25272431694E+02  0.11450531993E+03  0.12662751215E+03  0.00000000000E+00 0.  1.
        -11    1    3    3    0    0  0.60814583914E+02 -0.70090995703E+01 -0.76333768816E+02  0.97848788214E+02  0.00000000000E+00 0.  1.
         11    1    3    3    0    0  0.12014882105E+02  0.48867361628E+02 -0.17516602754E+03  0.18225123766E+03  0.00000000000E+00 0. -1.
          2    1    1    2  501    0  0.21677663858E+02 -0.59562352322E+02 -0.13112683837E+03  0.14564285999E+03  0.00000000000E+00 0. -1.
<scales pt_clust_5="13000.00000" pt_clust_6="13000.00000" pt_clust_7="13000.00000" pt_clust_8="13000.00000" pt_clust_9="63.38453"></scales>
<clustering>
<clus scale="   63.385">  1  9  2 -1</clus>
<clus scale="   79.828">  5  6 -1 -1</clus>
<clus scale="   90.264">  7  8 -1 -1</clus>
<clus scale="  115.321">  1  5  2 -1</clus>
<clus scale="   63.385">  1  5  2 -1</clus>
</clustering>
</event>
<event>
 9    1  0.8429841E-005  0.2429560E+03  0.7546771E-02  0.1154179E+00
         21   -1    0    0  501  502  0.00000000000E+00  0.00000000000E+00  0.30980786540E+03  0.30980786540E+03  0.00000000000E+00 0. -1.
          1   -1    0    0  502    0 -0.00000000000E+00 -0.00000000000E+00 -0.33962167947E+03  0.33962167947E+03  0.00000000000E+00 0. -1.
         23    2    1    2    0    0 -0.30091051403E+02  0.31455046389E+02 -0.12560986751E+03  0.16084371682E+03  0.90542648000E+02 0.  0.
        -24    2    1    2    0    0  0.35935806952E+02  0.20841066905E+03 -0.65266476978E+01  0.22774170259E+03  0.84245455503E+02 0.  0.
         13    1    4    4    0    0 -0.24797659036E+02  0.78339173682E+02  0.11842714111E+02  0.83019274294E+02  0.00000000000E+00 0. -1.
        -14    1    4    4    0    0  0.60733465988E+02  0.13007149537E+03 -0.18369361809E+02  0.14472242830E+03  0.00000000000E+00 0.  1.
        -13    1    3    3    0    0  0.30118655513E+02  0.19610663434E+02 -0.28053253664E+02  0.45592724983E+02  0.00000000000E+00 0.  1.
         13    1    3    3    0    0 -0.60209706915E+02  0.11844382955E+02 -0.97556613850E+02  0.11525099184E+03  0.00000000000E+00 0. -1.
          2    1    1    2  501    0 -0.58447555497E+01 -0.23986571544E+03  0.10232270114E+03  0.26084412545E+03  0.00000000000E+00 0. -1.
<scales pt_clust_5="13000.00000" pt_clust_6="13000.00000" pt_clust_7="13000.00000" pt_clust_8="13000.00000" pt_clust_9="227.88226"></scales>
<clustering>
<clus scale="   84.245">  5  6 -1 -1</clus>
<clus scale="   90.543">  7  8 -1 -1</clus>
<clus scale="  100.463">  2  7  1 -1</clus>
<clus scale="  227.882">  1  9  2 -1</clus>
<clus scale="  227.882">  1  5  2 -1</clus>
</clustering>
</event>
<event>
 9    1  0.8429841E-005  0.2158948E+03  0.7546771E-02  0.1155198E+00
          1   -1    0    0  502    0 -0.00000000000E+00  0.00000000000E+00  0.46531437705E+03  0.46531437705E+03  0.00000000000E+00 0. -1.
         21   -1    0    0  501  502  0.00000000000E+00 -0.00000000000E+00 -0.20690830765E+03  0.20690830765E+03  0.00000000000E+00 0. -1.
        -24    2    1    2    0    0 -0.11177040099E+03  0.26992880805E+02  0.18682790190E+03  0.23333347279E+03  0.79489662495E+02 0.  0.
         23    2    1    2    0    0 -0.10033180718E+03 -0.13857295809E+03  0.30622044114E+02  0.19575372622E+03  0.90071502123E+02 0.  0.
         11    1    3    3    0    0 -0.12022408992E+03  0.25914775071E+02  0.14267438926E+03  0.18836504112E+03  0.00000000000E+00 0. -1.
        -12    1    3    3    0    0  0.84536889315E+01  0.10781057341E+01  0.44153512639E+02  0.44968431670E+02  0.00000000000E+00 0.  1.
        -13    1    4    4    0    0 -0.53026062562E+02 -0.46638039758E+02 -0.29070771080E+02  0.76367400077E+02  0.00000000000E+00 0. -1.
         13    1    4    4    0    0 -0.47305744620E+02 -0.91934918333E+02  0.59692815194E+02  0.11938632614E+03  0.00000000000E+00 0.  1.
          2    1    1    2  501    0  0.21210220817E+03  0.11158007729E+03  0.40956123388E+02  0.24313548569E+03  0.00000000000E+00 0. -1.
<scales pt_clust_5="13000.00000" pt_clust_6="13000.00000" pt_clust_7="13000.00000" pt_clust_8="13000.00000" pt_clust_9="196.20843"></scales>
<clustering>
<clus scale="   79.490">  5  6 -1 -1</clus>
<clus scale="   90.072">  7  8 -1 -1</clus>
<clus scale="  139.785">  1  5  2 -1</clus>
<clus scale="  196.208">  2  9  1 -1</clus>
<clus scale="  196.208">  2  5  1 -1</clus>
</clustering>
</event>
<event>
 9    1  0.8429841E-005  0.1012093E+03  0.7546771E-02  0.1284510E+00
          1   -1    0    0  502    0 -0.00000000000E+00  0.00000000000E+00  0.45101518162E+03  0.45101518162E+03  0.00000000000E+00 0. -1.
         21   -1    0    0  501  502  0.00000000000E+00 -0.00000000000E+00 -0.40825656479E+02  0.40825656479E+02  0.00000000000E+00 0. -1.
        -24    2    1    2    0    0  0.32026548800E+02  0.42561668833E+02  0.24817228513E+03  0.26587885455E+03  0.79151037319E+02 0.  0.
         23    2    1    2    0    0 -0.34140956586E+02  0.14600009147E+02  0.11171155931E+03  0.14978725243E+03  0.92617402924E+02 0.  0.
         11    1    3    3    0    0 -0.57393003412E+00  0.50978604214E+02  0.20436145552E+03  0.21062467088E+03  0.00000000000E+00 0. -1.
        -12    1    3    3    0    0  0.32600478834E+02 -0.84169353808E+01  0.43810829609E+02  0.55254183664E+02  0.00000000000E+00 0.  1.
        -11    1    4    4    0    0 -0.36897173602E+02  0.51143877284E+02  0.73368082426E+02  0.96746954073E+02  0.00000000000E+00 0. -1.
         11    1    4    4    0    0  0.27562170162E+01 -0.36543868137E+02  0.38343476880E+02  0.53040298358E+02  0.00000000000E+00 0.  1.
          2    1    1    2  501    0  0.21144077863E+01 -0.57161677980E+02  0.50305680708E+02  0.76174731121E+02  0.00000000000E+00 0. -1.
<scales pt_clust_5="13000.00000" pt_clust_6="13000.00000" pt_clust_7="13000.00000" pt_clust_8="13000.00000" pt_clust_9="57.20077"></scales>
<clustering>
<clus scale="   57.201">  2  9  1 -1</clus>
<clus scale="   79.151">  5  6 -1 -1</clus>
<clus scale="   89.052">  1  5  2 -1</clus>
<clus scale="   92.617">  7  8 -1 -1</clus>
<clus scale="   57.201">  2  5  1 -1</clus>
</clustering>
</event>
<event>
 9    1  0.8429841E-005  0.1531152E+03  0.7546771E-02  0.1199597E+00
          1   -1    0    0  502    0 -0.00000000000E+00  0.00000000000E+00  0.42522733620E+03  0.42522733620E+03  0.00000000000E+00 0. -1.
         21   -1    0    0  501  502  0.00000000000E+00 -0.00000000000E+00 -0.17321754006E+03  0.17321754006E+03  0.00000000000E+00 0. -1.
        -24    2    1    2    0    0 -0.93519893348E+01  0.12278323505E+03  0.33624723255E+03  0.36588942409E+03  0.75164398187E+02 0.  0.
         23    2    1    2    0    0  0.33830694366E+02 -0.11653073060E+03 -0.81618717237E+01  0.15239441205E+03  0.91834163677E+02 0.  0.
         13    1    3    3    0    0 -0.34065144328E+01  0.11428294177E+03  0.33662256458E+03  0.35550941774E+03  0.00000000000E+00 0. -1.
        -14    1    3    3    0    0 -0.59454749020E+01  0.85002932838E+01 -0.37533203332E+00  0.10380006351E+02  0.00000000000E+00 0.  1.
        -11    1    4    4    0    0 -0.30913174229E+02 -0.34772892473E+02 -0.11949111287E+02  0.48037065401E+02  0.00000000000E+00 0.  1.
         11    1    4    4    0    0  0.64743868595E+02 -0.81757838128E+02  0.37872395629E+01  0.10435734665E+03  0.00000000000E+00 0. -1.
          2    1    1    2  501    0 -0.24478705031E+02 -0.62525044509E+01 -0.76075564677E+02  0.80161040118E+02  0.00000000000E+00 0. -1.
<scales pt_clust_5="13000.00000" pt_clust_6="13000.00000" pt_clust_7="13000.00000" pt_clust_8="13000.00000" pt_clust_9="25.26462"></scales>
<clustering>
<clus scale="   25.265">  2  9  1 -1</clus>
<clus scale="   75.164">  5  6 -1 -1</clus>
<clus scale="   91.834">  7  8 -1 -1</clus>
<clus scale="  143.737">  1  5  2 -1</clus>
<clus scale="   25.265">  2  5  1 -1</clus>
</clustering>
</event>
<event>
 9    1  0.8429841E-005  0.2188865E+03  0.7546771E-02  0.1155539E+00
         21   -1    0    0  501  502  0.00000000000E+00  0.00000000000E+00  0.73932547201E+02  0.73932547201E+02  0.00000000000E+00 0. -1.
          1   -1    0    0  502    0 -0.00000000000E+00 -0.00000000000E+00 -0.15223529229E+04  0.15223529229E+04  0.00000000000E+00 0. -1.
         23    2    1    2    0    0  0.68417706918E+02 -0.69507847894E+02 -0.55602419101E+03  0.57172415972E+03  0.90516795579E+02 0.  0.
        -24    2    1    2    0    0  0.15154051356E+03  0.60456670770E+02 -0.72701827338E+03  0.74921898507E+03  0.78447316621E+02 0.  0.
         11    1    4    4    0    0  0.16050625212E+03  0.52088725253E+02 -0.67463068181E+03  0.69541501932E+03  0.00000000000E+00 0. -1.
        -12    1    4    4    0    0 -0.89657385596E+01  0.83679455179E+01 -0.52387591570E+02  0.53803965751E+02  0.00000000000E+00 0.  1.
        -11    1    3    3    0    0  0.63590101306E+02 -0.74504549589E+01 -0.19138352464E+03  0.20180897841E+03  0.00000000000E+00 0.  1.
         11    1    3    3    0    0  0.48276056121E+01 -0.62057392935E+02 -0.36464066637E+03  0.36991518131E+03  0.00000000000E+00 0. -1.
          2    1    1    2  501    0 -0.21995822048E+03  0.90511771231E+01 -0.16537791135E+03  0.27534232534E+03  0.00000000000E+00 0. -1.
<scales pt_clust_5="13000.00000" pt_clust_6="13000.00000" pt_clust_7="13000.00000" pt_clust_8="13000.00000" pt_clust_9="204.34608"></scales>
<clustering>
<clus scale="   78.447">  5  6 -1 -1</clus>
<clus scale="   90.517">  7  8 -1 -1</clus>
<clus scale="  133.062">  2  7  1 -1</clus>
<clus scale="  204.346">  1  9  2 -1</clus>
<clus scale="  204.346">  1  5  2 -1</clus>
</clustering>
</event>
<event>
 9    1  0.8429841E-005  0.1115579E+03  0.7546771E-02  0.1262342E+00
          1   -1    0    0  502    0 -0.00000000000E+00  0.00000000000E+00  0.50631614305E+02  0.50631614305E+02  0.00000000000E+00 0. -1.
         21   -1    0    0  501  502  0.00000000000E+00 -0.00000000000E+00 -0.84304967318E+03  0.84304967318E+03  0.00000000000E+00 0. -1.
         23    2    1    2    0    0  0.45684355622E+02 -0.38603829956E+02 -0.77988038994E+02  0.13482209755E+03  0.92290561407E+02 0.  0.
        -24    2    1    2    0    0 -0.16347613659E+02  0.98422428756E+02 -0.66145951378E+03  0.67374289474E+03  0.80290602745E+02 0.  0.
         11    1    4    4    0    0  0.27682149184E+02  0.69096905532E+02 -0.42138218773E+03  0.42790610170E+03  0.00000000000E+00 0. -1.
        -12    1    4    4    0    0 -0.44029762843E+02  0.29325523225E+02 -0.24007732605E+03  0.24583679304E+03  0.00000000000E+00 0.  1.
        -11    1    3    3    0    0  0.72918682816E+02 -0.17987934451E+02 -0.60539370413E+02  0.96466136335E+02  0.00000000000E+00 0. -1.
         11    1    3    3    0    0 -0.27234327194E+02 -0.20615895505E+02 -0.17448668581E+02  0.38355961211E+02  0.00000000000E+00 0.  1.
          2    1    1    2  501    0 -0.29336741963E+02 -0.59818598800E+02 -0.52970506098E+02  0.85116295194E+02  0.00000000000E+00 0. -1.
<scales pt_clust_5="13000.00000" pt_clust_6="13000.00000" pt_clust_7="13000.00000" pt_clust_8="13000.00000" pt_clust_9="66.62517"></scales>
<clustering>
<clus scale="   66.625">  2  9  1 -1</clus>
<clus scale="   80.291">  5  6 -1 -1</clus>
<clus scale="   92.291">  7  8 -1 -1</clus>
<clus scale="  101.854">  2  5  1 -1</clus>
<clus scale="   66.625">  2  5  1 -1</clus>
</clustering>
</event>
<event>
 9    1  0.8429841E-005  0.1363022E+03  0.7546771E-02  0.1236755E+00
         21   -1    0    0  501  502  0.00000000000E+00  0.00000000000E+00  0.30905762066E+03  0.30905762066E+03  0.00000000000E+00 0. -1.
          1   -1    0    0  502    0 -0.00000000000E+00 -0.00000000000E+00 -0.36938525180E+03  0.36938525180E+03  0.00000000000E+00 0. -1.
         23    2    1    2    0    0  0.19353244866E+02  0.45966188584E+01  0.99795465062E+02  0.13651083413E+03  0.90996681233E+02 0.  0.
        -24    2    1    2    0    0  0.53954390624E+02 -0.94065832108E+02  0.15503982185E+03  0.20621427822E+03  0.82021491965E+02 0.  0.
         11    1    4    4    0    0  0.72488773588E+02 -0.49725377320E+02  0.99494755240E+02  0.13276461037E+03  0.00000000000E+00 0. -1.
        -12    1    4    4    0    0 -0.18534382964E+02 -0.44340454788E+02  0.55545066607E+02  0.73449667848E+02  0.00000000000E+00 0.  1.
        -11    1    3    3    0    0  0.47516674102E+02  0.28823877698E+02  0.53380208875E+02  0.77059048417E+02  0.00000000000E+00 0. -1.
         11    1    3    3    0    0 -0.28163429237E+02 -0.24227258840E+02  0.46415256187E+02  0.59451785711E+02  0.00000000000E+00 0.  1.
          2    1    1    2  501    0 -0.73307635489E+02  0.89469213250E+02 -0.31516291805E+03  0.33571776011E+03  0.00000000000E+00 0. -1.
<scales pt_clust_5="13000.00000" pt_clust_6="13000.00000" pt_clust_7="13000.00000" pt_clust_8="13000.00000" pt_clust_9="108.86121"></scales>
<clustering>
<clus scale="   82.021">  5  6 -1 -1</clus>
<clus scale="   90.997">  7  8 -1 -1</clus>
<clus scale="   93.145">  2  7  1 -1</clus>
<clus scale="  108.861">  1  9  2 -1</clus>
<clus scale="  108.861">  1  5  2 -1</clus>
</clustering>
</event>
<event>
 9    1  0.8429841E-005  0.2112347E+03  0.7546771E-02  0.1162201E+00
          1   -1    0    0  502    0 -0.00000000000E+00  0.00000000000E+00  0.97240210257E+03  0.97240210257E+03  0.00000000000E+00 0. -1.
         21   -1    0    0  501  502  0.00000000000E+00 -0.00000000000E+00 -0.14365253012E+03  0.14365253012E+03  0.00000000000E+00 0. -1.
         23    2    1    2    0    0 -0.58720152992E+02  0.65086201776E+02 -0.46297300825E+02  0.13493808604E+03  0.91545491262E+02 0.  0.
        -24    2    1    2    0    0  0.77820177580E+02  0.14576785340E+03  0.63402028541E+03  0.66030809979E+03  0.81980590501E+02 0.  0.
         11    1    4    4    0    0  0.21167454907E+02  0.10533906170E+03  0.47013396648E+03  0.48225545669E+03  0.00000000000E+00 0. -1.
        -12    1    4    4    0    0  0.56652722673E+02  0.40428791702E+02  0.16388631893E+03  0.17805264310E+03  0.00000000000E+00 0.  1.
        -11    1    3    3    0    0 -0.70456361411E+02  0.38641031745E+02 -0.15314440626E-01  0.80356881673E+02  0.00000000000E+00 0.  1.
         11    1    3    3    0    0  0.11736208419E+02  0.26445170030E+02 -0.46281986385E+02  0.54581204363E+02  0.00000000000E+00 0. -1.
          2    1    1    2  501    0 -0.19100024589E+02 -0.21085405517E+03  0.24102658787E+03  0.32080844687E+03  0.00000000000E+00 0. -1.
<scales pt_clust_5="13000.00000" pt_clust_6="13000.00000" pt_clust_7="13000.00000" pt_clust_8="13000.00000" pt_clust_9="194.67739"></scales>
<clustering>
<clus scale="   81.981">  5  6 -1 -1</clus>
<clus scale="   91.545">  7  8 -1 -1</clus>
<clus scale="  126.747">  1  7  2 -1</clus>
<clus scale="  194.677">  2  9  1 -1</clus>
<clus scale="  194.677">  2  5  1 -1</clus>
</clustering>
</event>
<event>
 9    1  0.8429841E-005  0.1139736E+03  0.7546771E-02  0.1259603E+00
         21   -1    0    0  501  502  0.00000000000E+00  0.00000000000E+00  0.15681834634E+03  0.15681834634E+03  0.00000000000E+00 0.  1.
         -2   -1    0    0    0  501 -0.00000000000E+00 -0.00000000000E+00 -0.14011620714E+03  0.14011620714E+03  0.00000000000E+00 0.  1.
        -24    2    1    2    0    0 -0.16411461289E+02  0.37216770369E+02  0.10782322571E+02  0.88341545732E+02  0.77675904654E+02 0.  0.
         23    2    1    2    0    0 -0.25250575404E+01 -0.10315148589E+03  0.85149096661E+01  0.13994380554E+03  0.94154978981E+02 0.  0.
         13    1    3    3    0    0 -0.47050208086E+02  0.17648237754E+02 -0.57395451529E+00  0.50254470453E+02  0.00000000000E+00 0. -1.
        -14    1    3    3    0    0  0.30638746797E+02  0.19568532615E+02  0.11356277086E+02  0.38087075278E+02  0.00000000000E+00 0.  1.
        -11    1    4    4    0    0  0.28958847646E+02 -0.68580154068E+02  0.39083163736E+02  0.84079403403E+02  0.00000000000E+00 0.  1.
         11    1    4    4    0    0 -0.31483905186E+02 -0.34571331819E+02 -0.30568254070E+02  0.55864402140E+02  0.00000000000E+00 0. -1.
         -1    1    1    2    0  502  0.18936518829E+02  0.65934715518E+02 -0.25950930374E+01  0.68649202207E+02  0.00000000000E+00 0.  1.
<scales pt_clust_5="13000.00000" pt_clust_6="13000.00000" pt_clust_7="13000.00000" pt_clust_8="13000.00000" pt_clust_9="68.60017"></scales>
<clustering>
<clus scale="   68.600">  1  9  2 -1</clus>
<clus scale="   77.676">  5  6 -1 -1</clus>
<clus scale="   94.155">  7  8 -1 -1</clus>
<clus scale="  100.789">  2  5  1 -1</clus>
<clus scale="   68.600">  1  5  2 -1</clus>
</clustering>
</event>
<event>
 9    1  0.8429841E-005  0.2682506E+03  0.7546771E-02  0.1102680E+00
         -4   -1    0    0    0  501 -0.00000000000E+00  0.00000000000E+00  0.51055719457E+03  0.51055719457E+03  0.00000000000E+00 0.  1.
         21   -1    0    0  501  502  0.00000000000E+00 -0.00000000000E+00 -0.24103137048E+03  0.24103137048E+03  0.00000000000E+00 0.  1.
        -24    2    1    2    0    0  0.67147126245E+02  0.20448344041E+03  0.21560263585E+02  0.23076902834E+03  0.80419434900E+02 0.  0.
         23    2    1    2    0    0 -0.18438879857E+03 -0.23907208307E+03  0.10298134311E+03  0.33118196863E+03  0.89003648086E+02 0.  0.
         11    1    3    3    0    0  0.43565861173E+02  0.41556759684E+02  0.27158587750E+02  0.66049507370E+02  0.00000000000E+00 0. -1.
        -12    1    3    3    0    0  0.23581265072E+02  0.16292668073E+03 -0.55983241651E+01  0.16471952097E+03  0.00000000000E+00 0.  1.
        -11    1    4    4    0    0 -0.12228714123E+03 -0.10377852205E+03  0.84172299616E+02  0.18113283129E+03  0.00000000000E+00 0. -1.
         11    1    4    4    0    0 -0.62101657341E+02 -0.13529356102E+03  0.18809043491E+02  0.15004913734E+03  0.00000000000E+00 0.  1.
         -3    1    1    2    0  502  0.11724167232E+03  0.34588642660E+02  0.14498421740E+03  0.18963756807E+03  0.00000000000E+00 0.  1.
<scales pt_clust_5="13000.00000" pt_clust_6="13000.00000" pt_clust_7="13000.00000" pt_clust_8="13000.00000" pt_clust_9="122.23747"></scales>
<clustering>
<clus scale="   80.419">  5  6 -1 -1</clus>
<clus scale="   89.004">  7  8 -1 -1</clus>
<clus scale="  122.237">  2  9  1 -1</clus>
<clus scale="  265.526">  1  5  2 -1</clus>
<clus scale="  122.237">  2  5  1 -1</clus>
</clustering>
</event>
<event>
 9    1  0.8429841E-005  0.1192100E+03  0.7546771E-02  0.1248764E+00
          1   -1    0    0  502    0 -0.00000000000E+00  0.00000000000E+00  0.32478744244E+03  0.32478744244E+03  0.00000000000E+00 0. -1.
         21   -1    0    0  501  502  0.00000000000E+00 -0.00000000000E+00 -0.78755166725E+02  0.78755166725E+02  0.00000000000E+00 0.  1.
         23    2    1    2    0    0  0.47923878327E+02  0.77547176062E+02  0.15724065844E+03  0.20436765362E+03  0.93441160905E+02 0.  0.
        -24    2    1    2    0    0 -0.39416324583E+02 -0.21164132701E+02 -0.20176077981E+01  0.91947433856E+02  0.80303752682E+02 0.  0.
         13    1    4    4    0    0  0.23291359547E+02 -0.11396473154E+02  0.91725366333E+01  0.27504589766E+02  0.00000000000E+00 0. -1.
        -14    1    4    4    0    0 -0.62707684130E+02 -0.97676595467E+01 -0.11190144431E+02  0.64442844090E+02  0.00000000000E+00 0.  1.
        -11    1    3    3    0    0  0.36661257276E+02  0.94592128855E+02  0.15288014749E+03  0.18347767745E+03  0.00000000000E+00 0.  1.
         11    1    3    3    0    0  0.11262621050E+02 -0.17044952794E+02  0.43605109517E+01  0.20889976171E+02  0.00000000000E+00 0. -1.
          2    1    1    2  501    0 -0.85075537435E+01 -0.56383043361E+02  0.90809225074E+02  0.10722752169E+03  0.00000000000E+00 0. -1.
<scales pt_clust_5="13000.00000" pt_clust_6="13000.00000" pt_clust_7="13000.00000" pt_clust_8="13000.00000" pt_clust_9="57.02131"></scales>
<clustering>
<clus scale="   57.021">  2  9  1 -1</clus>
<clus scale="   80.304">  5  6 -1 -1</clus>
<clus scale="   93.441">  7  8 -1 -1</clus>
<clus scale="  109.218">  2  5  1 -1</clus>
<clus scale="   57.021">  2  5  1 -1</clus>
</clustering>
</event>
<event>
 9    1  0.8429841E-005  0.1133811E+03  0.7546771E-02  0.1255009E+00
          1   -1    0    0  502    0 -0.00000000000E+00  0.00000000000E+00  0.72421308464E+03  0.72421308464E+03  0.00000000000E+00 0. -1.
         21   -1    0    0  501  502  0.00000000000E+00 -0.00000000000E+00 -0.31101387450E+02  0.31101387450E+02  0.00000000000E+00 0. -1.
        -24    2    1    2    0    0 -0.44980820977E+02 -0.88253038233E+02  0.39906901639E+03  0.41901623026E+03  0.80663798361E+02 0.  0.
         23    2    1    2    0    0 -0.80261792619E+01  0.54598153470E+02  0.15966426641E+03  0.18797443526E+03  0.82439871575E+02 0.  0.
         13    1    3    3    0    0 -0.64112951269E+02 -0.56129595316E+02  0.32579562665E+03  0.33675479557E+03  0.00000000000E+00 0. -1.
        -14    1    3    3    0    0  0.19132130293E+02 -0.32123442917E+02  0.73273389742E+02  0.82261434699E+02  0.00000000000E+00 0.  1.
        -13    1    4    4    0    0 -0.25436844566E+02 -0.27684993461E+01  0.10064848405E+03  0.10384996385E+03  0.00000000000E+00 0.  1.
         13    1    4    4    0    0  0.17410665304E+02  0.57366652816E+02  0.59015782363E+02  0.84124471408E+02  0.00000000000E+00 0. -1.
          2    1    1    2  501    0  0.53007000239E+02  0.33654884763E+02  0.13437841439E+03  0.14832380657E+03  0.00000000000E+00 0. -1.
<scales pt_clust_5="13000.00000" pt_clust_6="13000.00000" pt_clust_7="13000.00000" pt_clust_8="13000.00000" pt_clust_9="62.78848"></scales>
<clustering>
<clus scale="   62.788">  2  9  1 -1</clus>
<clus scale="   80.664">  5  6 -1 -1</clus>
<clus scale="   82.440">  7  8 -1 -1</clus>
<clus scale="  112.096">  1  5  2 -1</clus>
<clus scale="   62.788">  2  5  1 -1</clus>
</clustering>
</event>
<event>
 9    1  0.8429841E-005  0.1433190E+03  0.7546771E-02  0.1214831E+00
         21   -1    0    0  501  502  0.00000000000E+00  0.00000000000E+00  0.67850834883E+02  0.67850834883E+02  0.00000000000E+00 0.  1.
          1   -1    0    0  502    0 -0.00000000000E+00 -0.00000000000E+00 -0.69887269686E+03  0.69887269686E+03  0.00000000000E+00 0. -1.
         23    2    1    2    0    0  0.57887638085E+02 -0.63270821702E+02 -0.11004672477E+03  0.16759616940E+03  0.92865595585E+02 0.  0.
        -24    2    1    2    0    0  0.88757656720E+02  0.69588104488E+02 -0.17292249401E+03  0.22139016139E+03  0.79943659603E+02 0.  0.
         11    1    4    4    0    0 -0.54286481766E+01  0.34820156049E+02 -0.65339943156E+02  0.74237602736E+02  0.00000000000E+00 0. -1.
        -12    1    4    4    0    0  0.94186304897E+02  0.34767948438E+02 -0.10758255085E+03  0.14715255865E+03  0.00000000000E+00 0.  1.
        -13    1    3    3    0    0  0.78260114810E+02 -0.23516226142E+02 -0.72472925704E+02  0.10922446348E+03  0.00000000000E+00 0. -1.
         13    1    3    3    0    0 -0.20372476725E+02 -0.39754595560E+02 -0.37573799065E+02  0.58371705922E+02  0.00000000000E+00 0.  1.
          2    1    1    2  501    0 -0.14664529481E+03 -0.63172827852E+01 -0.34805264320E+03  0.37773720096E+03  0.00000000000E+00 0. -1.
<scales pt_clust_5="13000.00000" pt_clust_6="13000.00000" pt_clust_7="13000.00000" pt_clust_8="13000.00000" pt_clust_9="118.95109"></scales>
<clustering>
<clus scale="   79.944">  5  6 -1 -1</clus>
<clus scale="   92.866">  7  8 -1 -1</clus>
<clus scale="  126.405">  2  7  1 -1</clus>
<clus scale="  118.951">  1  9  2 -1</clus>
<clus scale="  118.951">  1  5  2 -1</clus>
</clustering>
</event>
<event>
 9    1  0.8429841E-005  0.9398654E+02  0.7546771E-02  0.1300617E+00
          1   -1    0    0  502    0 -0.00000000000E+00  0.00000000000E+00  0.54490943757E+03  0.54490943757E+03  0.00000000000E+00 0. -1.
         21   -1    0    0  501  502  0.00000000000E+00 -0.00000000000E+00 -0.32293053140E+02  0.32293053140E+02  0.00000000000E+00 0.  1.
         23    2    1    2    0    0  0.11550046075E+02  0.19589773151E+02  0.34089402630E+03  0.35395519064E+03  0.92511496793E+02 0.  0.
        -24    2    1    2    0    0  0.14121131102E+02 -0.43722962117E+00  0.46859103284E+02  0.94341669191E+02  0.80653440545E+02 0.  0.
         11    1    4    4    0    0  0.10444122798E+02 -0.37114026575E+02  0.42243695919E+02  0.57193185910E+02  0.00000000000E+00 0. -1.
        -12    1    4    4    0    0  0.36770083040E+01  0.36676796954E+02  0.46154073649E+01  0.37148483280E+02  0.00000000000E+00 0.  1.
        -11    1    3    3    0    0  0.54814637748E+01  0.55804309636E+02  0.16494527518E+03  0.17421570315E+03  0.00000000000E+00 0.  1.
         11    1    3    3    0    0  0.60685823006E+01 -0.36214536485E+02  0.17594875113E+03  0.17973948750E+03  0.00000000000E+00 0. -1.
          2    1    1    2  501    0 -0.25671177178E+02 -0.19152543530E+02  0.12486325484E+03  0.12890563088E+03  0.00000000000E+00 0. -1.
<scales pt_clust_5="13000.00000" pt_clust_6="13000.00000" pt_clust_7="13000.00000" pt_clust_8="13000.00000" pt_clust_9="32.02859"></scales>
<clustering>
<clus scale="   32.029">  2  9  1 -1</clus>
<clus scale="   80.653">  5  6 -1 -1</clus>
<clus scale="   82.341">  2  5  1 -1</clus>
<clus scale="   92.511">  7  8 -1 -1</clus>
<clus scale="   32.029">  2  5  1 -1</clus>
</clustering>
</event>
<event>
 9    1  0.8429841E-005  0.1063488E+03  0.7546771E-02  0.1289763E+00
          3   -1    0    0  502    0 -0.00000000000E+00  0.00000000000E+00  0.12011855487E+03  0.12011855487E+03  0.00000000000E+00 0. -1.
         21   -1    0    0  501  502  0.00000000000E+00 -0.00000000000E+00 -0.36455327428E+03  0.36455327428E+03  0.00000000000E+00 0. -1.
         23    2    1    2    0    0 -0.37291660564E+02 -0.28811490610E+02  0.54391805397E+02  0.12550011563E+03  0.10281556589E+03 0.  0.
        -24    2    1    2    0    0 -0.69697580864E+01  0.14539472504E+02 -0.10149883040E+02  0.66773069237E+02  0.63997256669E+02 0.  0.
         11    1    4    4    0    0  0.27479412847E+02  0.14459189862E+02 -0.73336067853E+00  0.31060008367E+02  0.00000000000E+00 0. -1.
        -12    1    4    4    0    0 -0.34449170934E+02  0.80282642025E-01 -0.94165223611E+01  0.35713060870E+02  0.00000000000E+00 0.  1.
        -13    1    3    3    0    0 -0.50737955269E+02  0.11038258447E+01  0.72143736079E+02  0.88205879576E+02  0.00000000000E+00 0.  1.
         13    1    3    3    0    0  0.13446294705E+02 -0.29915316455E+02 -0.17751930682E+02  0.37294236053E+02  0.00000000000E+00 0. -1.
          4    1    1    2  501    0  0.44261418650E+02  0.14272018106E+02 -0.28867664176E+03  0.29239864428E+03  0.00000000000E+00 0. -1.
<scales pt_clust_5="13000.00000" pt_clust_6="13000.00000" pt_clust_7="13000.00000" pt_clust_8="13000.00000" pt_clust_9="46.50552"></scales>
<clustering>
<clus scale="   46.506">  2  9  1 -1</clus>
<clus scale="   63.997">  5  6 -1 -1</clus>
<clus scale="   69.532">  2  5  1 -1</clus>
<clus scale="  102.816">  7  8 -1 -1</clus>
<clus scale="   46.506">  2  5  1 -1</clus>
</clustering>
</event>
<event>
 9    1  0.8429841E-005  0.1264294E+03  0.7546771E-02  0.1233631E+00
         21   -1    0    0  501  502  0.00000000000E+00  0.00000000000E+00  0.39654227911E+03  0.39654227911E+03  0.00000000000E+00 0. -1.
          1   -1    0    0  502    0 -0.00000000000E+00 -0.00000000000E+00 -0.61825468059E+02  0.61825468059E+02  0.00000000000E+00 0. -1.
         23    2    1    2    0    0  0.66804728748E+02 -0.30313326624E+02  0.91695143951E+02  0.14940949418E+03  0.92376555315E+02 0.  0.
        -24    2    1    2    0    0 -0.10215166727E+03  0.25308443042E+02  0.23142692470E+03  0.27142302988E+03  0.95060818723E+02 0.  0.
         13    1    4    4    0    0 -0.62908442480E+02  0.61493320968E+02  0.15450976136E+03  0.17779810745E+03  0.00000000000E+00 0. -1.
        -14    1    4    4    0    0 -0.39243224791E+02 -0.36184877925E+02  0.76917163342E+02  0.93624922425E+02  0.00000000000E+00 0.  1.
        -13    1    3    3    0    0  0.31078814293E+01 -0.46751861586E+02  0.60724575903E+02  0.76699867062E+02  0.00000000000E+00 0. -1.
         13    1    3    3    0    0  0.63696847318E+02  0.16438534962E+02  0.30970568048E+02  0.72709627115E+02  0.00000000000E+00 0.  1.
          2    1    1    2  501    0  0.35346938524E+02  0.50048835817E+01  0.11594742397E+02  0.37535223110E+02  0.00000000000E+00 0. -1.
<scales pt_clust_5="13000.00000" pt_clust_6="13000.00000" pt_clust_7="13000.00000" pt_clust_8="13000.00000" pt_clust_9="35.69953"></scales>
<clustering>
<clus scale="   35.700">  1  9  2 -1</clus>
<clus scale="   92.377">  7  8 -1 -1</clus>
<clus scale="   95.061">  5  6 -1 -1</clus>
<clus scale="  124.424">  2  7  1 -1</clus>
<clus scale="   35.700">  1  5  2 -1</clus>
</clustering>
</event>
<event>
 9    1  0.8429841E-005  0.1477064E+03  0.7546771E-02  0.1238662E+00
         21   -1    0    0  501  502  0.00000000000E+00  0.00000000000E+00  0.26279539137E+02  0.26279539137E+02  0.00000000000E+00 0. -1.
          1   -1    0    0  502    0 -0.00000000000E+00 -0.00000000000E+00 -0.11234735758E+04  0.11234735758E+04  0.00000000000E+00 0. -1.
        -24    2    1    2    0    0  0.31990562488E+02 -0.19064485698E+02 -0.16994498422E+03  0.18395043037E+03  0.59746233909E+02 0.  0.
         23    2    1    2    0    0 -0.12492086302E+03 -0.11185715810E+02 -0.40888384279E+03  0.43830519072E+03  0.95891089568E+02 0.  0.
         13    1    3    3    0    0  0.36829441174E+01 -0.28140518450E+02 -0.31711541369E+02  0.42556723465E+02  0.00000000000E+00 0. -1.
        -14    1    3    3    0    0  0.28307618370E+02  0.90760327519E+01 -0.13823344285E+03  0.14139370690E+03  0.00000000000E+00 0.  1.
        -13    1    4    4    0    0 -0.59582842347E+02 -0.46449731057E+02 -0.13682579369E+03  0.15629776210E+03  0.00000000000E+00 0. -1.
         13    1    4    4    0    0 -0.65338020674E+02  0.35264015247E+02 -0.27205804910E+03  0.28200742862E+03  0.00000000000E+00 0.  1.
          2    1    1    2  501    0  0.92930300533E+02  0.30250201509E+02 -0.51836520969E+03  0.52749749390E+03  0.00000000000E+00 0. -1.
<scales pt_clust_5="13000.00000" pt_clust_6="13000.00000" pt_clust_7="13000.00000" pt_clust_8="13000.00000" pt_clust_9="112.34812"></scales>
<clustering>
<clus scale="   59.746">  5  6 -1 -1</clus>
<clus scale="   70.402">  2  5  1 -1</clus>
<clus scale="   95.891">  7  8 -1 -1</clus>
<clus scale="  112.348">  1  9  2 -1</clus>
<clus scale="  112.348">  1  5  2 -1</clus>
</clustering>
</event>
<event>
 9    1  0.8429841E-005  0.1085100E+03  0.7546771E-02  0.1267421E+00
         21   -1    0    0  501  502  0.00000000000E+00  0.00000000000E+00  0.10607073298E+03  0.10607073298E+03  0.00000000000E+00 0.  1.
          1   -1    0    0  502    0 -0.00000000000E+00 -0.00000000000E+00 -0.19782474654E+03  0.19782474654E+03  0.00000000000E+00 0. -1.
         23    2    1    2    0    0  0.54961290952E+02  0.25632782682E+02 -0.10360457519E+03  0.15003415035E+03  0.89991973081E+02 0.  0.
        -24    2    1    2    0    0 -0.43072116050E+02 -0.48088328884E+02  0.44997709946E+02  0.11209606278E+03  0.79831314868E+02 0.  0.
         11    1    4    4    0    0 -0.42349598241E+02  0.91340320237E+01  0.82941034738E+01  0.44110216102E+02  0.00000000000E+00 0. -1.
        -12    1    4    4    0    0 -0.72251780942E+00 -0.57222360908E+02  0.36703606472E+02  0.67985846674E+02  0.00000000000E+00 0.  1.
        -11    1    3    3    0    0  0.78439048706E+02  0.29732156448E+02 -0.72679522721E+02  0.11099098392E+03  0.00000000000E+00 0.  1.
         11    1    3    3    0    0 -0.23477757753E+02 -0.40993737655E+01 -0.30925052467E+02  0.39043166425E+02  0.00000000000E+00 0. -1.
          2    1    1    2  501    0 -0.11889174902E+02  0.22455546202E+02 -0.33147148326E+02  0.41765266397E+02  0.00000000000E+00 0. -1.
<scales pt_clust_5="13000.00000" pt_clust_6="13000.00000" pt_clust_7="13000.00000" pt_clust_8="13000.00000" pt_clust_9="25.40875"></scales>
<clustering>
<clus scale="   25.409">  1  9  2 -1</clus>
<clus scale="   79.831">  5  6 -1 -1</clus>
<clus scale="   89.992">  7  8 -1 -1</clus>
<clus scale="  100.244">  1  5  2 -1</clus>
<clus scale="   25.409">  1  5  2 -1</clus>
</clustering>
</event>
<event>
 9    1  0.8429841E-005  0.1159452E+03  0.7546771E-02  0.1259522E+00
         -2   -1    0    0    0  501 -0.00000000000E+00  0.00000000000E+00  0.11142966430E+04  0.11142966430E+04  0.00000000000E+00 0.  1.
         21   -1    0    0  501  502  0.00000000000E+00 -0.00000000000E+00 -0.28724560481E+02  0.28724560481E+02  0.00000000000E+00 0.  1.
        -24    2    1    2    0    0  0.26841290891E+02 -0.64990646232E+02  0.76069245375E+03  0.76804544607E+03  0.79350860367E+02 0.  0.
         23    2    1    2    0    0 -0.64430390496E+01 -0.15414252445E+02  0.17111265214E+03  0.20026079094E+03  0.10269241809E+03 0.  0.
         13    1    3    3    0    0  0.26055223263E+02 -0.14665373481E+02  0.78537667914E+02  0.84036379741E+02  0.00000000000E+00 0. -1.
        -14    1    3    3    0    0  0.78606762781E+00 -0.50325272751E+02  0.68215478583E+03  0.68400906633E+03  0.00000000000E+00 0.  1.
        -11    1    4    4    0    0 -0.36857193611E+02  0.45144141292E+01  0.15687703946E+03  0.16121178048E+03  0.00000000000E+00 0. -1.
         11    1    4    4    0    0  0.30414154561E+02 -0.19928666575E+02  0.14235612682E+02  0.39049010455E+02  0.00000000000E+00 0.  1.
         -1    1    1    2    0  502 -0.20398251841E+02  0.80404898677E+02  0.15376697661E+03  0.17471496646E+03  0.00000000000E+00 0.  1.
<scales pt_clust_5="13000.00000" pt_clust_6="13000.00000" pt_clust_7="13000.00000" pt_clust_8="13000.00000" pt_clust_9="82.95201"></scales>
<clustering>
<clus scale="   79.351">  5  6 -1 -1</clus>
<clus scale="   82.952">  2  9  1 -1</clus>
<clus scale="   95.886">  1  5  2 -1</clus>
<clus scale="  102.692">  7  8 -1 -1</clus>
<clus scale="   82.952">  2  5  1 -1</clus>
</clustering>
</event>
<event>
 9    1  0.8429841E-005  0.1106816E+03  0.7546771E-02  0.1264254E+00
         21   -1    0    0  501  502  0.00000000000E+00  0.00000000000E+00  0.25120125928E+03  0.25120125928E+03  0.00000000000E+00 0. -1.
          3   -1    0    0  502    0 -0.00000000000E+00 -0.00000000000E+00 -0.21961259288E+03  0.21961259288E+03  0.00000000000E+00 0. -1.
         23    2    1    2    0    0  0.40487039097E+02  0.62972872139E+02 -0.15616609613E+03  0.19520418167E+03  0.90066864057E+02 0.  0.
        -24    2    1    2    0    0 -0.59508441514E+01 -0.41985750503E+02  0.47339230114E+01  0.88180121754E+02  0.77169346596E+02 0.  0.
         13    1    4    4    0    0 -0.26596372634E+02  0.56371355695E+01  0.20368766577E+02  0.33971031580E+02  0.00000000000E+00 0. -1.
        -14    1    4    4    0    0  0.20645528483E+02 -0.47622886072E+02 -0.15634843565E+02  0.54209090174E+02  0.00000000000E+00 0.  1.
        -13    1    3    3    0    0  0.34850098259E+02  0.36618747361E+02 -0.16017013322E+03  0.16795813044E+03  0.00000000000E+00 0. -1.
         13    1    3    3    0    0  0.56369408379E+01  0.26354124778E+02  0.40040370819E+01  0.27246051233E+02  0.00000000000E+00 0.  1.
          4    1    1    2  501    0 -0.34536194946E+02 -0.20987121636E+02  0.18302083953E+03  0.18742954873E+03  0.00000000000E+00 0. -1.
<scales pt_clust_5="13000.00000" pt_clust_6="13000.00000" pt_clust_7="13000.00000" pt_clust_8="13000.00000" pt_clust_9="40.41297"></scales>
<clustering>
<clus scale="   40.413">  1  9  2 -1</clus>
<clus scale="   77.169">  5  6 -1 -1</clus>
<clus scale="   90.067">  7  8 -1 -1</clus>
<clus scale="  100.466">  1  5  2 -1</clus>
<clus scale="   40.413">  1  5  2 -1</clus>
</clustering>
</event>
<event>
 9    1  0.8429841E-005  0.1050389E+03  0.7546771E-02  0.1275861E+00
         -2   -1    0    0    0  501 -0.00000000000E+00  0.00000000000E+00  0.66039140071E+02  0.66039140071E+02  0.00000000000E+00 0.  1.
         21   -1    0    0  501  502  0.00000000000E+00 -0.00000000000E+00 -0.25087210446E+03  0.25087210446E+03  0.00000000000E+00 0. -1.
        -24    2    1    2    0    0 -0.39780832432E+02 -0.51106819027E+02 -0.26544229972E+02  0.10506799109E+03  0.78359843199E+02 0.  0.
         23    2    1    2    0    0  0.20631862113E+02  0.24706648114E+02 -0.75438271692E+02  0.12280477153E+03  0.91400147036E+02 0.  0.
         11    1    3    3    0    0 -0.22973200802E+02 -0.59052754774E+02 -0.45890812236E+02  0.78236579994E+02  0.00000000000E+00 0. -1.
        -12    1    3    3    0    0 -0.16807631630E+02  0.79459357474E+01  0.19346582264E+02  0.26831411093E+02  0.00000000000E+00 0.  1.
        -11    1    4    4    0    0  0.57500408676E+00 -0.31685401780E+02 -0.80956589077E+01  0.32708332407E+02  0.00000000000E+00 0.  1.
         11    1    4    4    0    0  0.20056858026E+02  0.56392049894E+02 -0.67342612785E+02  0.90096439118E+02  0.00000000000E+00 0. -1.
         -1    1    1    2    0  502  0.19148970320E+02  0.26400170913E+02 -0.82850462722E+02  0.89038481916E+02  0.00000000000E+00 0.  1.
<scales pt_clust_5="13000.00000" pt_clust_6="13000.00000" pt_clust_7="13000.00000" pt_clust_8="13000.00000" pt_clust_9="32.61368"></scales>
<clustering>
<clus scale="   32.614">  2  9  1 -1</clus>
<clus scale="   78.360">  5  6 -1 -1</clus>
<clus scale="   91.400">  7  8 -1 -1</clus>
<clus scale="   93.912">  1  5  2 -1</clus>
<clus scale="   32.614">  2  5  1 -1</clus>
</clustering>
</event>
<event>
 9    1  0.8429841E-005  0.1398909E+03  0.7546771E-02  0.1229926E+00
         21   -1    0    0  501  502  0.00000000000E+00  0.00000000000E+00  0.16029083319E+03  0.16029083319E+03  0.00000000000E+00 0.  1.
          1   -1    0    0  502    0 -0.00000000000E+00 -0.00000000000E+00 -0.27336775076E+03  0.27336775076E+03  0.00000000000E+00 0. -1.
         23    2    1    2    0    0 -0.76670368295E+00 -0.37959756885E+02  0.38713787687E+02  0.10642054014E+03  0.91569880576E+02 0.  0.
        -24    2    1    2    0    0  0.11747720107E+03  0.43012020502E+02 -0.15141327695E+03  0.21041763455E+03  0.75489560975E+02 0.  0.
         11    1    4    4    0    0  0.10149069302E+03  0.61751485162E+02 -0.13894583482E+03  0.18281015208E+03  0.00000000000E+00 0. -1.
        -12    1    4    4    0    0  0.15986508051E+02 -0.18739464660E+02 -0.12467442128E+02  0.27607482475E+02  0.00000000000E+00 0.  1.
        -13    1    3    3    0    0 -0.29600232709E+02 -0.37784597514E+02 -0.10730220654E+02  0.49183200597E+02  0.00000000000E+00 0. -1.
         13    1    3    3    0    0  0.28833529026E+02 -0.17515937192E+00  0.49444008341E+02  0.57237339541E+02  0.00000000000E+00 0.  1.
          2    1    1    2  501    0 -0.11671049739E+03 -0.50522636169E+01 -0.37742830674E+00  0.11682040926E+03  0.00000000000E+00 0. -1.
<scales pt_clust_5="13000.00000" pt_clust_6="13000.00000" pt_clust_7="13000.00000" pt_clust_8="13000.00000" pt_clust_9="117.77427"></scales>
<clustering>
<clus scale="   75.490">  5  6 -1 -1</clus>
<clus scale="   91.570">  7  8 -1 -1</clus>
<clus scale="   99.129">  2  7  1 -1</clus>
<clus scale="  117.774">  1  9  2 -1</clus>
<clus scale="  117.774">  1  5  2 -1</clus>
</clustering>
</event>
<event>
 9    1  0.8429841E-005  0.1041647E+03  0.7546771E-02  0.1275821E+00
         21   -1    0    0  501  502  0.00000000000E+00  0.00000000000E+00  0.40692787138E+02  0.40692787138E+02  0.00000000000E+00 0. -1.
          1   -1    0    0  502    0 -0.00000000000E+00 -0.00000000000E+00 -0.39021818073E+03  0.39021818073E+03  0.00000000000E+00 0. -1.
        -24    2    1    2    0    0  0.53630822420E+02 -0.11773939945E+02 -0.21075890218E+03  0.23227883599E+03  0.80741885206E+02 0.  0.
         23    2    1    2    0    0 -0.37886002985E+02  0.36457541066E+02 -0.74625598985E+02  0.12812515644E+03  0.89903137693E+02 0.  0.
         11    1    3    3    0    0  0.48580434353E+02  0.28984815275E+02 -0.12130953733E+03  0.13385134278E+03  0.00000000000E+00 0. -1.
        -12    1    3    3    0    0  0.50503880663E+01 -0.40758755221E+02 -0.89449364854E+02  0.98427493210E+02  0.00000000000E+00 0.  1.
        -13    1    4    4    0    0 -0.16925608176E+02  0.26436112705E+02 -0.93222746516E+02  0.98365770139E+02  0.00000000000E+00 0.  1.
         13    1    4    4    0    0 -0.20960394809E+02  0.10021428361E+02  0.18597147531E+02  0.29759386304E+02  0.00000000000E+00 0. -1.
          2    1    1    2  501    0 -0.15744819435E+02 -0.24683601121E+02 -0.64140892427E+02  0.70506975432E+02  0.00000000000E+00 0. -1.
<scales pt_clust_5="13000.00000" pt_clust_6="13000.00000" pt_clust_7="13000.00000" pt_clust_8="13000.00000" pt_clust_9="29.27764"></scales>
<clustering>
<clus scale="   29.278">  1  9  2 -1</clus>
<clus scale="   80.742">  5  6 -1 -1</clus>
<clus scale="   89.903">  7  8 -1 -1</clus>
<clus scale="   96.369">  2  5  1 -1</clus>
<clus scale="   29.278">  1  5  2 -1</clus>
</clustering>
</event>
<event>
 9    1  0.8429841E-005  0.9647389E+02  0.7546771E-02  0.1294468E+00
         21   -1    0    0  501  502  0.00000000000E+00  0.00000000000E+00  0.39856884790E+02  0.39856884790E+02  0.00000000000E+00 0.  1.
          1   -1    0    0  502    0 -0.00000000000E+00 -0.00000000000E+00 -0.57145333719E+03  0.57145333719E+03  0.00000000000E+00 0. -1.
         23    2    1    2    0    0  0.21652992139E+02  0.12762735261E+02 -0.38234784858E+03  0.39413029801E+03  0.92288000373E+02 0.  0.
        -24    2    1    2    0    0 -0.55849391241E+01 -0.58819263251E+02 -0.63023535204E+02  0.11811353938E+03  0.80547780364E+02 0.  0.
         13    1    4    4    0    0 -0.15478028726E+02 -0.20784187790E+02 -0.73086740069E+02  0.77544976686E+02  0.00000000000E+00 0. -1.
        -14    1    4    4    0    0  0.98930896020E+01 -0.38035075461E+02  0.10063204864E+02  0.40568562697E+02  0.00000000000E+00 0.  1.
        -13    1    3    3    0    0 -0.13396490802E+02  0.45512322932E+02 -0.20400948505E+03  0.20945335399E+03  0.00000000000E+00 0.  1.
         13    1    3    3    0    0  0.35049482941E+02 -0.32749587671E+02 -0.17833836353E+03  0.18467694402E+03  0.00000000000E+00 0. -1.
          2    1    1    2  501    0 -0.16068053015E+02  0.46056527990E+02 -0.86225068612E+02  0.99066384588E+02  0.00000000000E+00 0. -1.
<scales pt_clust_5="13000.00000" pt_clust_6="13000.00000" pt_clust_7="13000.00000" pt_clust_8="13000.00000" pt_clust_9="48.77898"></scales>
<clustering>
<clus scale="   48.779">  1  9  2 -1</clus>
<clus scale="   80.548">  5  6 -1 -1</clus>
<clus scale="   85.312">  1  5  2 -1</clus>
<clus scale="   92.288">  7  8 -1 -1</clus>
<clus scale="   48.779">  1  5  2 -1</clus>
</clustering>
</event>
<event>
 9    1  0.8429841E-005  0.1020779E+03  0.7546771E-02  0.1283683E+00
         21   -1    0    0  501  502  0.00000000000E+00  0.00000000000E+00  0.57198426709E+03  0.57198426709E+03  0.00000000000E+00 0.  1.
         -2   -1    0    0    0  501 -0.00000000000E+00 -0.00000000000E+00 -0.39766984792E+02  0.39766984792E+02  0.00000000000E+00 0.  1.
         23    2    1    2    0    0 -0.22355311324E+02 -0.65182171179E+01  0.85273309332E+02  0.12948566449E+03  0.94618988181E+02 0.  0.
        -24    2    1    2    0    0  0.60315218250E+02 -0.54826878287E+00  0.13445072924E+03  0.16739590462E+03  0.79411360265E+02 0.  0.
         11    1    4    4    0    0  0.42005972293E+02  0.25426736771E+02  0.12491120670E+03  0.13421561090E+03  0.00000000000E+00 0. -1.
        -12    1    4    4    0    0  0.18309245957E+02 -0.25975005553E+02  0.95395225462E+01  0.33180293721E+02  0.00000000000E+00 0.  1.
        -11    1    3    3    0    0  0.72208365023E+00 -0.29696051945E+02 -0.79007537498E+01  0.30737579861E+02  0.00000000000E+00 0.  1.
         11    1    3    3    0    0 -0.23077394974E+02  0.23177834827E+02  0.93174063082E+02  0.98748084626E+02  0.00000000000E+00 0. -1.
         -1    1    1    2    0  502 -0.37959906926E+02  0.70664859007E+01  0.31249324372E+03  0.31486968277E+03  0.00000000000E+00 0.  1.
<scales pt_clust_5="13000.00000" pt_clust_6="13000.00000" pt_clust_7="13000.00000" pt_clust_8="13000.00000" pt_clust_9="38.61204"></scales>
<clustering>
<clus scale="   38.612">  1  9  2 -1</clus>
<clus scale="   79.411">  5  6 -1 -1</clus>
<clus scale="   88.166">  1  5  2 -1</clus>
<clus scale="   94.619">  7  8 -1 -1</clus>
<clus scale="   38.612">  1  5  2 -1</clus>
</clustering>
</event>
<event>
 9    1  0.8429841E-005  0.1424606E+03  0.7546771E-02  0.1230889E+00
         21   -1    0    0  501  502  0.00000000000E+00  0.00000000000E+00  0.22237568598E+03  0.22237568598E+03  0.00000000000E+00 0. -1.
          1   -1    0    0  502    0 -0.00000000000E+00 -0.00000000000E+00 -0.23575216150E+03  0.23575216150E+03  0.00000000000E+00 0. -1.
        -24    2    1    2    0    0  0.34615277354E+02 -0.48238838657E+02 -0.13659746219E+03  0.16469868990E+03  0.70296435178E+02 0.  0.
         23    2    1    2    0    0 -0.11011893646E+03 -0.32346939864E+02  0.10709130920E+03  0.18182702170E+03  0.91760626775E+02 0.  0.
         13    1    3    3    0    0  0.21619024597E+02 -0.57055649451E+02 -0.13591177533E+03  0.14897899192E+03  0.00000000000E+00 0. -1.
        -14    1    3    3    0    0  0.12996252756E+02  0.88168107937E+01 -0.68568685369E+00  0.15719697985E+02  0.00000000000E+00 0.  1.
        -11    1    4    4    0    0 -0.42711111229E+02 -0.31342255904E+02 -0.26381670979E+01  0.53042774750E+02  0.00000000000E+00 0.  1.
         11    1    4    4    0    0 -0.67407825234E+02 -0.10046839598E+01  0.10972947630E+03  0.12878424694E+03  0.00000000000E+00 0. -1.
          2    1    1    2  501    0  0.75503659110E+02  0.80585778521E+02  0.16129677471E+02  0.11160213588E+03  0.00000000000E+00 0. -1.
<scales pt_clust_5="13000.00000" pt_clust_6="13000.00000" pt_clust_7="13000.00000" pt_clust_8="13000.00000" pt_clust_9="108.97263"></scales>
<clustering>
<clus scale="   70.296">  5  6 -1 -1</clus>
<clus scale="   91.761">  7  8 -1 -1</clus>
<clus scale="   92.015">  2  5  1 -1</clus>
<clus scale="  108.973">  1  9  2 -1</clus>
<clus scale="  108.973">  1  5  2 -1</clus>
</clustering>
</event>
<event>
 9    1  0.8429841E-005  0.1261829E+03  0.7546771E-02  0.1235784E+00
          1   -1    0    0  502    0 -0.00000000000E+00  0.00000000000E+00  0.12714601130E+03  0.12714601130E+03  0.00000000000E+00 0. -1.
         21   -1    0    0  501  502  0.00000000000E+00 -0.00000000000E+00 -0.31146590219E+03  0.31146590219E+03  0.00000000000E+00 0.  1.
         23    2    1    2    0    0 -0.10562601669E+03 -0.32634982729E+00  0.52063625880E+02  0.14954283792E+03  0.92170913675E+02 0.  0.
        -24    2    1    2    0    0  0.32330242699E+02 -0.16512848944E+02 -0.11864560127E+03  0.14936207557E+03  0.83152463252E+02 0.  0.
         11    1    4    4    0    0  0.21409623319E+02 -0.50060070677E+02 -0.60877281877E+02  0.81672676555E+02  0.00000000000E+00 0. -1.
        -12    1    4    4    0    0  0.10920619379E+02  0.33547221733E+02 -0.57768319390E+02  0.67689399013E+02  0.00000000000E+00 0.  1.
        -13    1    3    3    0    0 -0.10754876629E+03 -0.20840068136E+02  0.62838144594E+02  0.12629203453E+03  0.00000000000E+00 0. -1.
         13    1    3    3    0    0  0.19227495942E+01  0.20513718309E+02 -0.10774518714E+02  0.23250803392E+02  0.00000000000E+00 0.  1.
          2    1    1    2  501    0  0.73295773996E+02  0.16839198771E+02 -0.11773791550E+03  0.13970699999E+03  0.00000000000E+00 0. -1.
<scales pt_clust_5="13000.00000" pt_clust_6="13000.00000" pt_clust_7="13000.00000" pt_clust_8="13000.00000" pt_clust_9="75.20525"></scales>
<clustering>
<clus scale="   75.205">  2  9  1 -1</clus>
<clus scale="   83.152">  5  6 -1 -1</clus>
<clus scale="   92.171">  7  8 -1 -1</clus>
<clus scale="  119.754">  2  5  1 -1</clus>
<clus scale="   75.205">  2  5  1 -1</clus>
</clustering>
</event>
<event>
 9    1  0.8429841E-005  0.2345720E+03  0.7546771E-02  0.1159400E+00
         -2   -1    0    0    0  501 -0.00000000000E+00  0.00000000000E+00  0.69283273208E+03  0.69283273208E+03  0.00000000000E+00 0.  1.
         21   -1    0    0  501  502  0.00000000000E+00 -0.00000000000E+00 -0.13722493680E+03  0.13722493680E+03  0.00000000000E+00 0.  1.
        -24    2    1    2    0    0  0.29536397522E+02 -0.47394032281E+02  0.12906226268E+03  0.16252709613E+03  0.81482490475E+02 0.  0.
         23    2    1    2    0    0 -0.23843418919E+03  0.40987159512E+02  0.36954914728E+03  0.45090203511E+03  0.90638089051E+02 0.  0.
         13    1    3    3    0    0 -0.23544327250E+02 -0.25258307859E+02  0.79238594498E+02  0.86435364982E+02  0.00000000000E+00 0. -1.
        -14    1    3    3    0    0  0.53080724772E+02 -0.22135724421E+02  0.49823668180E+02  0.76091731146E+02  0.00000000000E+00 0.  1.
        -13    1    4    4    0    0 -0.18560013143E+03  0.62383265502E+02  0.32110550638E+03  0.37609550227E+03  0.00000000000E+00 0.  1.
         13    1    4    4    0    0 -0.52834057760E+02 -0.21396105991E+02  0.48443640903E+02  0.74806532836E+02  0.00000000000E+00 0. -1.
         -1    1    1    2    0  502  0.20889779167E+03  0.64068727690E+01  0.56996385317E+02  0.21662853765E+03  0.00000000000E+00 0.  1.
<scales pt_clust_5="13000.00000" pt_clust_6="13000.00000" pt_clust_7="13000.00000" pt_clust_8="13000.00000" pt_clust_9="216.35331"></scales>
<clustering>
<clus scale="   81.482">  5  6 -1 -1</clus>
<clus scale="   90.638">  7  8 -1 -1</clus>
<clus scale="   98.783">  1  5  2 -1</clus>
<clus scale="  216.353">  2  9  1 -1</clus>
<clus scale="  216.353">  2  5  1 -1</clus>
</clustering>
</event>
<event>
 9    1  0.8429841E-005  0.9509160E+02  0.7546771E-02  0.1295973E+00
         21   -1    0    0  501  502  0.00000000000E+00  0.00000000000E+00  0.91013514087E+02  0.91013514087E+02  0.00000000000E+00 0. -1.
          1   -1    0    0  502    0 -0.00000000000E+00 -0.00000000000E+00 -0.21767823811E+03  0.21767823811E+03  0.00000000000E+00 0. -1.
         23    2    1    2    0    0  0.14804040978E+02 -0.27822293035E+02 -0.16469207926E+03  0.19006407874E+03  0.89485381153E+02 0.  0.
        -24    2    1    2    0    0  0.16120043715E+01  0.39263197785E+02  0.20076581871E+02  0.91746246589E+02  0.80436977598E+02 0.  0.
         13    1    4    4    0    0  0.36432985073E+02  0.40012015681E+02  0.70974218763E+01  0.54577442203E+02  0.00000000000E+00 0. -1.
        -14    1    4    4    0    0 -0.34820980702E+02 -0.74881789556E+00  0.12979159995E+02  0.37168804385E+02  0.00000000000E+00 0.  1.
        -13    1    3    3    0    0  0.20762272003E+02 -0.59298403612E+02 -0.11035819805E+03  0.12698938730E+03  0.00000000000E+00 0. -1.
         13    1    3    3    0    0 -0.59582310248E+01  0.31476110577E+02 -0.54333881201E+02  0.63074691441E+02  0.00000000000E+00 0.  1.
          2    1    1    2  501    0 -0.16416045350E+02 -0.11440904750E+02  0.17950773357E+02  0.26881426870E+02  0.00000000000E+00 0. -1.
<scales pt_clust_5="13000.00000" pt_clust_6="13000.00000" pt_clust_7="13000.00000" pt_clust_8="13000.00000" pt_clust_9="20.00952"></scales>
<clustering>
<clus scale="   20.010">  1  9  2 -1</clus>
<clus scale="   80.437">  5  6 -1 -1</clus>
<clus scale="   86.631">  1  5  2 -1</clus>
<clus scale="   89.485">  7  8 -1 -1</clus>
<clus scale="   20.010">  1  5  2 -1</clus>
</clustering>
</event>
<event>
 9    1  0.8429841E-005  0.1023158E+03  0.7546771E-02  0.1281136E+00
         -2   -1    0    0    0  501 -0.00000000000E+00  0.00000000000E+00  0.42024792965E+03  0.42024792965E+03  0.00000000000E+00 0.  1.
         21   -1    0    0  501  502  0.00000000000E+00 -0.00000000000E+00 -0.62894961138E+02  0.62894961138E+02  0.00000000000E+00 0. -1.
        -24    2    1    2    0    0 -0.48647773464E+02 -0.10449757096E+02  0.26260500516E+03  0.27873363357E+03  0.79090116084E+02 0.  0.
         23    2    1    2    0    0  0.38301639344E+02 -0.56156329284E+02  0.55657837998E+02  0.12648974019E+03  0.91001706284E+02 0.  0.
         11    1    3    3    0    0 -0.82441674759E+01 -0.32493385325E+02  0.43887609786E+02  0.55225978307E+02  0.00000000000E+00 0. -1.
        -12    1    3    3    0    0 -0.40403605988E+02  0.22043628229E+02  0.21871739538E+03  0.22350765527E+03  0.00000000000E+00 0.  1.
        -11    1    4    4    0    0  0.20416460201E+02 -0.33053094846E+02 -0.21205493257E+02  0.44260726048E+02  0.00000000000E+00 0. -1.
         11    1    4    4    0    0  0.17885179143E+02 -0.23103234438E+02  0.76863331255E+02  0.82229014138E+02  0.00000000000E+00 0.  1.
         -1    1    1    2    0  502  0.10346134120E+02  0.66606086380E+02  0.39090125350E+02  0.77919517028E+02  0.00000000000E+00 0.  1.
<scales pt_clust_5="13000.00000" pt_clust_6="13000.00000" pt_clust_7="13000.00000" pt_clust_8="13000.00000" pt_clust_9="67.40485"></scales>
<clustering>
<clus scale="   67.405">  2  9  1 -1</clus>
<clus scale="   79.090">  5  6 -1 -1</clus>
<clus scale="   91.002">  7  8 -1 -1</clus>
<clus scale="   91.883">  1  5  2 -1</clus>
<clus scale="   67.405">  2  5  1 -1</clus>
</clustering>
</event>
<event>
 9    1  0.8429841E-005  0.1731239E+03  0.7546771E-02  0.1176778E+00
         21   -1    0    0  501  502  0.00000000000E+00  0.00000000000E+00  0.10139705434E+04  0.10139705434E+04  0.00000000000E+00 0.  1.
          1   -1    0    0  502    0 -0.00000000000E+00 -0.00000000000E+00 -0.64337653460E+02  0.64337653460E+02  0.00000000000E+00 0. -1.
         23    2    1    2    0    0  0.11068694298E+03 -0.86210077066E+02  0.91195574931E+02  0.19348168292E+03  0.97132651592E+02 0.  0.
        -24    2    1    2    0    0 -0.13762177743E+03  0.84243664743E+02  0.80373489848E+03  0.82382072356E+03  0.81572353615E+02 0.  0.
         11    1    4    4    0    0  0.17518785636E+01  0.30255310494E+02  0.10543379743E+03  0.10970295590E+03  0.00000000000E+00 0. -1.
        -12    1    4    4    0    0 -0.13937365600E+03  0.53988354249E+02  0.69830110104E+03  0.71411776767E+03  0.00000000000E+00 0.  1.
        -13    1    3    3    0    0  0.21464033975E+02  0.46362598414E+01 -0.15890073181E+02  0.27105240923E+02  0.00000000000E+00 0.  1.
         13    1    3    3    0    0  0.89222909003E+02 -0.90846336908E+02  0.10708564811E+03  0.16637644200E+03  0.00000000000E+00 0. -1.
          2    1    1    2  501    0  0.26934834455E+02  0.19664123238E+01  0.54702416534E+02  0.61005790374E+02  0.00000000000E+00 0. -1.
<scales pt_clust_5="13000.00000" pt_clust_6="13000.00000" pt_clust_7="13000.00000" pt_clust_8="13000.00000" pt_clust_9="27.00652"></scales>
<clustering>
<clus scale="   27.007">  1  9  2 -1</clus>
<clus scale="   81.572">  5  6 -1 -1</clus>
<clus scale="   97.133">  7  8 -1 -1</clus>
<clus scale="  164.898">  1  5  2 -1</clus>
<clus scale="   27.007">  1  5  2 -1</clus>
</clustering>
</event>
<event>
 9    1  0.8429841E-005  0.1340541E+03  0.7546771E-02  0.1241137E+00
         21   -1    0    0  501  502  0.00000000000E+00  0.00000000000E+00  0.96135113796E+02  0.96135113796E+02  0.00000000000E+00 0. -1.
          1   -1    0    0  502    0 -0.00000000000E+00 -0.00000000000E+00 -0.40551136739E+03  0.40551136739E+03  0.00000000000E+00 0. -1.
         23    2    1    2    0    0  0.29416670352E+01  0.10445267504E+01 -0.24092436114E+03  0.25703196758E+03  0.89504972632E+02 0.  0.
        -24    2    1    2    0    0 -0.66784565989E+02  0.73794607998E+02 -0.23823637711E+02  0.13659371488E+03  0.90467976690E+02 0.  0.
         11    1    4    4    0    0 -0.86011992815E+02  0.74539839071E+02 -0.27288569167E+02  0.11704237064E+03  0.00000000000E+00 0. -1.
        -12    1    4    4    0    0  0.19227426826E+02 -0.74523107279E+00  0.34649314567E+01  0.19551344242E+02  0.00000000000E+00 0.  1.
        -13    1    3    3    0    0  0.45407645844E+02 -0.79231919438E+01 -0.12890226401E+03  0.13689567173E+03  0.00000000000E+00 0. -1.
         13    1    3    3    0    0 -0.42465978809E+02  0.89677186942E+01 -0.11202209714E+03  0.12013629585E+03  0.00000000000E+00 0.  1.
          2    1    1    2  501    0  0.63842898954E+02 -0.74839134749E+02 -0.44628254743E+02  0.10802079873E+03  0.00000000000E+00 0. -1.
<scales pt_clust_5="13000.00000" pt_clust_6="13000.00000" pt_clust_7="13000.00000" pt_clust_8="13000.00000" pt_clust_9="98.92447"></scales>
<clustering>
<clus scale="   89.505">  7  8 -1 -1</clus>
<clus scale="   89.559">  2  7  1 -1</clus>
<clus scale="   90.468">  5  6 -1 -1</clus>
<clus scale="   98.924">  1  9  2 -1</clus>
<clus scale="   98.924">  1  5  2 -1</clus>
</clustering>
</event>
<event>
 9    1  0.8429841E-005  0.1103094E+03  0.7546771E-02  0.1263872E+00
         21   -1    0    0  501  502  0.00000000000E+00  0.00000000000E+00  0.73654123480E+02  0.73654123480E+02  0.00000000000E+00 0. -1.
          1   -1    0    0  502    0 -0.00000000000E+00 -0.00000000000E+00 -0.70462260436E+03  0.70462260436E+03  0.00000000000E+00 0. -1.
         23    2    1    2    0    0 -0.63949062242E+02 -0.29622528882E+02 -0.51158405102E+03  0.52442056641E+03  0.91278214466E+02 0.  0.
        -24    2    1    2    0    0  0.22477130962E+02  0.48764755223E+02 -0.16350193097E+03  0.19035261965E+03  0.81351186895E+02 0.  0.
         13    1    4    4    0    0 -0.24494722707E+02  0.49425314476E+01 -0.16547248919E+02  0.29970510580E+02  0.00000000000E+00 0. -1.
        -14    1    4    4    0    0  0.46971853669E+02  0.43822223776E+02 -0.14695468205E+03  0.16038210907E+03  0.00000000000E+00 0.  1.
        -11    1    3    3    0    0 -0.17266623218E+02  0.32923354469E+02 -0.15515067390E+03  0.15954251834E+03  0.00000000000E+00 0.  1.
         11    1    3    3    0    0 -0.46682439024E+02 -0.62545883351E+02 -0.35643337712E+03  0.36487804807E+03  0.00000000000E+00 0. -1.
          2    1    1    2  501    0  0.41471931280E+02 -0.19142226341E+02  0.44117501114E+02  0.63503541775E+02  0.00000000000E+00 0. -1.
<scales pt_clust_5="13000.00000" pt_clust_6="13000.00000" pt_clust_7="13000.00000" pt_clust_8="13000.00000" pt_clust_9="45.67654"></scales>
<clustering>
<clus scale="   45.677">  1  9  2 -1</clus>
<clus scale="   81.351">  5  6 -1 -1</clus>
<clus scale="   91.278">  7  8 -1 -1</clus>
<clus scale="  102.247">  1  5  2 -1</clus>
<clus scale="   45.677">  1  5  2 -1</clus>
</clustering>
</event>
<event>
 9    1  0.8429841E-005  0.1159403E+03  0.7546771E-02  0.1253125E+00
         21   -1    0    0  501  502  0.00000000000E+00  0.00000000000E+00  0.59589201265E+02  0.59589201265E+02  0.00000000000E+00 0.  1.
         -2   -1    0    0    0  501 -0.00000000000E+00 -0.00000000000E+00 -0.74984214790E+03  0.74984214790E+03  0.00000000000E+00 0.  1.
        -24    2    1    2    0    0  0.35693470230E+02 -0.71599030577E+02 -0.58214689282E+03  0.59307815545E+03  0.80288533714E+02 0.  0.
         23    2    1    2    0    0 -0.24061042989E+02  0.47065333238E+02 -0.13999980244E+03  0.17446731458E+03  0.89692919407E+02 0.  0.
         11    1    3    3    0    0 -0.24075058141E+02 -0.36983078379E+02 -0.21246527966E+03  0.21699965800E+03  0.00000000000E+00 0. -1.
        -12    1    3    3    0    0  0.59768528371E+02 -0.34615952198E+02 -0.36968161316E+03  0.37607849744E+03  0.00000000000E+00 0.  1.
        -11    1    4    4    0    0 -0.37992586385E+02  0.70149976642E+01 -0.13300201866E+02  0.40860031597E+02  0.00000000000E+00 0.  1.
         11    1    4    4    0    0  0.13931543396E+02  0.40050335573E+02 -0.12669960058E+03  0.13360728299E+03  0.00000000000E+00 0. -1.
         -1    1    1    2    0  502 -0.11632427241E+02  0.24533697339E+02  0.31893748635E+02  0.41885879132E+02  0.00000000000E+00 0.  1.
<scales pt_clust_5="13000.00000" pt_clust_6="13000.00000" pt_clust_7="13000.00000" pt_clust_8="13000.00000" pt_clust_9="27.15172"></scales>
<clustering>
<clus scale="   27.152">  1  9  2 -1</clus>
<clus scale="   80.289">  5  6 -1 -1</clus>
<clus scale="   89.693">  7  8 -1 -1</clus>
<clus scale="  108.828">  2  5  1 -1</clus>
<clus scale="   27.152">  1  5  2 -1</clus>
</clustering>
</event>
<event>
 9    1  0.8429841E-005  0.9329980E+02  0.7546771E-02  0.1303079E+00
         21   -1    0    0  501  502  0.00000000000E+00  0.00000000000E+00  0.11399303700E+03  0.11399303700E+03  0.00000000000E+00 0. -1.
          3   -1    0    0  502    0 -0.00000000000E+00 -0.00000000000E+00 -0.30666341830E+03  0.30666341830E+03  0.00000000000E+00 0. -1.
         23    2    1    2    0    0  0.56488245933E+01  0.21598488763E+02 -0.25398471433E+03  0.27076167653E+03  0.91133124754E+02 0.  0.
        -24    2    1    2    0    0 -0.22133106295E+02 -0.15371755485E+01 -0.24376304093E+01  0.81058010435E+02  0.77924461569E+02 0.  0.
         11    1    4    4    0    0 -0.50551379656E+02 -0.94530312485E+01  0.32619493605E+00  0.51428670875E+02  0.00000000000E+00 0. -1.
        -12    1    4    4    0    0  0.28418273360E+02  0.79158557000E+01 -0.27638253453E+01  0.29629339560E+02  0.00000000000E+00 0.  1.
        -13    1    3    3    0    0  0.26369101461E+02 -0.23863435230E+02 -0.16424992359E+03  0.16805603366E+03  0.00000000000E+00 0.  1.
         13    1    3    3    0    0 -0.20720276868E+02  0.45461923993E+02 -0.89734790749E+02  0.10270564287E+03  0.00000000000E+00 0. -1.
          4    1    1    2  501    0  0.16484281702E+02 -0.20061313214E+02  0.63751963450E+02  0.68836768335E+02  0.00000000000E+00 0. -1.
<scales pt_clust_5="13000.00000" pt_clust_6="13000.00000" pt_clust_7="13000.00000" pt_clust_8="13000.00000" pt_clust_9="25.96513"></scales>
<clustering>
<clus scale="   25.965">  1  9  2 -1</clus>
<clus scale="   77.924">  5  6 -1 -1</clus>
<clus scale="   80.448">  1  5  2 -1</clus>
<clus scale="   91.133">  7  8 -1 -1</clus>
<clus scale="   25.965">  1  5  2 -1</clus>
</clustering>
</event>
<event>
 9    1  0.8429841E-005  0.1261148E+03  0.7546771E-02  0.1237121E+00
         21   -1    0    0  501  502  0.00000000000E+00  0.00000000000E+00  0.22251709088E+03  0.22251709088E+03  0.00000000000E+00 0. -1.
          1   -1    0    0  502    0 -0.00000000000E+00 -0.00000000000E+00 -0.12174446362E+03  0.12174446362E+03  0.00000000000E+00 0. -1.
         23    2    1    2    0    0  0.76890178094E+02 -0.60022438301E+02 -0.86867873091E+01  0.13434795310E+03  0.91973472492E+02 0.  0.
        -24    2    1    2    0    0 -0.27207923376E+02  0.61703082751E+02  0.12060907893E+03  0.15896788504E+03  0.78591965478E+02 0.  0.
         13    1    4    4    0    0 -0.51520533923E+02  0.58890705859E+02  0.99982643854E+02  0.12696066211E+03  0.00000000000E+00 0. -1.
        -14    1    4    4    0    0  0.24312610547E+02  0.28123768915E+01  0.20626435076E+02  0.32007222924E+02  0.00000000000E+00 0.  1.
        -13    1    3    3    0    0 -0.20287369908E+02 -0.18653863412E+02  0.44530723559E+01  0.27917267978E+02  0.00000000000E+00 0.  1.
         13    1    3    3    0    0  0.97177548002E+02 -0.41368574889E+02 -0.13139859665E+02  0.10643068512E+03  0.00000000000E+00 0. -1.
          2    1    1    2  501    0 -0.49682254719E+02 -0.16806444494E+01 -0.11149664359E+02  0.50945716356E+02  0.00000000000E+00 0. -1.
<scales pt_clust_5="13000.00000" pt_clust_6="13000.00000" pt_clust_7="13000.00000" pt_clust_8="13000.00000" pt_clust_9="49.71070"></scales>
<clustering>
<clus scale="   49.711">  1  9  2 -1</clus>
<clus scale="   78.592">  5  6 -1 -1</clus>
<clus scale="   91.973">  7  8 -1 -1</clus>
<clus scale="  116.716">  1  5  2 -1</clus>
<clus scale="   49.711">  1  5  2 -1</clus>
</clustering>
</event>
<event>
 9    1  0.8429841E-005  0.1299035E+03  0.7546771E-02  0.1229756E+00
         21   -1    0    0  501  502  0.00000000000E+00  0.00000000000E+00  0.84176229030E+02  0.84176229030E+02  0.00000000000E+00 0. -1.
          1   -1    0    0  502    0 -0.00000000000E+00 -0.00000000000E+00 -0.84610672480E+03  0.84610672480E+03  0.00000000000E+00 0. -1.
        -24    2    1    2    0    0 -0.98883605272E+02 -0.39165377744E+01 -0.58983445304E+03  0.60358677468E+03  0.81357273276E+02 0.  0.
         23    2    1    2    0    0  0.69692546388E+02  0.72056350989E+02 -0.20529677542E+03  0.24547154794E+03  0.89779430314E+02 0.  0.
         11    1    3    3    0    0 -0.98624520145E+02  0.11546480327E+02 -0.56921961973E+03  0.57781579475E+03  0.00000000000E+00 0. -1.
        -12    1    3    3    0    0 -0.25908512777E+00 -0.15463018101E+02 -0.20614833309E+02  0.25770979924E+02  0.00000000000E+00 0.  1.
        -11    1    4    4    0    0  0.65159232833E+02  0.92634113895E+02 -0.16744444916E+03  0.20214956897E+03  0.00000000000E+00 0. -1.
         11    1    4    4    0    0  0.45333135548E+01 -0.20577762906E+02 -0.37852326269E+02  0.43321978971E+02  0.00000000000E+00 0.  1.
          2    1    1    2  501    0  0.29191058885E+02 -0.68139813215E+02  0.33200732697E+02  0.81224631211E+02  0.00000000000E+00 0. -1.
<scales pt_clust_5="13000.00000" pt_clust_6="13000.00000" pt_clust_7="13000.00000" pt_clust_8="13000.00000" pt_clust_9="74.12929"></scales>
<clustering>
<clus scale="   74.129">  1  9  2 -1</clus>
<clus scale="   81.357">  5  6 -1 -1</clus>
<clus scale="   89.779">  7  8 -1 -1</clus>
<clus scale="  124.232">  2  5  1 -1</clus>
<clus scale="   74.129">  1  5  2 -1</clus>
</clustering>
</event>
<event>
 9    1  0.8429841E-005  0.1146578E+03  0.7546771E-02  0.1255436E+00
         -4   -1    0    0    0  501 -0.00000000000E+00  0.00000000000E+00  0.18760631480E+03  0.18760631480E+03  0.00000000000E+00 0.  1.
         21   -1    0    0  501  502  0.00000000000E+00 -0.00000000000E+00 -0.14091146795E+03  0.14091146795E+03  0.00000000000E+00 0. -1.
        -24    2    1    2    0    0 -0.47584364543E+02  0.54420821271E+02  0.13046623549E+03  0.17038077117E+03  0.82354544777E+02 0.  0.
         23    2    1    2    0    0  0.25707548101E+02 -0.45650547935E+02 -0.83585433993E+02  0.13456695916E+03  0.91525358044E+02 0.  0.
         11    1    3    3    0    0 -0.79110631550E+01 -0.18474546552E+02  0.53666165029E+02  0.57305768117E+02  0.00000000000E+00 0. -1.
        -12    1    3    3    0    0 -0.39673301388E+02  0.72895367823E+02  0.76800070461E+02  0.11307500305E+03  0.00000000000E+00 0.  1.
        -13    1    4    4    0    0  0.60086296787E+02 -0.32948292417E+02 -0.49701469091E+02  0.84653346446E+02  0.00000000000E+00 0.  1.
         13    1    4    4    0    0 -0.34378748686E+02 -0.12702255518E+02 -0.33883964903E+02  0.49913612712E+02  0.00000000000E+00 0. -1.
         -3    1    1    2    0  502  0.21876816441E+02 -0.87702733360E+01 -0.18595464839E+00  0.23570052421E+02  0.00000000000E+00 0.  1.
<scales pt_clust_5="13000.00000" pt_clust_6="13000.00000" pt_clust_7="13000.00000" pt_clust_8="13000.00000" pt_clust_9="23.56932"></scales>
<clustering>
<clus scale="   23.569">  2  9  1 -1</clus>
<clus scale="   82.355">  5  6 -1 -1</clus>
<clus scale="   91.525">  7  8 -1 -1</clus>
<clus scale="  107.479">  1  5  2 -1</clus>
<clus scale="   23.569">  2  5  1 -1</clus>
</clustering>
</event>
<event>
 9    1  0.8429841E-005  0.9757174E+02  0.7546771E-02  0.1291344E+00
         21   -1    0    0  501  502  0.00000000000E+00  0.00000000000E+00  0.64991440154E+02  0.64991440154E+02  0.00000000000E+00 0. -1.
         -4   -1    0    0    0  501 -0.00000000000E+00 -0.00000000000E+00 -0.37748447780E+03  0.37748447780E+03  0.00000000000E+00 0.  1.
         23    2    1    2    0    0  0.20565118247E+02  0.17846937176E+02 -0.22709414175E+03  0.24646002296E+03  0.91811526759E+02 0.  0.
        -24    2    1    2    0    0 -0.55897962307E+02 -0.32203617474E+02 -0.11106786963E+01  0.10350088163E+03  0.80929251342E+02 0.  0.
         13    1    4    4    0    0 -0.67236526175E+02 -0.30365429242E+01  0.14006958867E+02  0.68747115880E+02  0.00000000000E+00 0. -1.
        -14    1    4    4    0    0  0.11338563868E+02 -0.29167074550E+02 -0.15117637564E+02  0.34753765752E+02  0.00000000000E+00 0.  1.
        -11    1    3    3    0    0 -0.23778834004E+02 -0.24689071989E+02 -0.77952044215E+02  0.85155765627E+02  0.00000000000E+00 0.  1.
         11    1    3    3    0    0  0.44343952251E+02  0.42536009165E+02 -0.14914209753E+03  0.16130425733E+03  0.00000000000E+00 0. -1.
         -3    1    1    2    0  502  0.35332844061E+02  0.14356680298E+02 -0.84288217204E+02  0.92515013366E+02  0.00000000000E+00 0.  1.
<scales pt_clust_5="13000.00000" pt_clust_6="13000.00000" pt_clust_7="13000.00000" pt_clust_8="13000.00000" pt_clust_9="38.13824"></scales>
<clustering>
<clus scale="   38.138">  1  9  2 -1</clus>
<clus scale="   80.929">  5  6 -1 -1</clus>
<clus scale="   87.410">  1  5  2 -1</clus>
<clus scale="   91.812">  7  8 -1 -1</clus>
<clus scale="   38.138">  1  5  2 -1</clus>
</clustering>
</event>
<event>
 9    1  0.8429841E-005  0.1009535E+03  0.7546771E-02  0.1282864E+00
          1   -1    0    0  502    0 -0.00000000000E+00  0.00000000000E+00  0.86997197261E+02  0.86997197261E+02  0.00000000000E+00 0. -1.
         21   -1    0    0  501  502  0.00000000000E+00 -0.00000000000E+00 -0.22273130436E+03  0.22273130436E+03  0.00000000000E+00 0.  1.
         23    2    1    2    0    0  0.49072210185E+01 -0.40155252090E+02  0.48913026126E+01  0.98851710559E+02  0.90062260413E+02 0.  0.
        -24    2    1    2    0    0 -0.29893395748E+02  0.47768404819E+02 -0.38684375852E+02  0.10564255991E+03  0.80550815766E+02 0.  0.
         11    1    4    4    0    0  0.22432423529E+02  0.43051140720E+01  0.67782641420E+01  0.23826298439E+02  0.00000000000E+00 0. -1.
        -12    1    4    4    0    0 -0.52325819277E+02  0.43463290747E+02 -0.45462639994E+02  0.81816261469E+02  0.00000000000E+00 0.  1.
        -11    1    3    3    0    0  0.30131143150E+02 -0.12145459299E+02  0.37070148636E+02  0.49290910815E+02  0.00000000000E+00 0. -1.
         11    1    3    3    0    0 -0.25223922131E+02 -0.28009792791E+02 -0.32178846023E+02  0.49560799744E+02  0.00000000000E+00 0.  1.
          2    1    1    2  501    0  0.24986174729E+02 -0.76131527294E+01 -0.10194103386E+03  0.10523423116E+03  0.00000000000E+00 0. -1.
<scales pt_clust_5="13000.00000" pt_clust_6="13000.00000" pt_clust_7="13000.00000" pt_clust_8="13000.00000" pt_clust_9="26.12028"></scales>
<clustering>
<clus scale="   26.120">  2  9  1 -1</clus>
<clus scale="   80.551">  5  6 -1 -1</clus>
<clus scale="   90.062">  7  8 -1 -1</clus>
<clus scale="   92.568">  2  5  1 -1</clus>
<clus scale="   26.120">  2  5  1 -1</clus>
</clustering>
</event>
<event>
 9    1  0.8429841E-005  0.9235561E+02  0.7546771E-02  0.1301551E+00
          1   -1    0    0  502    0 -0.00000000000E+00  0.00000000000E+00  0.48881333752E+03  0.48881333752E+03  0.00000000000E+00 0. -1.
         21   -1    0    0  501  502  0.00000000000E+00 -0.00000000000E+00 -0.44322398834E+02  0.44322398834E+02  0.00000000000E+00 0. -1.
        -24    2    1    2    0    0 -0.39622655402E-01 -0.25042868554E+02  0.30056990323E+03  0.31273963932E+03  0.82684148675E+02 0.  0.
         23    2    1    2    0    0  0.15340812275E+02 -0.40112780029E+01  0.21743921134E+02  0.93883184249E+02  0.89943445042E+02 0.  0.
         13    1    3    3    0    0 -0.40242029600E+02 -0.10635076486E+02  0.11447685343E+03  0.12180917769E+03  0.00000000000E+00 0. -1.
        -14    1    3    3    0    0  0.40202406945E+02 -0.14407792068E+02  0.18609304980E+03  0.19093046163E+03  0.00000000000E+00 0.  1.
        -13    1    4    4    0    0 -0.21177406844E+02  0.21859105894E+02 -0.16848943129E+02  0.34787784575E+02  0.00000000000E+00 0.  1.
         13    1    4    4    0    0  0.36518219119E+02 -0.25870383897E+02  0.38592864263E+02  0.59095399674E+02  0.00000000000E+00 0. -1.
          2    1    1    2  501    0 -0.15301189620E+02  0.29054146557E+02  0.12217711433E+03  0.12651291278E+03  0.00000000000E+00 0. -1.
<scales pt_clust_5="13000.00000" pt_clust_6="13000.00000" pt_clust_7="13000.00000" pt_clust_8="13000.00000" pt_clust_9="32.83704"></scales>
<clustering>
<clus scale="   32.837">  2  9  1 -1</clus>
<clus scale="   82.684">  5  6 -1 -1</clus>
<clus scale="   85.302">  1  5  2 -1</clus>
<clus scale="   89.943">  7  8 -1 -1</clus>
<clus scale="   32.837">  2  5  1 -1</clus>
</clustering>
</event>
<event>
 9    1  0.8429841E-005  0.9240217E+02  0.7546771E-02  0.1305515E+00
          1   -1    0    0  502    0 -0.00000000000E+00  0.00000000000E+00  0.11892887338E+03  0.11892887338E+03  0.00000000000E+00 0. -1.
         21   -1    0    0  501  502  0.00000000000E+00 -0.00000000000E+00 -0.17704231683E+03  0.17704231683E+03  0.00000000000E+00 0. -1.
         23    2    1    2    0    0  0.12618668229E+02  0.10457436867E+02  0.41184344344E+02  0.10072954584E+03  0.90452763430E+02 0.  0.
        -24    2    1    2    0    0  0.32079383611E+02 -0.30609100574E+02 -0.49590029086E+01  0.88922258920E+02  0.76919259817E+02 0.  0.
         13    1    4    4    0    0  0.27388533762E+02 -0.17771789168E+02 -0.39810655414E+02  0.51486469643E+02  0.00000000000E+00 0. -1.
        -14    1    4    4    0    0  0.46908498493E+01 -0.12837311406E+02  0.34851652505E+02  0.37435789277E+02  0.00000000000E+00 0.  1.
        -11    1    3    3    0    0 -0.27162381815E+02 -0.21585320863E+02 -0.65483273100E+00  0.34700862648E+02  0.00000000000E+00 0.  1.
         11    1    3    3    0    0  0.39781050044E+02  0.32042757730E+02  0.41839177075E+02  0.66028683191E+02  0.00000000000E+00 0. -1.
          2    1    1    2  501    0 -0.44698051840E+02  0.20151663708E+02 -0.94338784884E+02  0.10631938545E+03  0.00000000000E+00 0. -1.
<scales pt_clust_5="13000.00000" pt_clust_6="13000.00000" pt_clust_7="13000.00000" pt_clust_8="13000.00000" pt_clust_9="49.03066"></scales>
<clustering>
<clus scale="   49.031">  2  9  1 -1</clus>
<clus scale="   76.919">  5  6 -1 -1</clus>
<clus scale="   79.202">  2  5  1 -1</clus>
<clus scale="   90.453">  7  8 -1 -1</clus>
<clus scale="   49.031">  2  5  1 -1</clus>
</clustering>
</event>
<event>
 9    1  0.8429841E-005  0.2503181E+03  0.7546771E-02  0.1148139E+00
         21   -1    0    0  501  502  0.00000000000E+00  0.00000000000E+00  0.28450731228E+03  0.28450731228E+03  0.00000000000E+00 0.  1.
         -2   -1    0    0    0  501 -0.00000000000E+00 -0.00000000000E+00 -0.33241529074E+03  0.33241529074E+03  0.00000000000E+00 0.  1.
         23    2    1    2    0    0 -0.14759843414E+02 -0.30036959573E+02 -0.29252036770E+02  0.10992173623E+03  0.10053374818E+03 0.  0.
        -24    2    1    2    0    0  0.19886939485E+03 -0.12407711964E+03  0.57030087723E+02  0.25525525830E+03  0.83418512089E+02 0.  0.
         11    1    4    4    0    0  0.10167317423E+03 -0.10372656711E+03  0.10599768333E+02  0.14563306689E+03  0.00000000000E+00 0. -1.
        -12    1    4    4    0    0  0.97196220627E+02 -0.20350552524E+02  0.46430319389E+02  0.10962219142E+03  0.00000000000E+00 0.  1.
        -13    1    3    3    0    0  0.23349903651E+02  0.55325748766E+01  0.25021005488E+02  0.34668113605E+02  0.00000000000E+00 0. -1.
         13    1    3    3    0    0 -0.38109747065E+02 -0.35569534450E+02 -0.54273042258E+02  0.75253622626E+02  0.00000000000E+00 0.  1.
         -1    1    1    2    0  502 -0.18410955144E+03  0.15411407921E+03 -0.75686029418E+02  0.25174560848E+03  0.00000000000E+00 0.  1.
<scales pt_clust_5="13000.00000" pt_clust_6="13000.00000" pt_clust_7="13000.00000" pt_clust_8="13000.00000" pt_clust_9="236.00962"></scales>
<clustering>
<clus scale="   83.419">  5  6 -1 -1</clus>
<clus scale="  100.534">  7  8 -1 -1</clus>
<clus scale="  105.958">  2  7  1 -1</clus>
<clus scale="  236.010">  1  9  2 -1</clus>
<clus scale="  236.010">  1  5  2 -1</clus>
</clustering>
</event>
<event>
 9    1  0.8429841E-005  0.9118082E+02  0.7546771E-02  0.1304398E+00
          3   -1    0    0  502    0 -0.00000000000E+00  0.00000000000E+00  0.73531078024E+02  0.73531078024E+02  0.00000000000E+00 0. -1.
         21   -1    0    0  501  502  0.00000000000E+00 -0.00000000000E+00 -0.41779128388E+03  0.41779128388E+03  0.00000000000E+00 0.  1.
         23    2    1    2    0    0 -0.67598588025E+01 -0.11843051839E+02  0.30777160418E+02  0.95957094896E+02  0.89858649498E+02 0.  0.
        -24    2    1    2    0    0  0.27500870610E+02  0.24448135001E+02 -0.34537693057E+03  0.35704009071E+03  0.82694576677E+02 0.  0.
         11    1    4    4    0    0  0.26033906595E+02 -0.25942758850E+02 -0.10004795015E+03  0.10658509914E+03  0.00000000000E+00 0. -1.
        -12    1    4    4    0    0  0.14669640156E+01  0.50390893851E+02 -0.24532898042E+03  0.25045499157E+03  0.00000000000E+00 0.  1.
        -13    1    3    3    0    0 -0.30470502597E+02  0.59799195159E+01 -0.20153286816E+02  0.37018453985E+02  0.00000000000E+00 0.  1.
         13    1    3    3    0    0  0.23710643795E+02 -0.17822971354E+02  0.50930447234E+02  0.58938640912E+02  0.00000000000E+00 0. -1.
          4    1    1    2  501    0 -0.20741011808E+02 -0.12605083163E+02 -0.29660435702E+02  0.38325176299E+02  0.00000000000E+00 0. -1.
<scales pt_clust_5="13000.00000" pt_clust_6="13000.00000" pt_clust_7="13000.00000" pt_clust_8="13000.00000" pt_clust_9="24.27092"></scales>
<clustering>
<clus scale="   24.271">  2  9  1 -1</clus>
<clus scale="   82.695">  5  6 -1 -1</clus>
<clus scale="   84.129">  2  5  1 -1</clus>
<clus scale="   89.859">  7  8 -1 -1</clus>
<clus scale="   24.271">  2  5  1 -1</clus>
</clustering>
</event>
<event>
 9    1  0.8429841E-005  0.1589880E+03  0.7546771E-02  0.1191794E+00
         21   -1    0    0  501  502  0.00000000000E+00  0.00000000000E+00  0.21973101938E+03  0.21973101938E+03  0.00000000000E+00 0.  1.
         -4   -1    0    0    0  501 -0.00000000000E+00 -0.00000000000E+00 -0.24942357649E+03  0.24942357649E+03  0.00000000000E+00 0.  1.
        -24    2    1    2    0    0 -0.15056654670E+03 -0.40104515458E+02  0.64373637298E+01  0.17582676520E+03  0.81209325612E+02 0.  0.
         23    2    1    2    0    0  0.76851374673E+02  0.65555504655E+02  0.75782259248E+02  0.15692396163E+03  0.93158579515E+02 0.  0.
         13    1    3    3    0    0 -0.79439338891E+02 -0.60265758112E+02  0.16985102835E+02  0.10114872161E+03  0.00000000000E+00 0. -1.
        -14    1    3    3    0    0 -0.71127207805E+02  0.20161242653E+02 -0.10547739105E+02  0.74678043598E+02  0.00000000000E+00 0.  1.
        -11    1    4    4    0    0  0.93827710886E+02  0.53175009532E+02  0.39227099076E+02  0.11476056061E+03  0.00000000000E+00 0.  1.
         11    1    4    4    0    0 -0.16976336212E+02  0.12380495123E+02  0.36555160172E+02  0.42163401023E+02  0.00000000000E+00 0. -1.
         -3    1    1    2    0  502  0.73715172023E+02 -0.25450989196E+02 -0.11191218009E+03  0.13640386904E+03  0.00000000000E+00 0.  1.
<scales pt_clust_5="13000.00000" pt_clust_6="13000.00000" pt_clust_7="13000.00000" pt_clust_8="13000.00000" pt_clust_9="77.98516"></scales>
<clustering>
<clus scale="   77.985">  1  9  2 -1</clus>
<clus scale="   81.209">  5  6 -1 -1</clus>
<clus scale="   93.159">  7  8 -1 -1</clus>
<clus scale="  152.294">  2  5  1 -1</clus>
<clus scale="   77.985">  1  5  2 -1</clus>
</clustering>
</event>
<event>
 9    1  0.8429841E-005  0.9290505E+02  0.7546771E-02  0.1303828E+00
         21   -1    0    0  501  502  0.00000000000E+00  0.00000000000E+00  0.85130713504E+02  0.85130713504E+02  0.00000000000E+00 0. -1.
          1   -1    0    0  502    0 -0.00000000000E+00 -0.00000000000E+00 -0.24646148456E+03  0.24646148456E+03  0.00000000000E+00 0. -1.
         23    2    1    2    0    0  0.18428391768E+02  0.21135842139E+01 -0.10476207668E+03  0.14064996472E+03  0.91995907551E+02 0.  0.
        -24    2    1    2    0    0  0.78073481636E+01  0.19542999541E+02  0.38007744357E+02  0.90433405698E+02  0.79314114246E+02 0.  0.
         11    1    4    4    0    0  0.41628858959E+02  0.10564223295E+02  0.34829920259E+02  0.55296365679E+02  0.00000000000E+00 0. -1.
        -12    1    4    4    0    0 -0.33821510795E+02  0.89787762459E+01  0.31778240977E+01  0.35137040019E+02  0.00000000000E+00 0.  1.
        -13    1    3    3    0    0 -0.23793803045E+02 -0.30014159522E+02 -0.60257267179E+02  0.71399811506E+02  0.00000000000E+00 0. -1.
         13    1    3    3    0    0  0.42222194813E+02  0.32127743736E+02 -0.44504809496E+02  0.69250153218E+02  0.00000000000E+00 0.  1.
          2    1    1    2  501    0 -0.26235739932E+02 -0.21656583755E+02 -0.94576438736E+02  0.10050882764E+03  0.00000000000E+00 0. -1.
<scales pt_clust_5="13000.00000" pt_clust_6="13000.00000" pt_clust_7="13000.00000" pt_clust_8="13000.00000" pt_clust_9="34.01945"></scales>
<clustering>
<clus scale="   34.019">  1  9  2 -1</clus>
<clus scale="   79.314">  5  6 -1 -1</clus>
<clus scale="   80.367">  1  5  2 -1</clus>
<clus scale="   91.996">  7  8 -1 -1</clus>
<clus scale="   34.019">  1  5  2 -1</clus>
</clustering>
</event>
<event>
 9    1  0.8429841E-005  0.1578889E+03  0.7546771E-02  0.1200902E+00
         -2   -1    0    0    0  501 -0.00000000000E+00  0.00000000000E+00  0.36375173978E+02  0.36375173978E+02  0.00000000000E+00 0.  1.
         21   -1    0    0  501  502  0.00000000000E+00 -0.00000000000E+00 -0.13902795835E+04  0.13902795835E+04  0.00000000000E+00 0.  1.
         23    2    1    2    0    0  0.87955512467E+02 -0.19557514177E+02 -0.40144210475E+03  0.42118157561E+03  0.90108199570E+02 0.  0.
        -24    2    1    2    0    0 -0.14187497244E+02 -0.11417777678E+03 -0.25109947866E+03  0.28767330589E+03  0.80418486351E+02 0.  0.
         13    1    4    4    0    0  0.28383826972E+02 -0.24656004751E+02 -0.42663209999E+02  0.56865716308E+02  0.00000000000E+00 0. -1.
        -14    1    4    4    0    0 -0.42571324216E+02 -0.89521772027E+02 -0.20843626866E+03  0.23080758958E+03  0.00000000000E+00 0.  1.
        -13    1    3    3    0    0  0.65974252482E+02 -0.54527917352E+02 -0.25215353264E+03  0.26628424622E+03  0.00000000000E+00 0.  1.
         13    1    3    3    0    0  0.21981259985E+02  0.34970403175E+02 -0.14928857212E+03  0.15489732939E+03  0.00000000000E+00 0. -1.
         -1    1    1    2    0  502 -0.73768015223E+02  0.13373529096E+03 -0.70136282608E+03  0.71779987596E+03  0.00000000000E+00 0.  1.
<scales pt_clust_5="13000.00000" pt_clust_6="13000.00000" pt_clust_7="13000.00000" pt_clust_8="13000.00000" pt_clust_9="135.87406"></scales>
<clustering>
<clus scale="   80.418">  5  6 -1 -1</clus>
<clus scale="   90.108">  7  8 -1 -1</clus>
<clus scale="  127.429">  1  7  2 -1</clus>
<clus scale="  135.874">  2  9  1 -1</clus>
<clus scale="  135.874">  2  5  1 -1</clus>
</clustering>
</event>
<event>
 9    1  0.8429841E-005  0.1057951E+03  0.7546771E-02  0.1274364E+00
          3   -1    0    0  502    0 -0.00000000000E+00  0.00000000000E+00  0.89285548660E+02  0.89285548660E+02  0.00000000000E+00 0. -1.
         21   -1    0    0  501  502  0.00000000000E+00 -0.00000000000E+00 -0.43339285403E+03  0.43339285403E+03  0.00000000000E+00 0. -1.
        -24    2    1    2    0    0 -0.13351043779E+02  0.59588951721E+02  0.36274448408E+02  0.10517078890E+03  0.77562656566E+02 0.  0.
         23    2    1    2    0    0 -0.35910962613E+02 -0.77442801901E+01 -0.25450013438E+03  0.27272917153E+03  0.90891757020E+02 0.  0.
         13    1    3    3    0    0  0.26019436370E+02  0.44139251100E+02  0.29433202781E+01  0.51322000068E+02  0.00000000000E+00 0. -1.
        -14    1    3    3    0    0 -0.39370480149E+02  0.15449700621E+02  0.33331128129E+02  0.53848788833E+02  0.00000000000E+00 0.  1.
        -13    1    4    4    0    0  0.27108536308E+02 -0.48541425248E+01 -0.36130655763E+02  0.45429722939E+02  0.00000000000E+00 0.  1.
         13    1    4    4    0    0 -0.63019498921E+02 -0.28901376653E+01 -0.21836947861E+03  0.22729944859E+03  0.00000000000E+00 0. -1.
          4    1    1    2  501    0  0.49262006392E+02 -0.51844671531E+02 -0.12588161940E+03  0.14477844226E+03  0.00000000000E+00 0. -1.
<scales pt_clust_5="13000.00000" pt_clust_6="13000.00000" pt_clust_7="13000.00000" pt_clust_8="13000.00000" pt_clust_9="71.51654"></scales>
<clustering>
<clus scale="   71.517">  2  9  1 -1</clus>
<clus scale="   77.563">  5  6 -1 -1</clus>
<clus scale="   90.892">  7  8 -1 -1</clus>
<clus scale="   94.590">  1  5  2 -1</clus>
<clus scale="   71.517">  2  5  1 -1</clus>
</clustering>
</event>
<event>
 9    1  0.8429841E-005  0.2677707E+03  0.7546771E-02  0.1102826E+00
          1   -1    0    0  502    0 -0.00000000000E+00  0.00000000000E+00  0.13552093763E+04  0.13552093763E+04  0.00000000000E+00 0. -1.
         21   -1    0    0  501  502  0.00000000000E+00 -0.00000000000E+00 -0.65153336888E+02  0.65153336888E+02  0.00000000000E+00 0. -1.
         23    2    1    2    0    0 -0.16167566248E+03 -0.20402972854E+03  0.89347900051E+03  0.93477339570E+03  0.87917159781E+02 0.  0.
        -24    2    1    2    0    0  0.13579454966E+03  0.19687267261E+03  0.36624085919E+03  0.44507587221E+03  0.82226249686E+02 0.  0.
         11    1    4    4    0    0  0.89307478470E+02  0.16339348386E+03  0.32472863457E+03  0.37432865558E+03  0.00000000000E+00 0. -1.
        -12    1    4    4    0    0  0.46487071188E+02  0.33479188752E+02  0.41512224629E+02  0.70747216629E+02  0.00000000000E+00 0.  1.
        -13    1    3    3    0    0 -0.26802278917E+02 -0.60461988066E+01  0.41621250517E+02  0.49872308646E+02  0.00000000000E+00 0.  1.
         13    1    3    3    0    0 -0.13487338356E+03 -0.19798352973E+03  0.85185775000E+03  0.88490108705E+03  0.00000000000E+00 0. -1.
          2    1    1    2  501    0  0.25881112820E+02  0.71570559249E+01  0.30336179736E+02  0.40513445315E+02  0.00000000000E+00 0. -1.
<scales pt_clust_5="13000.00000" pt_clust_6="13000.00000" pt_clust_7="13000.00000" pt_clust_8="13000.00000" pt_clust_9="26.85248"></scales>
<clustering>
<clus scale="   26.852">  2  9  1 -1</clus>
<clus scale="   82.226">  5  6 -1 -1</clus>
<clus scale="   87.917">  7  8 -1 -1</clus>
<clus scale="  265.956">  2  5  1 -1</clus>
<clus scale="   26.852">  2  5  1 -1</clus>
</clustering>
</event>
<event>
 9    1  0.8429841E-005  0.1185716E+03  0.7546771E-02  0.1248709E+00
          1   -1    0    0  502    0 -0.00000000000E+00  0.00000000000E+00  0.35629907029E+03  0.35629907029E+03  0.00000000000E+00 0. -1.
         21   -1    0    0  501  502  0.00000000000E+00 -0.00000000000E+00 -0.76312027488E+02  0.76312027488E+02  0.00000000000E+00 0.  1.
        -24    2    1    2    0    0  0.35317938469E+02 -0.71630738713E+02  0.23990538017E+03  0.26513801489E+03  0.79782554490E+02 0.  0.
         23    2    1    2    0    0 -0.63788332465E+02  0.43205283090E+02  0.45609959406E+02  0.12686357750E+03  0.89880203908E+02 0.  0.
         13    1    3    3    0    0  0.26150543841E+02  0.87971519289E+01  0.97550470166E+02  0.10137719199E+03  0.00000000000E+00 0. -1.
        -14    1    3    3    0    0  0.91673946284E+01 -0.80427890641E+02  0.14235491001E+03  0.16376082291E+03  0.00000000000E+00 0.  1.
        -11    1    4    4    0    0 -0.24034518715E+01  0.44015221737E+02  0.48329722969E+02  0.65413136660E+02  0.00000000000E+00 0. -1.
         11    1    4    4    0    0 -0.61384880594E+02 -0.80993864663E+00 -0.27197635630E+01  0.61450440845E+02  0.00000000000E+00 0.  1.
          2    1    1    2  501    0  0.28470393996E+02  0.28425455623E+02 -0.55282967775E+01  0.40609505376E+02  0.00000000000E+00 0. -1.
<scales pt_clust_5="13000.00000" pt_clust_6="13000.00000" pt_clust_7="13000.00000" pt_clust_8="13000.00000" pt_clust_9="40.23145"></scales>
<clustering>
<clus scale="   40.231">  2  9  1 -1</clus>
<clus scale="   79.783">  5  6 -1 -1</clus>
<clus scale="   89.880">  7  8 -1 -1</clus>
<clus scale="  111.113">  1  5  2 -1</clus>
<clus scale="   40.231">  2  5  1 -1</clus>
</clustering>
</event>
<event>
 9    1  0.8429841E-005  0.1534230E+03  0.7546771E-02  0.1211581E+00
         -2   -1    0    0    0  501 -0.00000000000E+00  0.00000000000E+00  0.50004440526E+03  0.50004440526E+03  0.00000000000E+00 0.  1.
         21   -1    0    0  501  502  0.00000000000E+00 -0.00000000000E+00 -0.11098123987E+03  0.11098123987E+03  0.00000000000E+00 0.  1.
         23    2    1    2    0    0  0.30881878609E+02  0.55332641928E+02 -0.11750817627E+02  0.11102618685E+03  0.90406530524E+02 0.  0.
        -24    2    1    2    0    0 -0.60761396804E+01  0.95020460961E+02  0.27798833252E+03  0.30427638695E+03  0.78998728884E+02 0.  0.
         11    1    4    4    0    0 -0.13033421257E+02  0.10565295559E+03  0.26713799244E+03  0.28756759918E+03  0.00000000000E+00 0. -1.
        -12    1    4    4    0    0  0.69572815763E+01 -0.10632494628E+02  0.10850340081E+02  0.16708787772E+02  0.00000000000E+00 0.  1.
        -11    1    3    3    0    0 -0.18135999587E+02 -0.11204451175E+02  0.12734445986E+02  0.24831840884E+02  0.00000000000E+00 0. -1.
         11    1    3    3    0    0  0.49017878195E+02  0.66537093103E+02 -0.24485263614E+02  0.86194345961E+02  0.00000000000E+00 0.  1.
         -1    1    1    2    0  502 -0.24805738928E+02 -0.15035310289E+03  0.12282565050E+03  0.19572307133E+03  0.00000000000E+00 0.  1.
<scales pt_clust_5="13000.00000" pt_clust_6="13000.00000" pt_clust_7="13000.00000" pt_clust_8="13000.00000" pt_clust_9="131.52119"></scales>
<clustering>
<clus scale="   78.999">  5  6 -1 -1</clus>
<clus scale="   90.407">  7  8 -1 -1</clus>
<clus scale="  110.403">  1  7  2 -1</clus>
<clus scale="  131.521">  2  9  1 -1</clus>
<clus scale="  131.521">  2  5  1 -1</clus>
</clustering>
</event>
<event>
 9    1  0.8429841E-005  0.1040698E+03  0.7546771E-02  0.1276967E+00
          1   -1    0    0  502    0 -0.00000000000E+00  0.00000000000E+00  0.19949401531E+03  0.19949401531E+03  0.00000000000E+00 0. -1.
         21   -1    0    0  501  502  0.00000000000E+00 -0.00000000000E+00 -0.85360863943E+02  0.85360863943E+02  0.00000000000E+00 0. -1.
         23    2    1    2    0    0  0.51699042357E+02  0.10472455740E+02  0.42142187410E+02  0.11401771716E+03  0.91878248546E+02 0.  0.
        -24    2    1    2    0    0 -0.20165320423E+02 -0.55269252662E+02  0.43615847767E+02  0.10914213919E+03  0.80921776626E+02 0.  0.
         11    1    4    4    0    0  0.14886201785E+02 -0.32607053311E+02  0.55207333005E+02  0.65823009250E+02  0.00000000000E+00 0. -1.
        -12    1    4    4    0    0 -0.35051522207E+02 -0.22662199350E+02 -0.11591485238E+02  0.43319129936E+02  0.00000000000E+00 0.  1.
        -11    1    3    3    0    0  0.31068227161E+02  0.26279601100E+02  0.66782788350E+02  0.78203535680E+02  0.00000000000E+00 0.  1.
         11    1    3    3    0    0  0.20630815196E+02 -0.15807145360E+02 -0.24640600941E+02  0.35814181476E+02  0.00000000000E+00 0. -1.
          2    1    1    2  501    0 -0.31533721935E+02  0.44796796921E+02  0.28375116194E+02  0.61695022915E+02  0.00000000000E+00 0. -1.
<scales pt_clust_5="13000.00000" pt_clust_6="13000.00000" pt_clust_7="13000.00000" pt_clust_8="13000.00000" pt_clust_9="54.78259"></scales>
<clustering>
<clus scale="   54.783">  2  9  1 -1</clus>
<clus scale="   80.922">  5  6 -1 -1</clus>
<clus scale="   91.878">  7  8 -1 -1</clus>
<clus scale="   94.537">  2  5  1 -1</clus>
<clus scale="   54.783">  2  5  1 -1</clus>
</clustering>
</event>
<event>
 9    1  0.8429841E-005  0.1180597E+03  0.7546771E-02  0.1249707E+00
         -2   -1    0    0    0  501 -0.00000000000E+00  0.00000000000E+00  0.39845545953E+02  0.39845545953E+02  0.00000000000E+00 0.  1.
         21   -1    0    0  501  502  0.00000000000E+00 -0.00000000000E+00 -0.76307772369E+03  0.76307772369E+03  0.00000000000E+00 0. -1.
        -24    2    1    2    0    0 -0.94385249630E+02  0.18819220874E+02 -0.11088506410E+03  0.16774827061E+03  0.81124881693E+02 0.  0.
         23    2    1    2    0    0  0.22212908703E+02 -0.16976523243E+02 -0.31357172908E+03  0.32780067879E+03  0.91347906829E+02 0.  0.
         13    1    3    3    0    0 -0.77731979457E+02 -0.19777613484E+02 -0.90822246098E+02  0.12116969510E+03  0.00000000000E+00 0. -1.
        -14    1    3    3    0    0 -0.16653270174E+02  0.38596834358E+02 -0.20062818004E+02  0.46578575507E+02  0.00000000000E+00 0.  1.
        -11    1    4    4    0    0  0.49598458364E+02  0.13987837248E+02 -0.21124282425E+03  0.21743780136E+03  0.00000000000E+00 0. -1.
         11    1    4    4    0    0 -0.27385549661E+02 -0.30964360491E+02 -0.10232890483E+03  0.11036287743E+03  0.00000000000E+00 0.  1.
         -1    1    1    2    0  502  0.72172340927E+02 -0.18426976315E+01 -0.29877538455E+03  0.30737432024E+03  0.00000000000E+00 0.  1.
<scales pt_clust_5="13000.00000" pt_clust_6="13000.00000" pt_clust_7="13000.00000" pt_clust_8="13000.00000" pt_clust_9="72.19586"></scales>
<clustering>
<clus scale="   72.196">  2  9  1 -1</clus>
<clus scale="   81.125">  5  6 -1 -1</clus>
<clus scale="   91.348">  7  8 -1 -1</clus>
<clus scale="  110.340">  1  5  2 -1</clus>
<clus scale="   72.196">  2  5  1 -1</clus>
</clustering>
</event>
<event>
 9    1  0.8429841E-005  0.2708118E+03  0.7546771E-02  0.1136910E+00
          1   -1    0    0  502    0 -0.00000000000E+00  0.00000000000E+00  0.69098645315E+03  0.69098645315E+03  0.00000000000E+00 0. -1.
         21   -1    0    0  501  502  0.00000000000E+00 -0.00000000000E+00 -0.23589782311E+03  0.23589782311E+03  0.00000000000E+00 0.  1.
        -24    2    1    2    0    0  0.24875630872E+02  0.70315245688E+02 -0.15274866846E+02  0.11063555187E+03  0.80273737873E+02 0.  0.
         23    2    1    2    0    0 -0.20662539758E+03 -0.23172217286E+03  0.47327060088E+03  0.57315692056E+03  0.90191871087E+02 0.  0.
         11    1    3    3    0    0  0.20533660451E+02 -0.22276367794E+01  0.20963360400E+02  0.29428830360E+02  0.00000000000E+00 0. -1.
        -12    1    3    3    0    0  0.43419704209E+01  0.72542882467E+02 -0.36238227245E+02  0.81206721505E+02  0.00000000000E+00 0.  1.
        -13    1    4    4    0    0 -0.15914005766E+03 -0.11459453161E+03  0.26776048399E+03  0.33189326811E+03  0.00000000000E+00 0.  1.
         13    1    4    4    0    0 -0.47485339919E+02 -0.11712764125E+03  0.20551011688E+03  0.24126365245E+03  0.00000000000E+00 0. -1.
          2    1    1    2  501    0  0.18174976671E+03  0.16140692718E+03 -0.29071039905E+01  0.24309180384E+03  0.00000000000E+00 0. -1.
<scales pt_clust_5="13000.00000" pt_clust_6="13000.00000" pt_clust_7="13000.00000" pt_clust_8="13000.00000" pt_clust_9="255.35163"></scales>
<clustering>
<clus scale="   80.274">  5  6 -1 -1</clus>
<clus scale="   90.192">  7  8 -1 -1</clus>
<clus scale="  109.576">  1  5  2 -1</clus>
<clus scale="  255.352">  2  9  1 -1</clus>
<clus scale="  255.352">  2  5  1 -1</clus>
</clustering>
</event>
<event>
 9    1  0.8429841E-005  0.1070598E+03  0.7546771E-02  0.1270852E+00
          1   -1    0    0  502    0 -0.00000000000E+00  0.00000000000E+00  0.68764957717E+03  0.68764957717E+03  0.00000000000E+00 0. -1.
         21   -1    0    0  501  502  0.00000000000E+00 -0.00000000000E+00 -0.21179354412E+02  0.21179354412E+02  0.00000000000E+00 0. -1.
         23    2    1    2    0    0 -0.59068635483E+02  0.10764386304E+02  0.40408191315E+03  0.41863089417E+03  0.91458500472E+02 0.  0.
        -24    2    1    2    0    0  0.43885644122E+02 -0.28828502554E+02  0.23630026220E+03  0.25502103157E+03  0.80255095213E+02 0.  0.
         13    1    4    4    0    0  0.49967088976E+02 -0.50574019490E+02  0.15293884446E+03  0.16865565977E+03  0.00000000000E+00 0. -1.
        -14    1    4    4    0    0 -0.60814448534E+01  0.21745516936E+02  0.83361417739E+02  0.86365371798E+02  0.00000000000E+00 0.  1.
        -13    1    3    3    0    0 -0.15777719666E+02 -0.33258010772E+02  0.72066857514E+02  0.80923813988E+02  0.00000000000E+00 0.  1.
         13    1    3    3    0    0 -0.43290915817E+02  0.44022397076E+02  0.33201505564E+03  0.33770708018E+03  0.00000000000E+00 0. -1.
          2    1    1    2  501    0  0.15182991360E+02  0.18064116250E+02  0.26088047410E+02  0.35177005845E+02  0.00000000000E+00 0. -1.
<scales pt_clust_5="13000.00000" pt_clust_6="13000.00000" pt_clust_7="13000.00000" pt_clust_8="13000.00000" pt_clust_9="23.59736"></scales>
<clustering>
<clus scale="   23.597">  2  9  1 -1</clus>
<clus scale="   80.255">  5  6 -1 -1</clus>
<clus scale="   91.459">  7  8 -1 -1</clus>
<clus scale="   97.663">  2  5  1 -1</clus>
<clus scale="   23.597">  2  5  1 -1</clus>
</clustering>
</event>
<event>
 9    1  0.8429841E-005  0.1336824E+03  0.7546771E-02  0.1230354E+00
         21   -1    0    0  501  502  0.00000000000E+00  0.00000000000E+00  0.85653492442E+03  0.85653492442E+03  0.00000000000E+00 0. -1.
          3   -1    0    0  502    0 -0.00000000000E+00 -0.00000000000E+00 -0.72195125276E+02  0.72195125276E+02  0.00000000000E+00 0. -1.
         23    2    1    2    0    0 -0.42026349097E+02 -0.50277002601E+02  0.62307957109E+03  0.63317080086E+03  0.91559380415E+02 0.  0.
        -24    2    1    2    0    0  0.63330930599E+02 -0.69289109709E+02  0.66881559952E+02  0.14175003780E+03  0.82511469871E+02 0.  0.
         11    1    4    4    0    0  0.83630169375E+02 -0.57242707879E+02  0.55463387285E+02  0.11552887156E+03  0.00000000000E+00 0. -1.
        -12    1    4    4    0    0 -0.20299238776E+02 -0.12046401830E+02  0.11418172667E+02  0.26221166240E+02  0.00000000000E+00 0.  1.
        -11    1    3    3    0    0 -0.38910302796E+02  0.18925002596E+02  0.24898292598E+03  0.25271459162E+03  0.00000000000E+00 0.  1.
         11    1    3    3    0    0 -0.31160463014E+01 -0.69202005197E+02  0.37409664512E+03  0.38045620925E+03  0.00000000000E+00 0. -1.
          4    1    1    2  501    0 -0.21304581502E+02  0.11956611231E+03  0.94378668096E+02  0.15380921103E+03  0.00000000000E+00 0. -1.
<scales pt_clust_5="13000.00000" pt_clust_6="13000.00000" pt_clust_7="13000.00000" pt_clust_8="13000.00000" pt_clust_9="105.18015"></scales>
<clustering>
<clus scale="   82.511">  5  6 -1 -1</clus>
<clus scale="   91.559">  7  8 -1 -1</clus>
<clus scale="  112.593">  2  7  1 -1</clus>
<clus scale="  105.180">  1  9  2 -1</clus>
<clus scale="  105.180">  1  5  2 -1</clus>
</clustering>
</event>
<event>
 9    1  0.8429841E-005  0.1039093E+03  0.7546771E-02  0.1277697E+00
         21   -1    0    0  501  502  0.00000000000E+00  0.00000000000E+00  0.13697550413E+03  0.13697550413E+03  0.00000000000E+00 0. -1.
          3   -1    0    0  502    0 -0.00000000000E+00 -0.00000000000E+00 -0.25563593952E+03  0.25563593952E+03  0.00000000000E+00 0. -1.
         23    2    1    2    0    0  0.22249670284E+02 -0.52088622901E+02 -0.16014585652E+03  0.19298294066E+03  0.91583009140E+02 0.  0.
        -24    2    1    2    0    0 -0.24232126596E+02  0.29928406308E+02 -0.52554689001E+02  0.10299234183E+03  0.79765416541E+02 0.  0.
         13    1    4    4    0    0  0.13306687207E+02 -0.21138846468E+02 -0.11673491713E+02  0.27571528127E+02  0.00000000000E+00 0. -1.
        -14    1    4    4    0    0 -0.37538813803E+02  0.51067252777E+02 -0.40881197288E+02  0.75420813703E+02  0.00000000000E+00 0.  1.
        -13    1    3    3    0    0 -0.34982230251E+02 -0.15692619801E+02 -0.73986711019E+02  0.83330955574E+02  0.00000000000E+00 0.  1.
         13    1    3    3    0    0  0.57231900535E+02 -0.36396003100E+02 -0.86159145497E+02  0.10965198509E+03  0.00000000000E+00 0. -1.
          4    1    1    2  501    0  0.19824563125E+01  0.22160216592E+02  0.94040110126E+02  0.96636161166E+02  0.00000000000E+00 0. -1.
<scales pt_clust_5="13000.00000" pt_clust_6="13000.00000" pt_clust_7="13000.00000" pt_clust_8="13000.00000" pt_clust_9="22.24872"></scales>
<clustering>
<clus scale="   22.249">  1  9  2 -1</clus>
<clus scale="   79.765">  5  6 -1 -1</clus>
<clus scale="   91.583">  7  8 -1 -1</clus>
<clus scale="   93.660">  1  5  2 -1</clus>
<clus scale="   22.249">  1  5  2 -1</clus>
</clustering>
</event>
<event>
 9    1  0.8429841E-005  0.1102455E+03  0.7546771E-02  0.1261891E+00
         21   -1    0    0  501  502  0.00000000000E+00  0.00000000000E+00  0.69313877848E+03  0.69313877848E+03  0.00000000000E+00 0.  1.
          3   -1    0    0  502    0 -0.00000000000E+00 -0.00000000000E+00 -0.24670841381E+02  0.24670841381E+02  0.00000000000E+00 0. -1.
         23    2    1    2    0    0  0.53911271872E+02 -0.16194711763E+02  0.23158456281E+03  0.25543183914E+03  0.91898426488E+02 0.  0.
        -24    2    1    2    0    0 -0.71341051168E+02 -0.13790767735E+02  0.36981047707E+03  0.38686818048E+03  0.87335383783E+02 0.  0.
         13    1    4    4    0    0 -0.30155752587E+02  0.15437017472E+02  0.36678050700E+02  0.49929453489E+02  0.00000000000E+00 0. -1.
        -14    1    4    4    0    0 -0.41185298581E+02 -0.29227785207E+02  0.33313242637E+03  0.33693872699E+03  0.00000000000E+00 0.  1.
        -13    1    3    3    0    0 -0.89499560510E+01  0.27000889141E+02  0.38819803449E+02  0.48126155753E+02  0.00000000000E+00 0.  1.
         13    1    3    3    0    0  0.62861227923E+02 -0.43195600904E+02  0.19276475936E+03  0.20730568338E+03  0.00000000000E+00 0. -1.
          4    1    1    2  501    0  0.17429779296E+02  0.29985479498E+02  0.67072897218E+02  0.75509600239E+02  0.00000000000E+00 0. -1.
<scales pt_clust_5="13000.00000" pt_clust_6="13000.00000" pt_clust_7="13000.00000" pt_clust_8="13000.00000" pt_clust_9="34.68324"></scales>
<clustering>
<clus scale="   34.683">  1  9  2 -1</clus>
<clus scale="   87.335">  5  6 -1 -1</clus>
<clus scale="   91.898">  7  8 -1 -1</clus>
<clus scale="  106.472">  1  5  2 -1</clus>
<clus scale="   34.683">  1  5  2 -1</clus>
</clustering>
</event>
<event>
 9    1  0.8429841E-005  0.1267832E+03  0.7546771E-02  0.1239635E+00
          1   -1    0    0  502    0 -0.00000000000E+00  0.00000000000E+00  0.96168135450E+03  0.96168135450E+03  0.00000000000E+00 0. -1.
         21   -1    0    0  501  502  0.00000000000E+00 -0.00000000000E+00 -0.25519986005E+02  0.25519986005E+02  0.00000000000E+00 0. -1.
        -24    2    1    2    0    0 -0.90404222052E+02 -0.42610425651E+01  0.44040614717E+03  0.45672063027E+03  0.80281254348E+02 0.  0.
         23    2    1    2    0    0  0.42470448089E+02  0.36864849760E+00  0.18443153265E+03  0.21546446217E+03  0.10298577260E+03 0.  0.
         11    1    3    3    0    0 -0.92468770514E+02 -0.28355097751E+02  0.34553808814E+03  0.35881897308E+03  0.00000000000E+00 0. -1.
        -12    1    3    3    0    0  0.20645484623E+01  0.24094055186E+02  0.94868059028E+02  0.97901657184E+02  0.00000000000E+00 0.  1.
        -13    1    4    4    0    0 -0.21524095355E+01 -0.34575365049E+02  0.13774615499E+03  0.14203553059E+03  0.00000000000E+00 0.  1.
         13    1    4    4    0    0  0.44622857625E+02  0.34944013547E+02  0.46685377664E+02  0.73428931580E+02  0.00000000000E+00 0. -1.
          2    1    1    2  501    0  0.47933773963E+02  0.38923940675E+01  0.31132368867E+03  0.31501624807E+03  0.00000000000E+00 0. -1.
<scales pt_clust_5="13000.00000" pt_clust_6="13000.00000" pt_clust_7="13000.00000" pt_clust_8="13000.00000" pt_clust_9="48.09158"></scales>
<clustering>
<clus scale="   48.092">  2  9  1 -1</clus>
<clus scale="   80.281">  5  6 -1 -1</clus>
<clus scale="  102.986">  7  8 -1 -1</clus>
<clus scale="  109.147">  1  5  2 -1</clus>
<clus scale="   48.092">  2  5  1 -1</clus>
</clustering>
</event>
<event>
 9    1  0.8429841E-005  0.1311946E+03  0.7546771E-02  0.1227843E+00
          1   -1    0    0  502    0 -0.00000000000E+00  0.00000000000E+00  0.10028426530E+04  0.10028426530E+04  0.00000000000E+00 0. -1.
         21   -1    0    0  501  502  0.00000000000E+00 -0.00000000000E+00 -0.33558786732E+02  0.33558786732E+02  0.00000000000E+00 0. -1.
        -24    2    1    2    0    0 -0.69343292773E+01 -0.78953537458E+02  0.45333758784E+03  0.46725088685E+03  0.80787850042E+02 0.  0.
         23    2    1    2    0    0  0.16137191978E+02  0.14501483658E+03  0.33249128526E+03  0.37394675568E+03  0.89420408841E+02 0.  0.
         13    1    3    3    0    0  0.85621583826E+00 -0.31170202488E+02  0.38250602291E+02  0.49350007135E+02  0.00000000000E+00 0. -1.
        -14    1    3    3    0    0 -0.77905451155E+01 -0.47783334971E+02  0.41508698555E+03  0.41790087972E+03  0.00000000000E+00 0.  1.
        -13    1    4    4    0    0 -0.16197924086E+02  0.49660974558E+02  0.43694999206E+02  0.68101674681E+02  0.00000000000E+00 0.  1.
         13    1    4    4    0    0  0.32335116064E+02  0.95353862022E+02  0.28879628606E+03  0.30584508100E+03  0.00000000000E+00 0. -1.
          2    1    1    2  501    0 -0.92028627009E+01 -0.66061299122E+02  0.18345499319E+03  0.19520379723E+03  0.00000000000E+00 0. -1.
<scales pt_clust_5="13000.00000" pt_clust_6="13000.00000" pt_clust_7="13000.00000" pt_clust_8="13000.00000" pt_clust_9="66.69927"></scales>
<clustering>
<clus scale="   66.699">  2  9  1 -1</clus>
<clus scale="   80.788">  5  6 -1 -1</clus>
<clus scale="   89.420">  7  8 -1 -1</clus>
<clus scale="  125.470">  1  5  2 -1</clus>
<clus scale="   66.699">  2  5  1 -1</clus>
</clustering>
</event>
<event>
 9    1  0.8429841E-005  0.1253072E+03  0.7546771E-02  0.1236793E+00
         21   -1    0    0  501  502  0.00000000000E+00  0.00000000000E+00  0.19192060064E+03  0.19192060064E+03  0.00000000000E+00 0.  1.
          1   -1    0    0  502    0 -0.00000000000E+00 -0.00000000000E+00 -0.25982915528E+03  0.25982915528E+03  0.00000000000E+00 0. -1.
        -24    2    1    2    0    0 -0.50630703120E+02 -0.83145745992E+02 -0.94391946275E+02  0.15999066658E+03  0.84914608257E+02 0.  0.
         23    2    1    2    0    0  0.20999399836E+02  0.18014543522E+02  0.13243047237E+03  0.16391202607E+03  0.92540929894E+02 0.  0.
         13    1    3    3    0    0 -0.61633474681E+02 -0.45152867925E+02 -0.93070996226E+02  0.12041460469E+03  0.00000000000E+00 0. -1.
        -14    1    3    3    0    0  0.11002771561E+02 -0.37992878067E+02 -0.13209500490E+01  0.39576061892E+02  0.00000000000E+00 0.  1.
        -13    1    4    4    0    0 -0.49949960768E+01 -0.24614476685E+02  0.10286236624E+03  0.10588431818E+03  0.00000000000E+00 0.  1.
         13    1    4    4    0    0  0.25994395913E+02  0.42629020207E+02  0.29568106136E+02  0.58027707892E+02  0.00000000000E+00 0. -1.
          2    1    1    2  501    0  0.29631303284E+02  0.65131202470E+02 -0.10594708074E+03  0.12784706327E+03  0.00000000000E+00 0. -1.
<scales pt_clust_5="13000.00000" pt_clust_6="13000.00000" pt_clust_7="13000.00000" pt_clust_8="13000.00000" pt_clust_9="71.55482"></scales>
<clustering>
<clus scale="   71.555">  1  9  2 -1</clus>
<clus scale="   84.915">  5  6 -1 -1</clus>
<clus scale="   92.541">  7  8 -1 -1</clus>
<clus scale="  119.785">  2  5  1 -1</clus>
<clus scale="   71.555">  1  5  2 -1</clus>
</clustering>
</event>
<event>
 9    1  0.8429841E-005  0.1764006E+03  0.7546771E-02  0.1173344E+00
         21   -1    0    0  501  502  0.00000000000E+00  0.00000000000E+00  0.21933186292E+03  0.21933186292E+03  0.00000000000E+00 0.  1.
          1   -1    0    0  502    0 -0.00000000000E+00 -0.00000000000E+00 -0.67315221732E+03  0.67315221732E+03  0.00000000000E+00 0. -1.
        -24    2    1    2    0    0  0.12599885058E+03 -0.94243185393E+02 -0.33799323518E+01  0.17512253213E+03  0.76804876008E+02 0.  0.
         23    2    1    2    0    0 -0.16509514554E+03 -0.18073668211E+02  0.55038532365E+02  0.19808072887E+03  0.92863720257E+02 0.  0.
         11    1    3    3    0    0  0.51292402553E+02 -0.68943498591E+02 -0.31298150227E+02  0.91453216265E+02  0.00000000000E+00 0. -1.
        -12    1    3    3    0    0  0.74706448024E+02 -0.25299686802E+02  0.27918217875E+02  0.83669315869E+02  0.00000000000E+00 0.  1.
        -13    1    4    4    0    0 -0.17726116265E+02 -0.37013454981E+02  0.18821501669E+02  0.45149307554E+02  0.00000000000E+00 0. -1.
         13    1    4    4    0    0 -0.14736902927E+03  0.18939786770E+02  0.36217030696E+02  0.15293142131E+03  0.00000000000E+00 0.  1.
          2    1    1    2  501    0  0.39096294961E+02  0.11231685360E+03 -0.50547895441E+03  0.51928081925E+03  0.00000000000E+00 0. -1.
<scales pt_clust_5="13000.00000" pt_clust_6="13000.00000" pt_clust_7="13000.00000" pt_clust_8="13000.00000" pt_clust_9="118.92691"></scales>
<clustering>
<clus scale="   76.805">  5  6 -1 -1</clus>
<clus scale="   92.864">  7  8 -1 -1</clus>
<clus scale="  118.927">  1  9  2 -1</clus>
<clus scale="  168.501">  2  5  1 -1</clus>
<clus scale="  118.927">  1  5  2 -1</clus>
</clustering>
</event>
<event>
 9    1  0.8429841E-005  0.1032695E+03  0.7546771E-02  0.1275029E+00
         21   -1    0    0  501  502  0.00000000000E+00  0.00000000000E+00  0.46153134928E+03  0.46153134928E+03  0.00000000000E+00 0.  1.
         -2   -1    0    0    0  501 -0.00000000000E+00 -0.00000000000E+00 -0.36491659906E+02  0.36491659906E+02  0.00000000000E+00 0.  1.
         23    2    1    2    0    0  0.40001975990E+02  0.37747200583E+02  0.93029733526E+02  0.14025036864E+03  0.89390297845E+02 0.  0.
        -24    2    1    2    0    0 -0.12664187350E+02 -0.46980645824E+02  0.29312275402E+03  0.30934924057E+03  0.86072300988E+02 0.  0.
         13    1    4    4    0    0  0.38666342779E+00  0.20585188461E+02  0.24256491907E+02  0.31816299160E+02  0.00000000000E+00 0. -1.
        -14    1    4    4    0    0 -0.13050850777E+02 -0.67565834285E+02  0.26886626211E+03  0.27753294141E+03  0.00000000000E+00 0.  1.
        -11    1    3    3    0    0  0.55755190745E+02  0.57206995054E+02  0.69257676940E+02  0.10572562316E+03  0.00000000000E+00 0.  1.
         11    1    3    3    0    0 -0.15753214755E+02 -0.19459794470E+02  0.23772056586E+02  0.34524745478E+02  0.00000000000E+00 0. -1.
         -1    1    1    2    0  502 -0.27337788640E+02  0.92334452403E+01  0.38887201836E+02  0.48423399978E+02  0.00000000000E+00 0.  1.
<scales pt_clust_5="13000.00000" pt_clust_6="13000.00000" pt_clust_7="13000.00000" pt_clust_8="13000.00000" pt_clust_9="28.85502"></scales>
<clustering>
<clus scale="   28.855">  1  9  2 -1</clus>
<clus scale="   86.072">  5  6 -1 -1</clus>
<clus scale="   89.390">  7  8 -1 -1</clus>
<clus scale="  100.411">  1  5  2 -1</clus>
<clus scale="   28.855">  1  5  2 -1</clus>
</clustering>
</event>
<event>
 9    1  0.8429841E-005  0.1671057E+03  0.7546771E-02  0.1198573E+00
         21   -1    0    0  501  502  0.00000000000E+00  0.00000000000E+00  0.12711692998E+03  0.12711692998E+03  0.00000000000E+00 0. -1.
         -2   -1    0    0    0  501 -0.00000000000E+00 -0.00000000000E+00 -0.47973680340E+03  0.47973680340E+03  0.00000000000E+00 0.  1.
         23    2    1    2    0    0 -0.41297400005E+02  0.53188136195E+02 -0.21318679254E+02  0.11505708786E+03  0.90825075292E+02 0.  0.
        -24    2    1    2    0    0  0.11731249857E+03 -0.15920619454E+03 -0.27864176380E+03  0.35111566064E+03  0.80821654965E+02 0.  0.
         11    1    4    4    0    0  0.73332977788E+02 -0.14975875989E+03 -0.19879995566E+03  0.25947414932E+03  0.00000000000E+00 0. -1.
        -12    1    4    4    0    0  0.43979520780E+02 -0.94474346508E+01 -0.79841808143E+02  0.91641511321E+02  0.00000000000E+00 0.  1.
        -13    1    3    3    0    0  0.26900995457E+02  0.15756673988E+02  0.75515097378E+01  0.32077431802E+02  0.00000000000E+00 0.  1.
         13    1    3    3    0    0 -0.68198395461E+02  0.37431462207E+02 -0.28870188992E+02  0.82979656054E+02  0.00000000000E+00 0. -1.
         -1    1    1    2    0  502 -0.76015098564E+02  0.10601805834E+03 -0.52659430367E+02  0.14068098490E+03  0.00000000000E+00 0.  1.
<scales pt_clust_5="13000.00000" pt_clust_6="13000.00000" pt_clust_7="13000.00000" pt_clust_8="13000.00000" pt_clust_9="146.26061"></scales>
<clustering>
<clus scale="   80.822">  5  6 -1 -1</clus>
<clus scale="   90.825">  7  8 -1 -1</clus>
<clus scale="  113.065">  2  7  1 -1</clus>
<clus scale="  146.261">  1  9  2 -1</clus>
<clus scale="  146.261">  1  5  2 -1</clus>
</clustering>
</event>
<event>
 9    1  0.8429841E-005  0.1532193E+03  0.7546771E-02  0.1198266E+00
          1   -1    0    0  502    0 -0.00000000000E+00  0.00000000000E+00  0.84193276667E+02  0.84193276667E+02  0.00000000000E+00 0. -1.
         21   -1    0    0  501  502  0.00000000000E+00 -0.00000000000E+00 -0.94127000127E+03  0.94127000127E+03  0.00000000000E+00 0.  1.
         23    2    1    2    0    0  0.55285830009E+02 -0.12091534212E+03 -0.25560042115E+03  0.30197002942E+03  0.90428316434E+02 0.  0.
        -24    2    1    2    0    0  0.33876531992E+02  0.11967402441E+03 -0.61561266432E+03  0.63320867416E+03  0.80652222719E+02 0.  0.
         11    1    4    4    0    0 -0.12295147112E+02  0.80773977908E+02 -0.26088643457E+03  0.27338130494E+03  0.00000000000E+00 0. -1.
        -12    1    4    4    0    0  0.46171679105E+02  0.38900046499E+02 -0.35472622975E+03  0.35982736922E+03  0.00000000000E+00 0.  1.
        -13    1    3    3    0    0 -0.24542475813E+02 -0.21588868814E+02 -0.41634631753E+02  0.52932550826E+02  0.00000000000E+00 0.  1.
         13    1    3    3    0    0  0.79828305822E+02 -0.99326473305E+02 -0.21396578940E+03  0.24903747859E+03  0.00000000000E+00 0. -1.
          2    1    1    2  501    0 -0.89162362001E+02  0.12413177110E+01  0.14136360872E+02  0.90284574353E+02  0.00000000000E+00 0. -1.
<scales pt_clust_5="13000.00000" pt_clust_6="13000.00000" pt_clust_7="13000.00000" pt_clust_8="13000.00000" pt_clust_9="89.17105"></scales>
<clustering>
<clus scale="   80.652">  5  6 -1 -1</clus>
<clus scale="   89.171">  2  9  1 -1</clus>
<clus scale="   90.428">  7  8 -1 -1</clus>
<clus scale="  147.661">  2  5  1 -1</clus>
<clus scale="   89.171">  2  5  1 -1</clus>
</clustering>
</event>
<event>
 9    1  0.8429841E-005  0.1392014E+03  0.7546771E-02  0.1226669E+00
         21   -1    0    0  501  502  0.00000000000E+00  0.00000000000E+00  0.64263465711E+02  0.64263465711E+02  0.00000000000E+00 0. -1.
          1   -1    0    0  502    0 -0.00000000000E+00 -0.00000000000E+00 -0.61762162100E+03  0.61762162100E+03  0.00000000000E+00 0. -1.
         23    2    1    2    0    0  0.52986245999E+02  0.22055867288E+02 -0.12504067324E+03  0.16498253759E+03  0.91049789672E+02 0.  0.
        -24    2    1    2    0    0  0.71860946938E+02 -0.23141226466E+02 -0.35528408561E+03  0.37225858421E+03  0.81548513013E+02 0.  0.
         11    1    4    4    0    0  0.86444544598E+02 -0.60158843877E+01 -0.30694807556E+03  0.31894509127E+03  0.00000000000E+00 0. -1.
        -12    1    4    4    0    0 -0.14583597660E+02 -0.17125342078E+02 -0.48336010042E+02  0.53313492933E+02  0.00000000000E+00 0.  1.
        -13    1    3    3    0    0  0.12090434844E+02  0.51442950274E+02 -0.40500001258E+02  0.66579319984E+02  0.00000000000E+00 0.  1.
         13    1    3    3    0    0  0.40895811155E+02 -0.29387082987E+02 -0.84540671985E+02  0.98403217610E+02  0.00000000000E+00 0. -1.
          2    1    1    2  501    0 -0.12484719294E+03  0.10853591777E+01 -0.73033396442E+02  0.14464396491E+03  0.00000000000E+00 0. -1.
<scales pt_clust_5="13000.00000" pt_clust_6="13000.00000" pt_clust_7="13000.00000" pt_clust_8="13000.00000" pt_clust_9="112.81340"></scales>
<clustering>
<clus scale="   81.549">  5  6 -1 -1</clus>
<clus scale="   91.050">  7  8 -1 -1</clus>
<clus scale="  107.629">  2  7  1 -1</clus>
<clus scale="  112.813">  1  9  2 -1</clus>
<clus scale="  112.813">  1  5  2 -1</clus>
</clustering>
</event>
<event>
 9    1  0.8429841E-005  0.9604315E+02  0.7546771E-02  0.1295817E+00
         21   -1    0    0  501  502  0.00000000000E+00  0.00000000000E+00  0.32469839635E+03  0.32469839635E+03  0.00000000000E+00 0. -1.
          1   -1    0    0  502    0 -0.00000000000E+00 -0.00000000000E+00 -0.95172193062E+02  0.95172193062E+02  0.00000000000E+00 0. -1.
         23    2    1    2    0    0 -0.24003250156E+02 -0.20168823570E+02 -0.24886956029E+02  0.10037930545E+03  0.92052739887E+02 0.  0.
        -24    2    1    2    0    0 -0.17525929814E+02  0.35951566844E+02  0.35345404828E+02  0.95963995174E+02  0.79750343905E+02 0.  0.
         13    1    4    4    0    0 -0.48217490921E+02  0.31956616708E+02  0.18534556121E+02  0.60742748973E+02  0.00000000000E+00 0. -1.
        -14    1    4    4    0    0  0.30691561107E+02  0.39949501365E+01  0.16810848707E+02  0.35221246202E+02  0.00000000000E+00 0.  1.
        -13    1    3    3    0    0 -0.20130489168E+02  0.33283494968E+02  0.46694729483E+01  0.39176926998E+02  0.00000000000E+00 0. -1.
         13    1    3    3    0    0 -0.38727609885E+01 -0.53452318538E+02 -0.29556428977E+02  0.61202378455E+02  0.00000000000E+00 0.  1.
          2    1    1    2  501    0  0.41529179971E+02 -0.15782743275E+02  0.21906775449E+03  0.22352728879E+03  0.00000000000E+00 0. -1.
<scales pt_clust_5="13000.00000" pt_clust_6="13000.00000" pt_clust_7="13000.00000" pt_clust_8="13000.00000" pt_clust_9="44.42711"></scales>
<clustering>
<clus scale="   44.427">  1  9  2 -1</clus>
<clus scale="   79.750">  5  6 -1 -1</clus>
<clus scale="   84.325">  1  5  2 -1</clus>
<clus scale="   92.053">  7  8 -1 -1</clus>
<clus scale="   44.427">  1  5  2 -1</clus>
</clustering>
</event>
<event>
 9    1  0.8429841E-005  0.1905087E+03  0.7546771E-02  0.1189790E+00
          1   -1    0    0  502    0 -0.00000000000E+00  0.00000000000E+00  0.67494878012E+03  0.67494878012E+03  0.00000000000E+00 0. -1.
         21   -1    0    0  501  502  0.00000000000E+00 -0.00000000000E+00 -0.93596580470E+02  0.93596580470E+02  0.00000000000E+00 0. -1.
         23    2    1    2    0    0  0.14040891851E+01 -0.15598212564E+02  0.13354598415E+03  0.16246364965E+03  0.91184603282E+02 0.  0.
        -24    2    1    2    0    0  0.98622792915E+02  0.15518129889E+03  0.36452711830E+03  0.41523039928E+03  0.75687341721E+02 0.  0.
         11    1    4    4    0    0  0.66034287860E+02  0.95874250083E+02  0.14754803788E+03  0.18794366838E+03  0.00000000000E+00 0. -1.
        -12    1    4    4    0    0  0.32588505055E+02  0.59307048809E+02  0.21697908042E+03  0.22728673090E+03  0.00000000000E+00 0.  1.
        -11    1    3    3    0    0  0.54512433744E+01  0.22759883393E+02  0.11893855453E+03  0.12121925631E+03  0.00000000000E+00 0. -1.
         11    1    3    3    0    0 -0.40471541892E+01 -0.38358095957E+02  0.14607429616E+02  0.41244393345E+02  0.00000000000E+00 0.  1.
          2    1    1    2  501    0 -0.10002688210E+03 -0.13958308633E+03  0.83279097201E+02  0.19085131166E+03  0.00000000000E+00 0. -1.
<scales pt_clust_5="13000.00000" pt_clust_6="13000.00000" pt_clust_7="13000.00000" pt_clust_8="13000.00000" pt_clust_9="174.82851"></scales>
<clustering>
<clus scale="   75.687">  5  6 -1 -1</clus>
<clus scale="   91.185">  7  8 -1 -1</clus>
<clus scale="   92.520">  1  7  2 -1</clus>
<clus scale="  174.829">  2  9  1 -1</clus>
<clus scale="  174.829">  2  5  1 -1</clus>
</clustering>
</event>
<event>
 9    1  0.8429841E-005  0.1234011E+03  0.7546771E-02  0.1239497E+00
         21   -1    0    0  501  502  0.00000000000E+00  0.00000000000E+00  0.73292004431E+02  0.73292004431E+02  0.00000000000E+00 0. -1.
          1   -1    0    0  502    0 -0.00000000000E+00 -0.00000000000E+00 -0.41293662348E+03  0.41293662348E+03  0.00000000000E+00 0. -1.
         23    2    1    2    0    0 -0.42567653685E+02 -0.74849450338E+02 -0.22118090892E+03  0.25320512297E+03  0.88189537185E+02 0.  0.
        -24    2    1    2    0    0  0.62177564856E+02  0.64037068133E+02 -0.88886944881E+01  0.12118370757E+03  0.81484271018E+02 0.  0.
         13    1    4    4    0    0  0.62673133173E+02  0.54539355896E+02 -0.37412459053E+02  0.91116162428E+02  0.00000000000E+00 0. -1.
        -14    1    4    4    0    0 -0.49556831699E+00  0.94977122378E+01  0.28523764565E+02  0.30067545139E+02  0.00000000000E+00 0.  1.
        -11    1    3    3    0    0 -0.41033540617E+02 -0.28146747005E+01 -0.13364100143E+03  0.13982700424E+03  0.00000000000E+00 0.  1.
         11    1    3    3    0    0 -0.15341130681E+01 -0.72034775637E+02 -0.87539907491E+02  0.11337811873E+03  0.00000000000E+00 0. -1.
          2    1    1    2  501    0 -0.19609911171E+02  0.10812382205E+02 -0.10957501563E+03  0.11183979737E+03  0.00000000000E+00 0. -1.
<scales pt_clust_5="13000.00000" pt_clust_6="13000.00000" pt_clust_7="13000.00000" pt_clust_8="13000.00000" pt_clust_9="22.39323"></scales>
<clustering>
<clus scale="   22.393">  1  9  2 -1</clus>
<clus scale="   81.484">  5  6 -1 -1</clus>
<clus scale="   88.190">  7  8 -1 -1</clus>
<clus scale="  118.702">  1  5  2 -1</clus>
<clus scale="   22.393">  1  5  2 -1</clus>
</clustering>
</event>
<event>
 9    1  0.8429841E-005  0.3148102E+03  0.7546771E-02  0.1128834E+00
         21   -1    0    0  501  502  0.00000000000E+00  0.00000000000E+00  0.23104951554E+03  0.23104951554E+03  0.00000000000E+00 0. -1.
          1   -1    0    0  502    0 -0.00000000000E+00 -0.00000000000E+00 -0.89305801289E+03  0.89305801289E+03  0.00000000000E+00 0. -1.
         23    2    1    2    0    0  0.26174810209E+02  0.32023733116E+01 -0.38707849587E+03  0.39629473713E+03  0.80773639439E+02 0.  0.
        -24    2    1    2    0    0 -0.13325280243E+03  0.27616932539E+03  0.61218433497E+01  0.31731993883E+03  0.81416589031E+02 0.  0.
         11    1    4    4    0    0 -0.97719683063E+02  0.12784053984E+03  0.27693101578E+02  0.16327659955E+03  0.00000000000E+00 0. -1.
        -12    1    4    4    0    0 -0.35533119363E+02  0.14832878555E+03 -0.21571258229E+02  0.15404333928E+03  0.00000000000E+00 0.  1.
        -13    1    3    3    0    0 -0.85248913172E+01  0.35828164588E+02 -0.14754609095E+03  0.15207294337E+03  0.00000000000E+00 0. -1.
         13    1    3    3    0    0  0.34699701526E+02 -0.32625791276E+02 -0.23953240492E+03  0.24422179376E+03  0.00000000000E+00 0.  1.
          2    1    1    2  501    0  0.10707799222E+03 -0.27937169870E+03 -0.28105184483E+03  0.41049285248E+03  0.00000000000E+00 0. -1.
<scales pt_clust_5="13000.00000" pt_clust_6="13000.00000" pt_clust_7="13000.00000" pt_clust_8="13000.00000" pt_clust_9="304.10017"></scales>
<clustering>
<clus scale="   80.774">  7  8 -1 -1</clus>
<clus scale="   81.417">  5  6 -1 -1</clus>
<clus scale="   84.969">  2  7  1 -1</clus>
<clus scale="  304.100">  1  9  2 -1</clus>
<clus scale="  304.100">  1  5  2 -1</clus>
</clustering>
</event>
<event>
 9    1  0.8429841E-005  0.1805243E+03  0.7546771E-02  0.1184544E+00
          1   -1    0    0  502    0 -0.00000000000E+00  0.00000000000E+00  0.86138473197E+03  0.86138473197E+03  0.00000000000E+00 0. -1.
         21   -1    0    0  501  502  0.00000000000E+00 -0.00000000000E+00 -0.18556950030E+03  0.18556950030E+03  0.00000000000E+00 0. -1.
        -24    2    1    2    0    0 -0.31701269195E+02 -0.85877325129E+02 -0.16927962551E+00  0.12216703391E+03  0.80900371310E+02 0.  0.
         23    2    1    2    0    0  0.17400721849E+03  0.13493691729E+03  0.72740753469E+03  0.76572068987E+03  0.93380777727E+02 0.  0.
         11    1    3    3    0    0 -0.45471974130E+02 -0.33608647966E+02  0.25856390421E+02  0.62175514272E+02  0.00000000000E+00 0. -1.
        -12    1    3    3    0    0  0.13770704934E+02 -0.52268677162E+02 -0.26025670047E+02  0.59991519635E+02  0.00000000000E+00 0.  1.
        -11    1    4    4    0    0  0.29243794733E+02 -0.13165023503E+02  0.95467106296E+02  0.10070990894E+03  0.00000000000E+00 0.  1.
         11    1    4    4    0    0  0.14476342376E+03  0.14810194079E+03  0.63194042839E+03  0.66501078093E+03  0.00000000000E+00 0. -1.
          2    1    1    2  501    0 -0.14230594930E+03 -0.49059592163E+02 -0.51423023393E+02  0.15906650849E+03  0.00000000000E+00 0. -1.
<scales pt_clust_5="13000.00000" pt_clust_6="13000.00000" pt_clust_7="13000.00000" pt_clust_8="13000.00000" pt_clust_9="154.49614"></scales>
<clustering>
<clus scale="   80.900">  5  6 -1 -1</clus>
<clus scale="   93.381">  7  8 -1 -1</clus>
<clus scale="  122.167">  1  5  2 -1</clus>
<clus scale="  154.496">  2  9  1 -1</clus>
<clus scale="  154.496">  2  5  1 -1</clus>
</clustering>
</event>
<event>
 9    1  0.8429841E-005  0.1380231E+03  0.7546771E-02  0.1218485E+00
         21   -1    0    0  501  502  0.00000000000E+00  0.00000000000E+00  0.21514227821E+03  0.21514227821E+03  0.00000000000E+00 0.  1.
         -2   -1    0    0    0  501 -0.00000000000E+00 -0.00000000000E+00 -0.20024812870E+03  0.20024812870E+03  0.00000000000E+00 0.  1.
        -24    2    1    2    0    0  0.84587143778E+02 -0.51203071455E+02 -0.17094316683E+02  0.12669434167E+03  0.77346629722E+02 0.  0.
         23    2    1    2    0    0 -0.25847616086E+02  0.14656120541E+03  0.34567306960E+02  0.17666858538E+03  0.88705152941E+02 0.  0.
         11    1    3    3    0    0  0.57357233332E+02 -0.36958778796E+02  0.26634379272E+02  0.73247482583E+02  0.00000000000E+00 0. -1.
        -12    1    3    3    0    0  0.27229910446E+02 -0.14244292659E+02 -0.43728695955E+02  0.53446859087E+02  0.00000000000E+00 0.  1.
        -11    1    4    4    0    0 -0.14437780189E+02  0.64580716157E+02  0.60774598888E+02  0.89848039856E+02  0.00000000000E+00 0.  1.
         11    1    4    4    0    0 -0.11409835896E+02  0.81980489258E+02 -0.26207291927E+02  0.86820545520E+02  0.00000000000E+00 0. -1.
         -1    1    1    2    0  502 -0.58739527692E+02 -0.95358133960E+02 -0.25788407660E+01  0.11202747987E+03  0.00000000000E+00 0.  1.
<scales pt_clust_5="13000.00000" pt_clust_6="13000.00000" pt_clust_7="13000.00000" pt_clust_8="13000.00000" pt_clust_9="111.99785"></scales>
<clustering>
<clus scale="   77.347">  5  6 -1 -1</clus>
<clus scale="   88.705">  7  8 -1 -1</clus>
<clus scale="  111.998">  1  9  2 -1</clus>
<clus scale="  131.012">  2  5  1 -1</clus>
<clus scale="  111.998">  1  5  2 -1</clus>
</clustering>
</event>
<event>
 9    1  0.8429841E-005  0.9946959E+02  0.7546771E-02  0.1287419E+00
          1   -1    0    0  502    0 -0.00000000000E+00  0.00000000000E+00  0.29039642166E+03  0.29039642166E+03  0.00000000000E+00 0. -1.
         21   -1    0    0  501  502  0.00000000000E+00 -0.00000000000E+00 -0.17950130728E+03  0.17950130728E+03  0.00000000000E+00 0.  1.
        -24    2    1    2    0    0  0.38084455888E+02  0.38289863189E+01  0.23577922605E+03  0.25208424747E+03  0.80557665499E+02 0.  0.
         23    2    1    2    0    0 -0.32435553807E+02  0.20843648516E+02 -0.10282932604E+02  0.10045045814E+03  0.92184776422E+02 0.  0.
         11    1    3    3    0    0  0.56539312909E+02 -0.19169444510E+02  0.15827937356E+03  0.16916418534E+03  0.00000000000E+00 0. -1.
        -12    1    3    3    0    0 -0.18454857020E+02  0.22998430829E+02  0.77499852486E+02  0.82920062130E+02  0.00000000000E+00 0.  1.
        -11    1    4    4    0    0 -0.52153755266E+00  0.36392990275E+02  0.29703522393E+02  0.46978941933E+02  0.00000000000E+00 0.  1.
         11    1    4    4    0    0 -0.31914016255E+02 -0.15549341759E+02 -0.39986454997E+02  0.53471516211E+02  0.00000000000E+00 0. -1.
          2    1    1    2  501    0 -0.56489020810E+01 -0.24672634834E+02 -0.11460117906E+03  0.11736302334E+03  0.00000000000E+00 0. -1.
<scales pt_clust_5="13000.00000" pt_clust_6="13000.00000" pt_clust_7="13000.00000" pt_clust_8="13000.00000" pt_clust_9="25.31105"></scales>
<clustering>
<clus scale="   25.311">  2  9  1 -1</clus>
<clus scale="   80.558">  5  6 -1 -1</clus>
<clus scale="   88.801">  1  5  2 -1</clus>
<clus scale="   92.185">  7  8 -1 -1</clus>
<clus scale="   25.311">  2  5  1 -1</clus>
</clustering>
</event>
<event>
 9    1  0.8429841E-005  0.1725004E+03  0.7546771E-02  0.1176802E+00
          1   -1    0    0  502    0 -0.00000000000E+00  0.00000000000E+00  0.99398665630E+03  0.99398665630E+03  0.00000000000E+00 0. -1.
         21   -1    0    0  501  502  0.00000000000E+00 -0.00000000000E+00 -0.54638851556E+02  0.54638851556E+02  0.00000000000E+00 0.  1.
         23    2    1    2    0    0  0.11628990035E+03 -0.95191715818E+02  0.64083940839E+03  0.66509360341E+03  0.95339132974E+02 0.  0.
        -24    2    1    2    0    0 -0.95426226901E+02  0.94224498977E+02  0.31782164192E+03  0.35508493919E+03  0.84203901222E+02 0.  0.
         13    1    4    4    0    0 -0.61381972578E+02  0.95703207925E+01  0.17404300650E+03  0.18479801327E+03  0.00000000000E+00 0. -1.
        -14    1    4    4    0    0 -0.34044254322E+02  0.84654178184E+02  0.14377863542E+03  0.17028692592E+03  0.00000000000E+00 0.  1.
        -13    1    3    3    0    0  0.80958423237E+02 -0.13692155813E+02  0.21628235550E+03  0.23134346484E+03  0.00000000000E+00 0.  1.
         13    1    3    3    0    0  0.35331477113E+02 -0.81499560006E+02  0.42455705289E+03  0.43375013858E+03  0.00000000000E+00 0. -1.
          2    1    1    2  501    0 -0.20863673450E+02  0.96721684157E+00 -0.19313245558E+02  0.28446965255E+02  0.00000000000E+00 0. -1.
<scales pt_clust_5="13000.00000" pt_clust_6="13000.00000" pt_clust_7="13000.00000" pt_clust_8="13000.00000" pt_clust_9="20.88608"></scales>
<clustering>
<clus scale="   20.886">  2  9  1 -1</clus>
<clus scale="   84.204">  5  6 -1 -1</clus>
<clus scale="   95.339">  7  8 -1 -1</clus>
<clus scale="  166.605">  2  5  1 -1</clus>
<clus scale="   20.886">  2  5  1 -1</clus>
</clustering>
</event>
<event>
 9    1  0.8429841E-005  0.1255220E+03  0.7546771E-02  0.1239093E+00
          1   -1    0    0  502    0 -0.00000000000E+00  0.00000000000E+00  0.52921807026E+03  0.52921807026E+03  0.00000000000E+00 0. -1.
         21   -1    0    0  501  502  0.00000000000E+00 -0.00000000000E+00 -0.93059106457E+02  0.93059106457E+02  0.00000000000E+00 0. -1.
         23    2    1    2    0    0  0.77027586451E+02 -0.32684082522E+02  0.39963596812E+03  0.41863600314E+03  0.92442943416E+02 0.  0.
        -24    2    1    2    0    0 -0.92603078485E+02  0.61930391845E+01  0.84585891350E+02  0.14659370853E+03  0.75639001091E+02 0.  0.
         11    1    4    4    0    0 -0.85524784329E+02 -0.23311908081E+02  0.69874292701E+02  0.11287316144E+03  0.00000000000E+00 0. -1.
        -12    1    4    4    0    0 -0.70782941562E+01  0.29504947266E+02  0.14711598648E+02  0.33720547091E+02  0.00000000000E+00 0.  1.
        -13    1    3    3    0    0 -0.13884451248E+02 -0.30365911198E+02  0.93807905006E+02  0.99573036465E+02  0.00000000000E+00 0.  1.
         13    1    3    3    0    0  0.90912037699E+02 -0.23181713238E+01  0.30582806311E+03  0.31906296667E+03  0.00000000000E+00 0. -1.
          2    1    1    2  501    0  0.15575492034E+02  0.26491043337E+02 -0.48062895661E+02  0.57047465049E+02  0.00000000000E+00 0. -1.
<scales pt_clust_5="13000.00000" pt_clust_6="13000.00000" pt_clust_7="13000.00000" pt_clust_8="13000.00000" pt_clust_9="30.73063"></scales>
<clustering>
<clus scale="   30.731">  2  9  1 -1</clus>
<clus scale="   75.639">  5  6 -1 -1</clus>
<clus scale="   92.443">  7  8 -1 -1</clus>
<clus scale="  113.716">  2  5  1 -1</clus>
<clus scale="   30.731">  2  5  1 -1</clus>
</clustering>
</event>
<event>
 9    1  0.8429841E-005  0.1266699E+03  0.7546771E-02  0.1237025E+00
         21   -1    0    0  501  502  0.00000000000E+00  0.00000000000E+00  0.47338565389E+02  0.47338565389E+02  0.00000000000E+00 0.  1.
          1   -1    0    0  502    0 -0.00000000000E+00 -0.00000000000E+00 -0.64071178283E+03  0.64071178283E+03  0.00000000000E+00 0. -1.
        -24    2    1    2    0    0  0.73356673849E+02 -0.21791274852E+02 -0.31623449940E+03  0.33608862582E+03  0.84233274518E+02 0.  0.
         23    2    1    2    0    0 -0.83702080010E+02  0.23000835267E+01 -0.29583942224E+03  0.32303681435E+03  0.99098390960E+02 0.  0.
         13    1    3    3    0    0  0.80766748996E+02  0.65614260459E+01 -0.26445755427E+03  0.27659377807E+03  0.00000000000E+00 0. -1.
        -14    1    3    3    0    0 -0.74100751467E+01 -0.28352700898E+02 -0.51776945124E+02  0.59494847746E+02  0.00000000000E+00 0.  1.
        -13    1    4    4    0    0 -0.23481313032E+02  0.15975104315E+02 -0.92487067995E+01  0.29868287481E+02  0.00000000000E+00 0.  1.
         13    1    4    4    0    0 -0.60220766978E+02 -0.13675020788E+02 -0.28659071544E+03  0.29316852687E+03  0.00000000000E+00 0. -1.
          2    1    1    2  501    0  0.10345406161E+02  0.19491191326E+02  0.18700704203E+02  0.28924908049E+02  0.00000000000E+00 0. -1.
<scales pt_clust_5="13000.00000" pt_clust_6="13000.00000" pt_clust_7="13000.00000" pt_clust_8="13000.00000" pt_clust_9="22.06658"></scales>
<clustering>
<clus scale="   22.067">  1  9  2 -1</clus>
<clus scale="   84.233">  5  6 -1 -1</clus>
<clus scale="   99.098">  7  8 -1 -1</clus>
<clus scale="  115.412">  2  5  1 -1</clus>
<clus scale="   22.067">  1  5  2 -1</clus>
</clustering>
</event>
<event>
 9    1  0.8429841E-005  0.1323336E+03  0.7546771E-02  0.1226549E+00
         21   -1    0    0  501  502  0.00000000000E+00  0.00000000000E+00  0.33432130609E+03  0.33432130609E+03  0.00000000000E+00 0. -1.
          1   -1    0    0  502    0 -0.00000000000E+00 -0.00000000000E+00 -0.10577342480E+03  0.10577342480E+03  0.00000000000E+00 0. -1.
        -24    2    1    2    0    0  0.10361750529E+03 -0.25672881043E+02  0.72703308583E+01  0.13470050119E+03  0.81827153723E+02 0.  0.
         23    2    1    2    0    0 -0.10286946944E+03 -0.35720229660E+02  0.20380900691E+03  0.24155988462E+03  0.70391789386E+02 0.  0.
         11    1    3    3    0    0  0.97743038647E+02 -0.43710299016E+02 -0.11900254084E+02  0.10773071935E+03  0.00000000000E+00 0. -1.
        -12    1    3    3    0    0  0.58744666402E+01  0.18037417973E+02  0.19170584943E+02  0.26969781840E+02  0.00000000000E+00 0.  1.
        -11    1    4    4    0    0 -0.31213224602E+02 -0.27626307561E+02  0.24634385409E+02  0.48418294105E+02  0.00000000000E+00 0.  1.
         11    1    4    4    0    0 -0.71656244841E+02 -0.80939220987E+01  0.17917462150E+03  0.19314159052E+03  0.00000000000E+00 0. -1.
          2    1    1    2  501    0 -0.74803584432E+00  0.61393110703E+02  0.17468543522E+02  0.63834345084E+02  0.00000000000E+00 0. -1.
<scales pt_clust_5="13000.00000" pt_clust_6="13000.00000" pt_clust_7="13000.00000" pt_clust_8="13000.00000" pt_clust_9="61.39770"></scales>
<clustering>
<clus scale="   61.398">  1  9  2 -1</clus>
<clus scale="   70.392">  7  8 -1 -1</clus>
<clus scale="   81.827">  5  6 -1 -1</clus>
<clus scale="  125.585">  1  7  2 -1</clus>
<clus scale="   61.398">  1  5  2 -1</clus>
</clustering>
</event>
<event>
 9    1  0.8429841E-005  0.1367280E+03  0.7546771E-02  0.1220694E+00
         -4   -1    0    0    0  501 -0.00000000000E+00  0.00000000000E+00  0.10858021682E+04  0.10858021682E+04  0.00000000000E+00 0.  1.
         21   -1    0    0  501  502  0.00000000000E+00 -0.00000000000E+00 -0.44198312783E+02  0.44198312783E+02  0.00000000000E+00 0. -1.
         23    2    1    2    0    0 -0.65794846211E+02  0.55815557572E+02  0.33206560575E+03  0.35546505016E+03  0.92970409881E+02 0.  0.
        -24    2    1    2    0    0  0.15568902412E+03  0.13468373811E+02  0.28324327102E+03  0.33339074345E+03  0.80636021201E+02 0.  0.
         13    1    4    4    0    0  0.10309837175E+03 -0.29969349495E+02  0.18214897754E+03  0.21143719206E+03  0.00000000000E+00 0. -1.
        -14    1    4    4    0    0  0.52590652375E+02  0.43437723306E+02  0.10109429349E+03  0.12195355140E+03  0.00000000000E+00 0.  1.
        -13    1    3    3    0    0  0.17960687010E+02  0.35320853766E+02  0.12607782127E+03  0.13215810987E+03  0.00000000000E+00 0.  1.
         13    1    3    3    0    0 -0.83755533221E+02  0.20494703806E+02  0.20598778447E+03  0.22330694029E+03  0.00000000000E+00 0. -1.
         -3    1    1    2    0  502 -0.89894177913E+02 -0.69283931382E+02  0.42629497865E+03  0.44114468737E+03  0.00000000000E+00 0.  1.
<scales pt_clust_5="13000.00000" pt_clust_6="13000.00000" pt_clust_7="13000.00000" pt_clust_8="13000.00000" pt_clust_9="113.49555"></scales>
<clustering>
<clus scale="   80.636">  5  6 -1 -1</clus>
<clus scale="   92.970">  7  8 -1 -1</clus>
<clus scale="  113.496">  2  9  1 -1</clus>
<clus scale="  128.659">  2  5  1 -1</clus>
<clus scale="  113.496">  2  5  1 -1</clus>
</clustering>
</event>
<event>
 9    1  0.8429841E-005  0.8997362E+02  0.7546771E-02  0.1306216E+00
         -4   -1    0    0    0  501 -0.00000000000E+00  0.00000000000E+00  0.40498417268E+03  0.40498417268E+03  0.00000000000E+00 0.  1.
         21   -1    0    0  501  502  0.00000000000E+00 -0.00000000000E+00 -0.44110130720E+02  0.44110130720E+02  0.00000000000E+00 0. -1.
        -24    2    1    2    0    0  0.32106395350E+01  0.33251490906E+02  0.17059620710E+03  0.19178542799E+03  0.81009966411E+02 0.  0.
         23    2    1    2    0    0 -0.49297548042E+01  0.18222731373E+01  0.27710103030E+02  0.90991733439E+02  0.86510245535E+02 0.  0.
         13    1    3    3    0    0  0.25299488279E+02 -0.18316959557E+02  0.68690217016E+02  0.75458074640E+02  0.00000000000E+00 0. -1.
        -14    1    3    3    0    0 -0.22088848744E+02  0.51568450464E+02  0.10190599009E+03  0.11632735335E+03  0.00000000000E+00 0.  1.
        -11    1    4    4    0    0  0.19846458457E+02 -0.35108237941E+02  0.22592825097E+02  0.46226680937E+02  0.00000000000E+00 0.  1.
         11    1    4    4    0    0 -0.24776213261E+02  0.36930511078E+02  0.51172779327E+01  0.44765052502E+02  0.00000000000E+00 0. -1.
         -3    1    1    2    0  502  0.17191152691E+01 -0.35073764043E+02  0.16256773183E+03  0.16631714197E+03  0.00000000000E+00 0.  1.
<scales pt_clust_5="13000.00000" pt_clust_6="13000.00000" pt_clust_7="13000.00000" pt_clust_8="13000.00000" pt_clust_9="35.11589"></scales>
<clustering>
<clus scale="   35.116">  2  9  1 -1</clus>
<clus scale="   81.010">  5  6 -1 -1</clus>
<clus scale="   84.699">  1  5  2 -1</clus>
<clus scale="   86.510">  7  8 -1 -1</clus>
<clus scale="   35.116">  2  5  1 -1</clus>
</clustering>
</event>
<event>
 9    1  0.8429841E-005  0.1065991E+03  0.7546771E-02  0.1271572E+00
         21   -1    0    0  501  502  0.00000000000E+00  0.00000000000E+00  0.10755401754E+03  0.10755401754E+03  0.00000000000E+00 0.  1.
          1   -1    0    0  502    0 -0.00000000000E+00 -0.00000000000E+00 -0.22902857051E+03  0.22902857051E+03  0.00000000000E+00 0. -1.
        -24    2    1    2    0    0  0.55155608104E+02  0.21537845264E+02 -0.16357990363E+03  0.19136822286E+03  0.79733255074E+02 0.  0.
         23    2    1    2    0    0 -0.26509228737E+02 -0.37493036765E+02  0.47306396795E+02  0.11201445453E+03  0.90558687230E+02 0.  0.
         13    1    3    3    0    0  0.64787092154E+02  0.74795685466E+01 -0.16153660960E+03  0.17420501570E+03  0.00000000000E+00 0. -1.
        -14    1    3    3    0    0 -0.96314840494E+01  0.14058276717E+02 -0.20432940259E+01  0.17163207151E+02  0.00000000000E+00 0.  1.
        -11    1    4    4    0    0 -0.23098279433E+02 -0.26540324405E+01  0.67645082456E+02  0.71529235851E+02  0.00000000000E+00 0.  1.
         11    1    4    4    0    0 -0.34109493037E+01 -0.34839004325E+02 -0.20338685661E+02  0.40485218684E+02  0.00000000000E+00 0. -1.
          2    1    1    2  501    0 -0.28646379367E+02  0.15955191502E+02 -0.52010461340E+01  0.33199910657E+02  0.00000000000E+00 0. -1.
<scales pt_clust_5="13000.00000" pt_clust_6="13000.00000" pt_clust_7="13000.00000" pt_clust_8="13000.00000" pt_clust_9="32.78999"></scales>
<clustering>
<clus scale="   32.790">  1  9  2 -1</clus>
<clus scale="   79.733">  5  6 -1 -1</clus>
<clus scale="   90.559">  7  8 -1 -1</clus>
<clus scale="   97.570">  2  5  1 -1</clus>
<clus scale="   32.790">  1  5  2 -1</clus>
</clustering>
</event>
<event>
 9    1  0.8429841E-005  0.2497256E+03  0.7546771E-02  0.1114265E+00
         21   -1    0    0  501  502  0.00000000000E+00  0.00000000000E+00  0.62291650955E+03  0.62291650955E+03  0.00000000000E+00 0. -1.
          1   -1    0    0  502    0 -0.00000000000E+00 -0.00000000000E+00 -0.20791263669E+03  0.20791263669E+03  0.00000000000E+00 0. -1.
        -24    2    1    2    0    0 -0.19881147992E+03  0.79228317998E+02  0.13027906058E+03  0.26280539419E+03  0.79315261245E+02 0.  0.
         23    2    1    2    0    0  0.25615917185E+03 -0.83126984607E+02  0.36883712351E+03  0.46614716853E+03  0.93406328231E+02 0.  0.
         11    1    3    3    0    0 -0.81543936404E+02  0.46088101918E+02  0.10045414765E+03  0.13734832537E+03  0.00000000000E+00 0. -1.
        -12    1    3    3    0    0 -0.11726754351E+03  0.33140216081E+02  0.29824912934E+02  0.12545706881E+03  0.00000000000E+00 0.  1.
        -11    1    4    4    0    0  0.15115692259E+03 -0.31612453727E+02  0.27817272433E+03  0.31816320818E+03  0.00000000000E+00 0.  1.
         11    1    4    4    0    0  0.10500224926E+03 -0.51514530880E+02  0.90664399179E+02  0.14798396035E+03  0.00000000000E+00 0. -1.
          2    1    1    2  501    0 -0.57347691930E+02  0.38986666090E+01 -0.84112311234E+02  0.10187658353E+03  0.00000000000E+00 0. -1.
<scales pt_clust_5="13000.00000" pt_clust_6="13000.00000" pt_clust_7="13000.00000" pt_clust_8="13000.00000" pt_clust_9="57.48009"></scales>
<clustering>
<clus scale="   57.480">  1  9  2 -1</clus>
<clus scale="   79.315">  5  6 -1 -1</clus>
<clus scale="   93.406">  7  8 -1 -1</clus>
<clus scale="  244.804">  2  5  1 -1</clus>
<clus scale="   57.480">  1  5  2 -1</clus>
</clustering>
</event>
<event>
 9    1  0.8429841E-005  0.9054867E+02  0.7546771E-02  0.1303348E+00
         21   -1    0    0  501  502  0.00000000000E+00  0.00000000000E+00  0.56630991691E+02  0.56630991691E+02  0.00000000000E+00 0.  1.
         -4   -1    0    0    0  501 -0.00000000000E+00 -0.00000000000E+00 -0.21710745868E+03  0.21710745868E+03  0.00000000000E+00 0.  1.
         23    2    1    2    0    0  0.40224295372E+02 -0.51048952886E+01 -0.77219899220E+02  0.12104666381E+03  0.83936452682E+02 0.  0.
        -24    2    1    2    0    0 -0.15287681887E+02  0.33997567984E+02 -0.66407604119E+02  0.11097238097E+03  0.80717727954E+02 0.  0.
         11    1    4    4    0    0  0.27646938640E+02  0.74985887519E+01 -0.13961405495E+01  0.28679805750E+02  0.00000000000E+00 0. -1.
        -12    1    4    4    0    0 -0.42934620527E+02  0.26498979232E+02 -0.65011463570E+02  0.82292575216E+02  0.00000000000E+00 0.  1.
        -13    1    3    3    0    0 -0.96388653721E+01 -0.33789052108E+02 -0.35793532415E+02  0.50157598933E+02  0.00000000000E+00 0. -1.
         13    1    3    3    0    0  0.49863160744E+02  0.28684156819E+02 -0.41426366805E+02  0.70889064873E+02  0.00000000000E+00 0.  1.
         -3    1    1    2    0  502 -0.24936613485E+02 -0.28892672695E+02 -0.16848963652E+02  0.41719405601E+02  0.00000000000E+00 0.  1.
<scales pt_clust_5="13000.00000" pt_clust_6="13000.00000" pt_clust_7="13000.00000" pt_clust_8="13000.00000" pt_clust_9="38.16571"></scales>
<clustering>
<clus scale="   38.166">  1  9  2 -1</clus>
<clus scale="   80.718">  5  6 -1 -1</clus>
<clus scale="   83.936">  7  8 -1 -1</clus>
<clus scale="   87.573">  1  5  2 -1</clus>
<clus scale="   38.166">  1  5  2 -1</clus>
</clustering>
</event>
<event>
 9    1  0.8429841E-005  0.1119377E+03  0.7546771E-02  0.1260528E+00
         21   -1    0    0  501  502  0.00000000000E+00  0.00000000000E+00  0.34042172817E+02  0.34042172817E+02  0.00000000000E+00 0. -1.
          1   -1    0    0  502    0 -0.00000000000E+00 -0.00000000000E+00 -0.56689418980E+03  0.56689418980E+03  0.00000000000E+00 0. -1.
         23    2    1    2    0    0 -0.36821811560E+02 -0.13572961166E+02 -0.15128939887E+03  0.18054648377E+03  0.90379641021E+02 0.  0.
        -24    2    1    2    0    0  0.90414681843E+02  0.16886479403E+02 -0.25505970740E+03  0.28296294710E+03  0.80948176113E+02 0.  0.
         13    1    4    4    0    0  0.68118158799E+02  0.46534550654E+02 -0.20223592637E+03  0.21841455509E+03  0.00000000000E+00 0. -1.
        -14    1    4    4    0    0  0.22296523044E+02 -0.29648071251E+02 -0.52823781031E+02  0.64548392011E+02  0.00000000000E+00 0.  1.
        -13    1    3    3    0    0 -0.17174444927E+01 -0.37597984403E+02 -0.20173598106E+02  0.42702834886E+02  0.00000000000E+00 0. -1.
         13    1    3    3    0    0 -0.35104367067E+02  0.24025023237E+02 -0.13111580076E+03  0.13784364888E+03  0.00000000000E+00 0.  1.
          2    1    1    2  501    0 -0.53592870284E+02 -0.33135182371E+01 -0.12650291072E+03  0.13742693175E+03  0.00000000000E+00 0. -1.
<scales pt_clust_5="13000.00000" pt_clust_6="13000.00000" pt_clust_7="13000.00000" pt_clust_8="13000.00000" pt_clust_9="53.69523"></scales>
<clustering>
<clus scale="   53.695">  1  9  2 -1</clus>
<clus scale="   80.948">  5  6 -1 -1</clus>
<clus scale="   90.380">  7  8 -1 -1</clus>
<clus scale="  104.471">  1  5  2 -1</clus>
<clus scale="   53.695">  1  5  2 -1</clus>
</clustering>
</event>
<event>
 9    1  0.8429841E-005  0.1188584E+03  0.7546771E-02  0.1247840E+00
          1   -1    0    0  502    0 -0.00000000000E+00  0.00000000000E+00  0.79142795388E+02  0.79142795388E+02  0.00000000000E+00 0. -1.
         21   -1    0    0  501  502  0.00000000000E+00 -0.00000000000E+00 -0.26857335430E+03  0.26857335430E+03  0.00000000000E+00 0.  1.
         23    2    1    2    0    0  0.23685667909E+02 -0.66318170498E+02 -0.88288400848E+02  0.14540735986E+03  0.91593383909E+02 0.  0.
        -24    2    1    2    0    0 -0.56730635909E+02  0.63717210388E+02 -0.11587654692E+03  0.16603432059E+03  0.82835822786E+02 0.  0.
         13    1    4    4    0    0 -0.69116338202E+02  0.61632560600E+02 -0.63775853311E+02  0.11244109657E+03  0.00000000000E+00 0. -1.
        -14    1    4    4    0    0  0.12385702293E+02  0.20846497881E+01 -0.52100693606E+02  0.53593224014E+02  0.00000000000E+00 0.  1.
        -13    1    3    3    0    0 -0.21764863504E+02 -0.66616659779E+02 -0.53973339397E+02  0.88456825679E+02  0.00000000000E+00 0.  1.
         13    1    3    3    0    0  0.45450531413E+02  0.29848928146E+00 -0.34315061451E+02  0.56950534185E+02  0.00000000000E+00 0. -1.
          2    1    1    2  501    0  0.33044968000E+02  0.26009601102E+01  0.14734388854E+02  0.36274469238E+02  0.00000000000E+00 0. -1.
<scales pt_clust_5="13000.00000" pt_clust_6="13000.00000" pt_clust_7="13000.00000" pt_clust_8="13000.00000" pt_clust_9="33.14719"></scales>
<clustering>
<clus scale="   33.147">  2  9  1 -1</clus>
<clus scale="   82.836">  5  6 -1 -1</clus>
<clus scale="   91.593">  7  8 -1 -1</clus>
<clus scale="  112.249">  2  5  1 -1</clus>
<clus scale="   33.147">  2  5  1 -1</clus>
</clustering>
</event>
<event>
 9    1  0.8429841E-005  0.1046271E+03  0.7546771E-02  0.1276186E+00
         -4   -1    0    0    0  501 -0.00000000000E+00  0.00000000000E+00  0.76969703851E+02  0.76969703851E+02  0.00000000000E+00 0.  1.
         21   -1    0    0  501  502  0.00000000000E+00 -0.00000000000E+00 -0.32984279083E+03  0.32984279083E+03  0.00000000000E+00 0.  1.
         23    2    1    2    0    0 -0.14103212545E+02 -0.37979627997E+02 -0.14180422219E+03  0.17341862962E+03  0.91237223337E+02 0.  0.
        -24    2    1    2    0    0  0.69686279812E+02  0.19785087152E+02 -0.13296319565E+03  0.17094484260E+03  0.79342930038E+02 0.  0.
         11    1    4    4    0    0  0.20399980412E+02  0.38407150717E+02 -0.23429817587E+02  0.49398631349E+02  0.00000000000E+00 0. -1.
        -12    1    4    4    0    0  0.49286299400E+02 -0.18622063565E+02 -0.10953337806E+03  0.12154621125E+03  0.00000000000E+00 0.  1.
        -13    1    3    3    0    0 -0.20675320161E+02  0.16187484564E+02 -0.10343074049E+03  0.10671186250E+03  0.00000000000E+00 0.  1.
         13    1    3    3    0    0  0.65721076166E+01 -0.54167112561E+02 -0.38373481696E+02  0.66706767117E+02  0.00000000000E+00 0. -1.
         -3    1    1    2    0  502 -0.55583067268E+02  0.18194540845E+02  0.21894330852E+02  0.62449022465E+02  0.00000000000E+00 0.  1.
<scales pt_clust_5="13000.00000" pt_clust_6="13000.00000" pt_clust_7="13000.00000" pt_clust_8="13000.00000" pt_clust_9="58.48523"></scales>
<clustering>
<clus scale="   58.485">  2  9  1 -1</clus>
<clus scale="   79.343">  5  6 -1 -1</clus>
<clus scale="   91.237">  7  8 -1 -1</clus>
<clus scale="   94.435">  2  5  1 -1</clus>
<clus scale="   58.485">  2  5  1 -1</clus>
</clustering>
</event>
<event>
 9    1  0.8429841E-005  0.1331800E+03  0.7546771E-02  0.1237815E+00
         21   -1    0    0  501  502  0.00000000000E+00  0.00000000000E+00  0.54409156069E+03  0.54409156069E+03  0.00000000000E+00 0.  1.
         -2   -1    0    0    0  501 -0.00000000000E+00 -0.00000000000E+00 -0.10663703349E+03  0.10663703349E+03  0.00000000000E+00 0.  1.
         23    2    1    2    0    0 -0.20421359473E+02 -0.56751781677E+01 -0.20805338835E+01  0.97737204841E+02  0.95388641981E+02 0.  0.
        -24    2    1    2    0    0  0.62440355129E+01  0.10727018930E+03  0.42946367409E+03  0.44991871771E+03  0.80261595367E+02 0.  0.
         11    1    4    4    0    0  0.42961344865E+02  0.65978810223E+02  0.24251861840E+03  0.25497874582E+03  0.00000000000E+00 0. -1.
        -12    1    4    4    0    0 -0.36717309352E+02  0.41291379075E+02  0.18694505569E+03  0.19493997189E+03  0.00000000000E+00 0.  1.
        -13    1    3    3    0    0  0.34816906926E+01  0.42833669144E+02 -0.65640493056E+01  0.43473349603E+02  0.00000000000E+00 0.  1.
         13    1    3    3    0    0 -0.23903050166E+02 -0.48508847312E+02  0.44835154221E+01  0.54263855238E+02  0.00000000000E+00 0. -1.
         -1    1    1    2    0  502  0.14177323960E+02 -0.10159501113E+03  0.10071387000E+02  0.10307267163E+03  0.00000000000E+00 0.  1.
<scales pt_clust_5="13000.00000" pt_clust_6="13000.00000" pt_clust_7="13000.00000" pt_clust_8="13000.00000" pt_clust_9="106.27796"></scales>
<clustering>
<clus scale="   80.262">  5  6 -1 -1</clus>
<clus scale="   95.389">  7  8 -1 -1</clus>
<clus scale="   97.715">  2  7  1 -1</clus>
<clus scale="  106.278">  1  9  2 -1</clus>
<clus scale="  106.278">  1  5  2 -1</clus>
</clustering>
</event>
<event>
 9    1  0.8429841E-005  0.2267777E+03  0.7546771E-02  0.1129551E+00
         21   -1    0    0  501  502  0.00000000000E+00  0.00000000000E+00  0.61785942186E+02  0.61785942186E+02  0.00000000000E+00 0.  1.
          1   -1    0    0  502    0 -0.00000000000E+00 -0.00000000000E+00 -0.15578082643E+04  0.15578082643E+04  0.00000000000E+00 0. -1.
        -24    2    1    2    0    0  0.17939383250E+03 -0.76356829730E+02 -0.49426357000E+03  0.53778412811E+03  0.83082965983E+02 0.  0.
         23    2    1    2    0    0 -0.15675740918E+03  0.18353395107E+03 -0.44626407480E+03  0.51561781463E+03  0.91937531927E+02 0.  0.
         13    1    3    3    0    0  0.10749863691E+03 -0.23594465225E+02 -0.36124484916E+03  0.37763804995E+03  0.00000000000E+00 0. -1.
        -14    1    3    3    0    0  0.71895195587E+02 -0.52762364505E+02 -0.13301872085E+03  0.16014607817E+03  0.00000000000E+00 0.  1.
        -13    1    4    4    0    0 -0.10575245583E+03  0.53544815267E+02 -0.19741213830E+03  0.23026545877E+03  0.00000000000E+00 0. -1.
         13    1    4    4    0    0 -0.51004953358E+02  0.12998913580E+03 -0.24885193650E+03  0.28535235585E+03  0.00000000000E+00 0.  1.
          2    1    1    2  501    0 -0.22636423311E+02 -0.10717712134E+03 -0.55549467732E+03  0.56619226375E+03  0.00000000000E+00 0. -1.
<scales pt_clust_5="13000.00000" pt_clust_6="13000.00000" pt_clust_7="13000.00000" pt_clust_8="13000.00000" pt_clust_9="109.54157"></scales>
<clustering>
<clus scale="   83.083">  5  6 -1 -1</clus>
<clus scale="   91.938">  7  8 -1 -1</clus>
<clus scale="  109.542">  1  9  2 -1</clus>
<clus scale="  223.335">  2  5  1 -1</clus>
<clus scale="  109.542">  1  5  2 -1</clus>
</clustering>
</event>
<event>
 9    1  0.8429841E-005  0.9294186E+02  0.7546771E-02  0.1300078E+00
         -2   -1    0    0    0  501 -0.00000000000E+00  0.00000000000E+00  0.96862892758E+03  0.96862892758E+03  0.00000000000E+00 0.  1.
         21   -1    0    0  501  502  0.00000000000E+00 -0.00000000000E+00 -0.19467410716E+02  0.19467410716E+02  0.00000000000E+00 0.  1.
        -24    2    1    2    0    0 -0.19796502497E+02  0.44956281542E+02  0.61524274062E+03  0.62219237183E+03  0.78655889261E+02 0.  0.
         23    2    1    2    0    0 -0.24621230438E+02 -0.62948833859E+01  0.22054979439E+03  0.23815356626E+03  0.86192103881E+02 0.  0.
         11    1    3    3    0    0  0.26431587081E+02  0.36577373518E+02  0.26545306473E+03  0.26926169914E+03  0.00000000000E+00 0. -1.
        -12    1    3    3    0    0 -0.46228089578E+02  0.83789080238E+01  0.34978967589E+03  0.35293067269E+03  0.00000000000E+00 0.  1.
        -13    1    4    4    0    0 -0.20205419573E+02 -0.41013085883E+02  0.17405056396E+03  0.17995535837E+03  0.00000000000E+00 0.  1.
         13    1    4    4    0    0 -0.44158108656E+01  0.34718202497E+02  0.46499230431E+02  0.58198207884E+02  0.00000000000E+00 0. -1.
         -1    1    1    2    0  502  0.44417732935E+02 -0.38661398156E+02  0.11336898185E+03  0.12775040021E+03  0.00000000000E+00 0.  1.
<scales pt_clust_5="13000.00000" pt_clust_6="13000.00000" pt_clust_7="13000.00000" pt_clust_8="13000.00000" pt_clust_9="58.88666"></scales>
<clustering>
<clus scale="   58.887">  2  9  1 -1</clus>
<clus scale="   78.656">  5  6 -1 -1</clus>
<clus scale="   85.999">  1  5  2 -1</clus>
<clus scale="   86.192">  7  8 -1 -1</clus>
<clus scale="   58.887">  2  5  1 -1</clus>
</clustering>
</event>
<event>
 9    1  0.8429841E-005  0.1147914E+03  0.7546771E-02  0.1252091E+00
         21   -1    0    0  501  502  0.00000000000E+00  0.00000000000E+00  0.10981632880E+03  0.10981632880E+03  0.00000000000E+00 0.  1.
          1   -1    0    0  502    0 -0.00000000000E+00 -0.00000000000E+00 -0.31705483788E+03  0.31705483788E+03  0.00000000000E+00 0. -1.
        -24    2    1    2    0    0 -0.59488155271E+02  0.48237515455E+02 -0.15856101660E+03  0.19707413840E+03  0.88492494197E+02 0.  0.
         23    2    1    2    0    0  0.85933445098E+02  0.22722370669E+02  0.21022236809E+02  0.12687613119E+03  0.88061087382E+02 0.  0.
         13    1    3    3    0    0 -0.93441194882E+01  0.33102810919E+02 -0.13558182781E+03  0.13987687690E+03  0.00000000000E+00 0. -1.
        -14    1    3    3    0    0 -0.50144035782E+02  0.15134704536E+02 -0.22979188784E+02  0.57197261500E+02  0.00000000000E+00 0.  1.
        -13    1    4    4    0    0 -0.17753842499E+01 -0.21075263872E+02 -0.10874310481E+02  0.23781702314E+02  0.00000000000E+00 0. -1.
         13    1    4    4    0    0  0.87708829348E+02  0.43797634541E+02  0.31896547290E+02  0.10309442888E+03  0.00000000000E+00 0.  1.
          2    1    1    2  501    0 -0.26445289828E+02 -0.70959886125E+02 -0.69699729290E+02  0.10292089708E+03  0.00000000000E+00 0. -1.
<scales pt_clust_5="13000.00000" pt_clust_6="13000.00000" pt_clust_7="13000.00000" pt_clust_8="13000.00000" pt_clust_9="75.72757"></scales>
<clustering>
<clus scale="   75.728">  1  9  2 -1</clus>
<clus scale="   88.061">  7  8 -1 -1</clus>
<clus scale="   88.492">  5  6 -1 -1</clus>
<clus scale="  114.459">  1  7  2 -1</clus>
<clus scale="   75.728">  1  5  2 -1</clus>
</clustering>
</event>
<event>
 9    1  0.8429841E-005  0.1302295E+03  0.7546771E-02  0.1229754E+00
          3   -1    0    0  502    0 -0.00000000000E+00  0.00000000000E+00  0.11920941779E+03  0.11920941779E+03  0.00000000000E+00 0. -1.
         21   -1    0    0  501  502  0.00000000000E+00 -0.00000000000E+00 -0.31668538552E+03  0.31668538552E+03  0.00000000000E+00 0. -1.
        -24    2    1    2    0    0 -0.58515607614E+02 -0.56286548738E+02 -0.26373735490E+01  0.11398718160E+03  0.79961677865E+02 0.  0.
         23    2    1    2    0    0  0.79110387380E+02  0.12079674636E+03 -0.18828849498E+03  0.25387370112E+03  0.90271764449E+02 0.  0.
         13    1    3    3    0    0 -0.77115614519E+02 -0.56057991356E+02 -0.14713285437E+01  0.95349259070E+02  0.00000000000E+00 0. -1.
        -14    1    3    3    0    0  0.18600006905E+02 -0.22855738226E+00 -0.11660450053E+01  0.18637922532E+02  0.00000000000E+00 0.  1.
        -11    1    4    4    0    0  0.34594604767E+02  0.19761668080E+02 -0.11410089405E+03  0.12085662674E+03  0.00000000000E+00 0.  1.
         11    1    4    4    0    0  0.44515782613E+02  0.10103507828E+03 -0.74187600927E+02  0.13301707438E+03  0.00000000000E+00 0. -1.
          4    1    1    2  501    0 -0.20594779766E+02 -0.64510197624E+02 -0.65500992030E+01  0.68033920588E+02  0.00000000000E+00 0. -1.
<scales pt_clust_5="13000.00000" pt_clust_6="13000.00000" pt_clust_7="13000.00000" pt_clust_8="13000.00000" pt_clust_9="67.71791"></scales>
<clustering>
<clus scale="   67.718">  2  9  1 -1</clus>
<clus scale="   79.962">  5  6 -1 -1</clus>
<clus scale="   90.272">  7  8 -1 -1</clus>
<clus scale="  123.307">  1  5  2 -1</clus>
<clus scale="   67.718">  2  5  1 -1</clus>
</clustering>
</event>
<event>
 9    1  0.8429841E-005  0.1264771E+03  0.7546771E-02  0.1236041E+00
         -2   -1    0    0    0  501 -0.00000000000E+00  0.00000000000E+00  0.17635919986E+03  0.17635919986E+03  0.00000000000E+00 0.  1.
         21   -1    0    0  501  502  0.00000000000E+00 -0.00000000000E+00 -0.34612780765E+03  0.34612780765E+03  0.00000000000E+00 0.  1.
         23    2    1    2    0    0 -0.15103074664E+02 -0.93587514447E+02  0.26024628084E+02  0.13461362308E+03  0.91960972843E+02 0.  0.
        -24    2    1    2    0    0 -0.79528399727E+02  0.54493976318E+02 -0.24424537573E+03  0.27459924561E+03  0.80340415167E+02 0.  0.
         11    1    4    4    0    0 -0.14606144153E+02  0.39894857133E+02 -0.16851041780E+03  0.17378348592E+03  0.00000000000E+00 0. -1.
        -12    1    4    4    0    0 -0.64922255574E+02  0.14599119185E+02 -0.75734957932E+02  0.10081575969E+03  0.00000000000E+00 0.  1.
        -11    1    3    3    0    0 -0.93737512427E+01 -0.67042417541E+02 -0.28695570437E+02  0.73525429104E+02  0.00000000000E+00 0. -1.
         11    1    3    3    0    0 -0.57293234215E+01 -0.26545096905E+02  0.54720198522E+02  0.61088193972E+02  0.00000000000E+00 0.  1.
         -1    1    1    2    0  502  0.94631474391E+02  0.39093538129E+02  0.48452139856E+02  0.11327413882E+03  0.00000000000E+00 0.  1.
<scales pt_clust_5="13000.00000" pt_clust_6="13000.00000" pt_clust_7="13000.00000" pt_clust_8="13000.00000" pt_clust_9="102.38863"></scales>
<clustering>
<clus scale="   80.340">  5  6 -1 -1</clus>
<clus scale="   91.961">  7  8 -1 -1</clus>
<clus scale="  102.389">  2  9  1 -1</clus>
<clus scale="  118.297">  2  5  1 -1</clus>
<clus scale="  102.389">  2  5  1 -1</clus>
</clustering>
</event>
<event>
 9    1  0.8429841E-005  0.1307239E+03  0.7546771E-02  0.1226933E+00
         21   -1    0    0  501  502  0.00000000000E+00  0.00000000000E+00  0.77086641872E+02  0.77086641872E+02  0.00000000000E+00 0.  1.
         -2   -1    0    0    0  501 -0.00000000000E+00 -0.00000000000E+00 -0.49275838763E+03  0.49275838763E+03  0.00000000000E+00 0.  1.
        -24    2    1    2    0    0 -0.46896224509E+02  0.85929420729E+02 -0.37007928144E+03  0.39311014316E+03  0.89407991175E+02 0.  0.
         23    2    1    2    0    0  0.67827022645E+02 -0.44385641948E+02 -0.20795536855E+02  0.12401988394E+03  0.91530798361E+02 0.  0.
         11    1    3    3    0    0 -0.63606280470E+02  0.29186315870E+02 -0.15541046930E+03  0.17044064632E+03  0.00000000000E+00 0. -1.
        -12    1    3    3    0    0  0.16710055961E+02  0.56743104859E+02 -0.21466881214E+03  0.22266949684E+03  0.00000000000E+00 0.  1.
        -13    1    4    4    0    0  0.22065480227E+02 -0.23211807712E+02  0.35924773573E+02  0.48127567892E+02  0.00000000000E+00 0.  1.
         13    1    4    4    0    0  0.45761542418E+02 -0.21173834236E+02 -0.56720310429E+02  0.75892316053E+02  0.00000000000E+00 0. -1.
         -1    1    1    2    0  502 -0.20930798137E+02 -0.41543778781E+02 -0.24796927464E+02  0.52715002397E+02  0.00000000000E+00 0.  1.
<scales pt_clust_5="13000.00000" pt_clust_6="13000.00000" pt_clust_7="13000.00000" pt_clust_8="13000.00000" pt_clust_9="46.51864"></scales>
<clustering>
<clus scale="   46.519">  1  9  2 -1</clus>
<clus scale="   89.408">  5  6 -1 -1</clus>
<clus scale="   91.531">  7  8 -1 -1</clus>
<clus scale="  129.246">  2  5  1 -1</clus>
<clus scale="   46.519">  1  5  2 -1</clus>
</clustering>
</event>
<event>
 9    1  0.8429841E-005  0.9835229E+02  0.7546771E-02  0.1284279E+00
          1   -1    0    0  502    0 -0.00000000000E+00  0.00000000000E+00  0.85557553298E+03  0.85557553298E+03  0.00000000000E+00 0. -1.
         21   -1    0    0  501  502  0.00000000000E+00 -0.00000000000E+00 -0.29136047639E+02  0.29136047639E+02  0.00000000000E+00 0. -1.
         23    2    1    2    0    0 -0.41479091943E+02  0.50689669675E+02  0.44421755399E+03  0.45622732047E+03  0.80772365277E+02 0.  0.
        -24    2    1    2    0    0 -0.34090911011E+02 -0.53975487866E+02  0.13082922101E+03  0.16595822951E+03  0.79688803284E+02 0.  0.
         11    1    4    4    0    0 -0.33991692136E+02 -0.67585283903E+02  0.13216235138E+03  0.15228293685E+03  0.00000000000E+00 0. -1.
        -12    1    4    4    0    0 -0.99218874632E-01  0.13609796038E+02 -0.13331303757E+01  0.13675292654E+02  0.00000000000E+00 0.  1.
        -11    1    3    3    0    0  0.26431342905E+01  0.57267021565E+02  0.20396902783E+03  0.21187227811E+03  0.00000000000E+00 0.  1.
         11    1    3    3    0    0 -0.44122226233E+02 -0.65773518899E+01  0.24024852616E+03  0.24435504236E+03  0.00000000000E+00 0. -1.
          2    1    1    2  501    0  0.75570002953E+02  0.32858181902E+01  0.25139271035E+03  0.26252603064E+03  0.00000000000E+00 0. -1.
<scales pt_clust_5="13000.00000" pt_clust_6="13000.00000" pt_clust_7="13000.00000" pt_clust_8="13000.00000" pt_clust_9="75.64144"></scales>
<clustering>
<clus scale="   75.641">  2  9  1 -1</clus>
<clus scale="   79.689">  5  6 -1 -1</clus>
<clus scale="   80.772">  7  8 -1 -1</clus>
<clus scale="   97.464">  2  5  1 -1</clus>
<clus scale="   75.641">  2  5  1 -1</clus>
</clustering>
</event>
<event>
 9    1  0.8429841E-005  0.1649071E+03  0.7546771E-02  0.1185433E+00
         21   -1    0    0  501  502  0.00000000000E+00  0.00000000000E+00  0.43552594366E+03  0.43552594366E+03  0.00000000000E+00 0. -1.
          1   -1    0    0  502    0 -0.00000000000E+00 -0.00000000000E+00 -0.16399003904E+03  0.16399003904E+03  0.00000000000E+00 0. -1.
         23    2    1    2    0    0 -0.11214704028E+03  0.40322380937E+02 -0.41290032354E+02  0.15626001544E+03  0.92246802681E+02 0.  0.
        -24    2    1    2    0    0  0.19231406766E+03 -0.57691379556E+02  0.15444205937E+03  0.26489148908E+03  0.77473578657E+02 0.  0.
         11    1    4    4    0    0  0.16118215492E+03 -0.49624818797E+02  0.86088567505E+02  0.18935033974E+03  0.00000000000E+00 0. -1.
        -12    1    4    4    0    0  0.31131912741E+02 -0.80665607597E+01  0.68353491866E+02  0.75541149341E+02  0.00000000000E+00 0.  1.
        -11    1    3    3    0    0 -0.21444910107E+02 -0.64196205722E+01 -0.49061249391E+02  0.53926819762E+02  0.00000000000E+00 0.  1.
         11    1    3    3    0    0 -0.90702130173E+02  0.46742001509E+02  0.77712170379E+01  0.10233319568E+03  0.00000000000E+00 0. -1.
          2    1    1    2  501    0 -0.80167027378E+02  0.17368998619E+02  0.15838387761E+03  0.17836447818E+03  0.00000000000E+00 0. -1.
<scales pt_clust_5="13000.00000" pt_clust_6="13000.00000" pt_clust_7="13000.00000" pt_clust_8="13000.00000" pt_clust_9="82.02703"></scales>
<clustering>
<clus scale="   77.474">  5  6 -1 -1</clus>
<clus scale="   82.027">  1  9  2 -1</clus>
<clus scale="   92.247">  7  8 -1 -1</clus>
<clus scale="  157.121">  1  5  2 -1</clus>
<clus scale="   82.027">  1  5  2 -1</clus>
</clustering>
</event>
<event>
 9    1  0.8429841E-005  0.9493755E+02  0.7546771E-02  0.1295664E+00
          3   -1    0    0  502    0 -0.00000000000E+00  0.00000000000E+00  0.13368457906E+03  0.13368457906E+03  0.00000000000E+00 0. -1.
         21   -1    0    0  501  502  0.00000000000E+00 -0.00000000000E+00 -0.11195799828E+03  0.11195799828E+03  0.00000000000E+00 0.  1.
         23    2    1    2    0    0 -0.13252260400E+02  0.15317959258E+01 -0.29686280587E+01  0.88809202184E+02  0.87751312444E+02 0.  0.
        -24    2    1    2    0    0  0.53520506776E+02  0.31895200810E+02  0.63051081633E+01  0.10136183668E+03  0.79703946369E+02 0.  0.
         11    1    4    4    0    0  0.53718578466E+02  0.54946952157E+01 -0.25758169281E+02  0.59827758044E+02  0.00000000000E+00 0. -1.
        -12    1    4    4    0    0 -0.19807168931E+00  0.26400505595E+02  0.32063277444E+02  0.41534078641E+02  0.00000000000E+00 0.  1.
        -11    1    3    3    0    0  0.14755141007E+02 -0.16736998232E+02 -0.35646981659E+02  0.42054115106E+02  0.00000000000E+00 0.  1.
         11    1    3    3    0    0 -0.28007401408E+02  0.18268794158E+02  0.32678353601E+02  0.46755087078E+02  0.00000000000E+00 0. -1.
          4    1    1    2  501    0 -0.40268246376E+02 -0.33426996736E+02  0.18390100683E+02  0.55471538469E+02  0.00000000000E+00 0. -1.
<scales pt_clust_5="13000.00000" pt_clust_6="13000.00000" pt_clust_7="13000.00000" pt_clust_8="13000.00000" pt_clust_9="52.33449"></scales>
<clustering>
<clus scale="   52.334">  2  9  1 -1</clus>
<clus scale="   79.704">  5  6 -1 -1</clus>
<clus scale="   87.553">  2  5  1 -1</clus>
<clus scale="   87.751">  7  8 -1 -1</clus>
<clus scale="   52.334">  2  5  1 -1</clus>
</clustering>
</event>
<event>
 9    1  0.8429841E-005  0.1437188E+03  0.7546771E-02  0.1211617E+00
         -4   -1    0    0    0  501 -0.00000000000E+00  0.00000000000E+00  0.21212827315E+03  0.21212827315E+03  0.00000000000E+00 0.  1.
         21   -1    0    0  501  502  0.00000000000E+00 -0.00000000000E+00 -0.14408935196E+03  0.14408935196E+03  0.00000000000E+00 0. -1.
         23    2    1    2    0    0 -0.70665764645E+02  0.80118111949E+02  0.56171499323E+02  0.15470582547E+03  0.96778576875E+02 0.  0.
        -24    2    1    2    0    0  0.24383148060E+02 -0.11036629236E+03  0.30944413853E+02  0.14302278667E+03  0.81992099367E+02 0.  0.
         11    1    4    4    0    0  0.42251441186E+02 -0.24976323929E+02 -0.35535251225E+01  0.49210045521E+02  0.00000000000E+00 0. -1.
        -12    1    4    4    0    0 -0.17868293126E+02 -0.85389968429E+02  0.34497938975E+02  0.93812741145E+02  0.00000000000E+00 0.  1.
        -11    1    3    3    0    0 -0.84197386257E+02  0.55290551039E+02  0.10882455954E+02  0.10131472121E+03  0.00000000000E+00 0. -1.
         11    1    3    3    0    0  0.13531621612E+02  0.24827560910E+02  0.45289043369E+02  0.53391104254E+02  0.00000000000E+00 0.  1.
         -3    1    1    2    0  502  0.46282616585E+02  0.30248180410E+02 -0.19076991981E+02  0.58489012977E+02  0.00000000000E+00 0.  1.
<scales pt_clust_5="13000.00000" pt_clust_6="13000.00000" pt_clust_7="13000.00000" pt_clust_8="13000.00000" pt_clust_9="55.29044"></scales>
<clustering>
<clus scale="   55.290">  2  9  1 -1</clus>
<clus scale="   81.992">  5  6 -1 -1</clus>
<clus scale="   96.779">  7  8 -1 -1</clus>
<clus scale="  134.208">  2  5  1 -1</clus>
<clus scale="   55.290">  2  5  1 -1</clus>
</clustering>
</event>
<event>
 9    1  0.8429841E-005  0.1350628E+03  0.7546771E-02  0.1233652E+00
         21   -1    0    0  501  502  0.00000000000E+00  0.00000000000E+00  0.28084250158E+03  0.28084250158E+03  0.00000000000E+00 0. -1.
          3   -1    0    0  502    0 -0.00000000000E+00 -0.00000000000E+00 -0.24127349880E+03  0.24127349880E+03  0.00000000000E+00 0. -1.
         23    2    1    2    0    0 -0.48102367628E+02  0.48610275785E+01 -0.15751069757E+03  0.18765891743E+03  0.89826399706E+02 0.  0.
        -24    2    1    2    0    0  0.62870502489E+02  0.10333334526E+03  0.52130807577E+02  0.15297898059E+03  0.77810456086E+02 0.  0.
         11    1    4    4    0    0  0.29544803546E+02  0.92437751608E+02  0.63670627382E+02  0.11606714492E+03  0.00000000000E+00 0. -1.
        -12    1    4    4    0    0  0.33325698943E+02  0.10895593657E+02 -0.11539819805E+02  0.36911835667E+02  0.00000000000E+00 0.  1.
        -11    1    3    3    0    0 -0.65157693300E+02 -0.81344461412E+01 -0.63899400731E+02  0.91623291929E+02  0.00000000000E+00 0.  1.
         11    1    3    3    0    0  0.17055325672E+02  0.12995473720E+02 -0.93611296834E+02  0.96035625504E+02  0.00000000000E+00 0. -1.
          4    1    1    2  501    0 -0.14768134861E+02 -0.10819437284E+03  0.14494889277E+03  0.18147810236E+03  0.00000000000E+00 0. -1.
<scales pt_clust_5="13000.00000" pt_clust_6="13000.00000" pt_clust_7="13000.00000" pt_clust_8="13000.00000" pt_clust_9="110.39692"></scales>
<clustering>
<clus scale="   77.810">  5  6 -1 -1</clus>
<clus scale="   89.826">  7  8 -1 -1</clus>
<clus scale="  102.011">  2  7  1 -1</clus>
<clus scale="  110.397">  1  9  2 -1</clus>
<clus scale="  110.397">  1  5  2 -1</clus>
</clustering>
</event>
<event>
 9    1  0.8429841E-005  0.3549029E+03  0.7546771E-02  0.1114877E+00
         21   -1    0    0  501  502  0.00000000000E+00  0.00000000000E+00  0.31740432635E+03  0.31740432635E+03  0.00000000000E+00 0. -1.
          3   -1    0    0  502    0 -0.00000000000E+00 -0.00000000000E+00 -0.67284025791E+03  0.67284025791E+03  0.00000000000E+00 0. -1.
        -24    2    1    2    0    0 -0.25974635924E+02 -0.93353994800E+00  0.25470743595E+02  0.87755443842E+02  0.79854279387E+02 0.  0.
         23    2    1    2    0    0  0.19757426407E+03 -0.29182829753E+03 -0.42528041834E+03  0.56025390707E+03  0.93923698291E+02 0.  0.
         11    1    3    3    0    0 -0.19789658644E+02 -0.38568872463E+02  0.24082836012E+02  0.49590034308E+02  0.00000000000E+00 0. -1.
        -12    1    3    3    0    0 -0.61849772800E+01  0.37635332515E+02  0.13879075822E+01  0.38165409534E+02  0.00000000000E+00 0.  1.
        -13    1    4    4    0    0  0.14270413531E+03 -0.20985354589E+03 -0.36531944631E+03  0.44481600557E+03  0.00000000000E+00 0. -1.
         13    1    4    4    0    0  0.54870128760E+02 -0.81974751632E+02 -0.59960972031E+02  0.11543790150E+03  0.00000000000E+00 0.  1.
          4    1    1    2  501    0 -0.17159962814E+03  0.29276183747E+03  0.44373743192E+02  0.34223523335E+03  0.00000000000E+00 0. -1.
<scales pt_clust_5="13000.00000" pt_clust_6="13000.00000" pt_clust_7="13000.00000" pt_clust_8="13000.00000" pt_clust_9="342.24903"></scales>
<clustering>
<clus scale="   79.854">  5  6 -1 -1</clus>
<clus scale="   83.978">  2  5  1 -1</clus>
<clus scale="   93.924">  7  8 -1 -1</clus>
<clus scale="  342.249">  1  9  2 -1</clus>
<clus scale="  342.249">  1  5  2 -1</clus>
</clustering>
</event>
<event>
 9    1  0.8429841E-005  0.1772075E+03  0.7546771E-02  0.1194624E+00
         21   -1    0    0  501  502  0.00000000000E+00  0.00000000000E+00  0.20803030018E+03  0.20803030018E+03  0.00000000000E+00 0.  1.
         -4   -1    0    0    0  501 -0.00000000000E+00 -0.00000000000E+00 -0.23841619836E+03  0.23841619836E+03  0.00000000000E+00 0.  1.
        -24    2    1    2    0    0  0.29250062318E+02 -0.57440989556E+02  0.38696916796E+01  0.10342419716E+03  0.80787106759E+02 0.  0.
         23    2    1    2    0    0  0.13729702339E+03  0.89361048790E+01  0.11398654701E+01  0.16598136302E+03  0.92834190752E+02 0.  0.
         13    1    3    3    0    0 -0.70213451532E+01 -0.61635791167E+02  0.17490859200E+02  0.64453085233E+02  0.00000000000E+00 0. -1.
        -14    1    3    3    0    0  0.36271407471E+02  0.41948016103E+01 -0.13621167520E+02  0.38971111931E+02  0.00000000000E+00 0.  1.
        -13    1    4    4    0    0  0.11513805845E+03 -0.26680596053E+02 -0.18562080130E+02  0.11963769276E+03  0.00000000000E+00 0.  1.
         13    1    4    4    0    0  0.22158964942E+02  0.35616700932E+02  0.19701945600E+02  0.46343670258E+02  0.00000000000E+00 0. -1.
         -3    1    1    2    0  502 -0.16654708571E+03  0.48504884677E+02 -0.35395455321E+02  0.17704093836E+03  0.00000000000E+00 0.  1.
<scales pt_clust_5="13000.00000" pt_clust_6="13000.00000" pt_clust_7="13000.00000" pt_clust_8="13000.00000" pt_clust_9="150.94479"></scales>
<clustering>
<clus scale="   80.787">  5  6 -1 -1</clus>
<clus scale="   92.834">  7  8 -1 -1</clus>
<clus scale="  103.352">  2  5  1 -1</clus>
<clus scale="  150.945">  1  9  2 -1</clus>
<clus scale="  150.945">  1  5  2 -1</clus>
</clustering>
</event>
<event>
 9    1  0.8429841E-005  0.4041553E+03  0.7546771E-02  0.1066564E+00
         21   -1    0    0  501  502  0.00000000000E+00  0.00000000000E+00  0.19541107196E+03  0.19541107196E+03  0.00000000000E+00 0. -1.
          1   -1    0    0  502    0 -0.00000000000E+00 -0.00000000000E+00 -0.21601571350E+04  0.21601571350E+04  0.00000000000E+00 0. -1.
         23    2    1    2    0    0  0.12022244723E+03 -0.13640612744E+03 -0.39409219050E+02  0.20750597530E+03  0.91899808575E+02 0.  0.
        -24    2    1    2    0    0  0.27508809177E+03 -0.45626093022E+02 -0.15389728879E+04  0.15660972344E+04  0.80422627732E+02 0.  0.
         11    1    4    4    0    0  0.12655818357E+03 -0.58677895201E+02 -0.66183395916E+03  0.67637582653E+03  0.00000000000E+00 0. -1.
        -12    1    4    4    0    0  0.14852990820E+03  0.13051802179E+02 -0.87713892879E+03  0.88972140784E+03  0.00000000000E+00 0.  1.
        -11    1    3    3    0    0  0.10479491672E+01 -0.48949325332E+02 -0.33957200068E+02  0.59583773666E+02  0.00000000000E+00 0.  1.
         11    1    3    3    0    0  0.11917449807E+03 -0.87456802110E+02 -0.54520189819E+01  0.14792220163E+03  0.00000000000E+00 0. -1.
          2    1    1    2  501    0 -0.39531053900E+03  0.18203222046E+03 -0.38636395602E+03  0.58196499727E+03  0.00000000000E+00 0. -1.
<scales pt_clust_5="13000.00000" pt_clust_6="13000.00000" pt_clust_7="13000.00000" pt_clust_8="13000.00000" pt_clust_9="396.07282"></scales>
<clustering>
<clus scale="   80.423">  5  6 -1 -1</clus>
<clus scale="   91.900">  7  8 -1 -1</clus>
<clus scale="  203.729">  2  7  1 -1</clus>
<clus scale="  396.073">  1  9  2 -1</clus>
<clus scale="  396.073">  1  5  2 -1</clus>
</clustering>
</event>
<event>
 9    1  0.8429841E-005  0.2815194E+03  0.7546771E-02  0.1110031E+00
          1   -1    0    0  502    0 -0.00000000000E+00  0.00000000000E+00  0.55353329801E+03  0.55353329801E+03  0.00000000000E+00 0. -1.
         21   -1    0    0  501  502  0.00000000000E+00 -0.00000000000E+00 -0.39264674163E+03  0.39264674163E+03  0.00000000000E+00 0. -1.
        -24    2    1    2    0    0  0.17079493753E+03  0.24676106643E+02 -0.18881114285E+03  0.26804238301E+03  0.80107743081E+02 0.  0.
         23    2    1    2    0    0  0.12738409162E+03 -0.15149776655E+03  0.26528162285E+03  0.34329360218E+03  0.91092688005E+02 0.  0.
         11    1    3    3    0    0  0.40483400867E+02  0.29433689970E+02 -0.95087516845E+02  0.10745642703E+03  0.00000000000E+00 0. -1.
        -12    1    3    3    0    0  0.13031153666E+03 -0.47575833263E+01 -0.93723626009E+02  0.16058595598E+03  0.00000000000E+00 0.  1.
        -13    1    4    4    0    0  0.13688627414E+03 -0.11567075959E+03  0.23432267287E+03  0.29499947744E+03  0.00000000000E+00 0. -1.
         13    1    4    4    0    0 -0.95021825120E+01 -0.35827006964E+02  0.30958949981E+02  0.48294124740E+02  0.00000000000E+00 0.  1.
          2    1    1    2  501    0 -0.29817902915E+03  0.12682165991E+03  0.84416076382E+02  0.33484405445E+03  0.00000000000E+00 0. -1.
<scales pt_clust_5="13000.00000" pt_clust_6="13000.00000" pt_clust_7="13000.00000" pt_clust_8="13000.00000" pt_clust_9="266.37431"></scales>
<clustering>
<clus scale="   80.108">  5  6 -1 -1</clus>
<clus scale="   91.093">  7  8 -1 -1</clus>
<clus scale="  190.255">  1  5  2 -1</clus>
<clus scale="  266.374">  2  9  1 -1</clus>
<clus scale="  266.374">  2  5  1 -1</clus>
</clustering>
</event>
<event>
 9    1  0.8429841E-005  0.1555696E+03  0.7546771E-02  0.1218703E+00
         21   -1    0    0  501  502  0.00000000000E+00  0.00000000000E+00  0.37709048482E+02  0.37709048482E+02  0.00000000000E+00 0. -1.
          1   -1    0    0  502    0 -0.00000000000E+00 -0.00000000000E+00 -0.95447060604E+03  0.95447060604E+03  0.00000000000E+00 0. -1.
        -24    2    1    2    0    0  0.22391520949E+02 -0.36276195976E+02 -0.21172232249E+03  0.23048043487E+03  0.80483205790E+02 0.  0.
         23    2    1    2    0    0 -0.13975937955E+03  0.39560323209E+02 -0.43296721923E+03  0.46537307918E+03  0.89519755105E+02 0.  0.
         11    1    3    3    0    0  0.89218245107E+01 -0.61107404295E+02 -0.12795728128E+03  0.14208018737E+03  0.00000000000E+00 0. -1.
        -12    1    3    3    0    0  0.13469696438E+02  0.24831208319E+02 -0.83765041210E+02  0.88400247497E+02  0.00000000000E+00 0.  1.
        -13    1    4    4    0    0 -0.79620011770E+02  0.66223930979E+02 -0.29173729238E+03  0.30957325962E+03  0.00000000000E+00 0. -1.
         13    1    4    4    0    0 -0.60139367775E+02 -0.26663607769E+02 -0.14122992685E+03  0.15579981955E+03  0.00000000000E+00 0.  1.
          2    1    1    2  501    0  0.11736785860E+03 -0.32841272331E+01 -0.27207201584E+03  0.29632614047E+03  0.00000000000E+00 0. -1.
<scales pt_clust_5="13000.00000" pt_clust_6="13000.00000" pt_clust_7="13000.00000" pt_clust_8="13000.00000" pt_clust_9="127.23256"></scales>
<clustering>
<clus scale="   80.483">  5  6 -1 -1</clus>
<clus scale="   89.520">  7  8 -1 -1</clus>
<clus scale="   91.076">  2  5  1 -1</clus>
<clus scale="  127.233">  1  9  2 -1</clus>
<clus scale="  127.233">  1  5  2 -1</clus>
</clustering>
</event>
<event>
 9    1  0.8429841E-005  0.1712771E+03  0.7546771E-02  0.1178136E+00
         21   -1    0    0  501  502  0.00000000000E+00  0.00000000000E+00  0.47893580906E+02  0.47893580906E+02  0.00000000000E+00 0. -1.
         -2   -1    0    0    0  501 -0.00000000000E+00 -0.00000000000E+00 -0.76345796046E+03  0.76345796046E+03  0.00000000000E+00 0.  1.
         23    2    1    2    0    0 -0.65521866964E+02 -0.13881245101E+03 -0.40845265292E+03  0.44618421643E+03  0.93192133321E+02 0.  0.
        -24    2    1    2    0    0  0.72292641744E+02  0.10871901269E+03 -0.19221934827E+03  0.24620633542E+03  0.81383241380E+02 0.  0.
         13    1    4    4    0    0  0.80441547597E+02  0.55506416012E+02 -0.14337342596E+03  0.17351583233E+03  0.00000000000E+00 0. -1.
        -14    1    4    4    0    0 -0.81489058525E+01  0.53212596683E+02 -0.48845922316E+02  0.72690503088E+02  0.00000000000E+00 0.  1.
        -13    1    3    3    0    0 -0.19536464047E+02 -0.64596146068E+02 -0.29718699229E+03  0.30475308678E+03  0.00000000000E+00 0.  1.
         13    1    3    3    0    0 -0.45985402917E+02 -0.74216304939E+02 -0.11126566062E+03  0.14143112965E+03  0.00000000000E+00 0. -1.
         -1    1    1    2    0  502 -0.67707747804E+01  0.30093438313E+02 -0.11489237837E+03  0.11896098952E+03  0.00000000000E+00 0.  1.
<scales pt_clust_5="13000.00000" pt_clust_6="13000.00000" pt_clust_7="13000.00000" pt_clust_8="13000.00000" pt_clust_9="30.84574"></scales>
<clustering>
<clus scale="   30.846">  1  9  2 -1</clus>
<clus scale="   81.383">  5  6 -1 -1</clus>
<clus scale="   93.192">  7  8 -1 -1</clus>
<clus scale="  165.149">  1  5  2 -1</clus>
<clus scale="   30.846">  1  5  2 -1</clus>
</clustering>
</event>
<event>
 9    1  0.1805118E-004  0.9662071E+02  0.7546771E-02  0.1295159E+00
          3   -1    0    0  502    0 -0.00000000000E+00  0.00000000000E+00  0.35485709514E+03  0.35485709514E+03  0.00000000000E+00 0. -1.
         21   -1    0    0  501  502  0.00000000000E+00 -0.00000000000E+00 -0.29241412541E+03  0.29241412541E+03  0.00000000000E+00 0.  1.
        -24    2    1    2    0    0 -0.29908319545E+02 -0.77979121628E+01  0.33260515179E+03  0.34308622845E+03  0.78272972000E+02 0.  0.
         23    2    1    2    0    0  0.63024502577E+01  0.79837553628E+01 -0.11635430868E+03  0.14857608003E+03  0.91831722080E+02 0.  0.
         11    1    3    3    0    0 -0.37660003578E+02 -0.35241348816E+02  0.26029833312E+03  0.26535909776E+03  0.00000000000E+00 0. -1.
        -12    1    3    3    0    0  0.77516840336E+01  0.27443436653E+02  0.72306818667E+02  0.77727130697E+02  0.00000000000E+00 0.  1.
        -13    1    4    4    0    0  0.22940335217E+02 -0.33431002659E+02 -0.84559061199E+02  0.93777000109E+02  0.00000000000E+00 0.  1.
         13    1    4    4    0    0 -0.16637884959E+02  0.41414758022E+02 -0.31795247481E+02  0.54799079922E+02  0.00000000000E+00 0. -1.
          4    1    1    2  501    0  0.23605869287E+02 -0.18584319991E+00 -0.15380787337E+03  0.15560891207E+03  0.00000000000E+00 0. -1.
<scales pt_clust_5="13000.00000" pt_clust_6="13000.00000" pt_clust_7="13000.00000" pt_clust_8="13000.00000" pt_clust_9="23.60660"></scales>
<clustering>
<clus scale="   23.607">  2  9  1 -1</clus>
<clus scale="   78.273">  5  6 -1 -1</clus>
<clus scale="   83.840">  1  5  2 -1</clus>
<clus scale="   91.832">  7  8 -1 -1</clus>
<clus scale="   23.607">  2  5  1 -1</clus>
</clustering>
</event>
<event>
 9    1  0.8429841E-005  0.1886094E+03  0.7546771E-02  0.1187772E+00
          1   -1    0    0  502    0 -0.00000000000E+00  0.00000000000E+00  0.10097901889E+03  0.10097901889E+03  0.00000000000E+00 0. -1.
         21   -1    0    0  501  502  0.00000000000E+00 -0.00000000000E+00 -0.53300577531E+03  0.53300577531E+03  0.00000000000E+00 0. -1.
        -24    2    1    2    0    0  0.57071505105E+02 -0.73037736117E+01 -0.56179051970E+02  0.11443770974E+03  0.81421138084E+02 0.  0.
         23    2    1    2    0    0 -0.46231374606E+02 -0.16079960035E+03 -0.19833055445E+03  0.27482562787E+03  0.90555317000E+02 0.  0.
         11    1    3    3    0    0  0.76397931013E+02 -0.76670743450E+01 -0.56125438048E+02  0.95107795097E+02  0.00000000000E+00 0. -1.
        -12    1    3    3    0    0 -0.19326425907E+02  0.36330073330E+00 -0.53613921675E-01  0.19329914646E+02  0.00000000000E+00 0.  1.
        -13    1    4    4    0    0 -0.27647303363E+02 -0.92968687393E+02 -0.17613661124E+03  0.20107624434E+03  0.00000000000E+00 0. -1.
         13    1    4    4    0    0 -0.18584071243E+02 -0.67830912956E+02 -0.22193943211E+02  0.73749383534E+02  0.00000000000E+00 0.  1.
          2    1    1    2  501    0 -0.10840130499E+02  0.16810337396E+03 -0.17751715001E+03  0.24472145658E+03  0.00000000000E+00 0. -1.
<scales pt_clust_5="13000.00000" pt_clust_6="13000.00000" pt_clust_7="13000.00000" pt_clust_8="13000.00000" pt_clust_9="165.44871"></scales>
<clustering>
<clus scale="   81.421">  5  6 -1 -1</clus>
<clus scale="   90.555">  7  8 -1 -1</clus>
<clus scale="   99.699">  1  5  2 -1</clus>
<clus scale="  165.449">  2  9  1 -1</clus>
<clus scale="  165.449">  2  5  1 -1</clus>
</clustering>
</event>
<event>
 9    1  0.8429841E-005  0.2214842E+03  0.7546771E-02  0.1133683E+00
          1   -1    0    0  502    0 -0.00000000000E+00  0.00000000000E+00  0.31578013860E+03  0.31578013860E+03  0.00000000000E+00 0. -1.
         21   -1    0    0  501  502  0.00000000000E+00 -0.00000000000E+00 -0.28295276376E+03  0.28295276376E+03  0.00000000000E+00 0. -1.
         23    2    1    2    0    0  0.20148501162E+03 -0.60033696045E+02  0.11562565644E+03  0.25708295213E+03  0.92315206106E+02 0.  0.
        -24    2    1    2    0    0 -0.17049537398E+03  0.89373657032E+02  0.39437504785E+02  0.21217880122E+03  0.80051257215E+02 0.  0.
         11    1    4    4    0    0 -0.11033830484E+02  0.19167667417E+02 -0.18219155739E+02  0.28654537602E+02  0.00000000000E+00 0. -1.
        -12    1    4    4    0    0 -0.15946154350E+03  0.70205989616E+02  0.57656660524E+02  0.18352426362E+03  0.00000000000E+00 0.  1.
        -11    1    3    3    0    0  0.21286536508E+01 -0.27142561011E+02  0.93516543991E+01  0.28787205919E+02  0.00000000000E+00 0.  1.
         11    1    3    3    0    0  0.19935635797E+03 -0.32891135034E+02  0.10627400204E+03  0.22829574621E+03  0.00000000000E+00 0. -1.
          2    1    1    2  501    0 -0.30989637636E+02 -0.29339960987E+02 -0.12223578639E+03  0.12947114901E+03  0.00000000000E+00 0. -1.
<scales pt_clust_5="13000.00000" pt_clust_6="13000.00000" pt_clust_7="13000.00000" pt_clust_8="13000.00000" pt_clust_9="42.67541"></scales>
<clustering>
<clus scale="   42.675">  2  9  1 -1</clus>
<clus scale="   80.051">  5  6 -1 -1</clus>
<clus scale="   92.315">  7  8 -1 -1</clus>
<clus scale="  216.660">  2  5  1 -1</clus>
<clus scale="   42.675">  2  5  1 -1</clus>
</clustering>
</event>
<event>
 9    1  0.8429841E-005  0.9179766E+02  0.7546771E-02  0.1301206E+00
         21   -1    0    0  501  502  0.00000000000E+00  0.00000000000E+00  0.18106409144E+03  0.18106409144E+03  0.00000000000E+00 0.  1.
          1   -1    0    0  502    0 -0.00000000000E+00 -0.00000000000E+00 -0.89725199170E+02  0.89725199170E+02  0.00000000000E+00 0. -1.
        -24    2    1    2    0    0 -0.24219729099E+02  0.21156198374E+02  0.12644237935E+02  0.87240540271E+02  0.80105275148E+02 0.  0.
         23    2    1    2    0    0  0.55136115767E+02  0.19684985502E+02  0.82701838081E+02  0.13216896067E+03  0.84861948052E+02 0.  0.
         13    1    3    3    0    0 -0.74024793539E+01  0.51142642349E+02  0.42485516226E+01  0.51849944628E+02  0.00000000000E+00 0. -1.
        -14    1    3    3    0    0 -0.16817249745E+02 -0.29986443975E+02  0.83956863125E+01  0.35390595642E+02  0.00000000000E+00 0.  1.
        -11    1    4    4    0    0  0.31971215057E+02  0.10201861222E+02 -0.10894386994E+02  0.35283483849E+02  0.00000000000E+00 0. -1.
         11    1    4    4    0    0  0.23164900710E+02  0.94831242795E+01  0.93596225074E+02  0.96885476823E+02  0.00000000000E+00 0.  1.
          2    1    1    2  501    0 -0.30916386667E+02 -0.40841183876E+02 -0.40071837430E+01  0.51379789670E+02  0.00000000000E+00 0. -1.
<scales pt_clust_5="13000.00000" pt_clust_6="13000.00000" pt_clust_7="13000.00000" pt_clust_8="13000.00000" pt_clust_9="51.22331"></scales>
<clustering>
<clus scale="   51.223">  1  9  2 -1</clus>
<clus scale="   80.105">  5  6 -1 -1</clus>
<clus scale="   84.862">  7  8 -1 -1</clus>
<clus scale="   87.419">  2  5  1 -1</clus>
<clus scale="   51.223">  1  5  2 -1</clus>
</clustering>
</event>
<event>
 9    1  0.8429841E-005  0.9215782E+02  0.7546771E-02  0.1306384E+00
         21   -1    0    0  501  502  0.00000000000E+00  0.00000000000E+00  0.46300812406E+03  0.46300812406E+03  0.00000000000E+00 0.  1.
         -4   -1    0    0    0  501 -0.00000000000E+00 -0.00000000000E+00 -0.69838638417E+02  0.69838638417E+02  0.00000000000E+00 0.  1.
        -24    2    1    2    0    0 -0.12044028335E+02  0.42842422855E+01 -0.24266712987E+02  0.82661374684E+02  0.77978305669E+02 0.  0.
         23    2    1    2    0    0 -0.33494185798E+02 -0.29242987138E+02  0.17712370595E+03  0.20432615565E+03  0.91648010858E+02 0.  0.
         11    1    3    3    0    0  0.20979974315E+02 -0.10604035936E+02  0.16047580690E+02  0.28462778262E+02  0.00000000000E+00 0. -1.
        -12    1    3    3    0    0 -0.33024002650E+02  0.14888278222E+02 -0.40314293677E+02  0.54198596422E+02  0.00000000000E+00 0.  1.
        -11    1    4    4    0    0  0.20828262795E+02 -0.36934506797E+02  0.10833518532E+03  0.11633781287E+03  0.00000000000E+00 0. -1.
         11    1    4    4    0    0 -0.54322448593E+02  0.76915196595E+01  0.68788520622E+02  0.87988342780E+02  0.00000000000E+00 0.  1.
         -3    1    1    2    0  502  0.45538214133E+02  0.24958744852E+02  0.24031249268E+03  0.24585923214E+03  0.00000000000E+00 0.  1.
<scales pt_clust_5="13000.00000" pt_clust_6="13000.00000" pt_clust_7="13000.00000" pt_clust_8="13000.00000" pt_clust_9="51.92945"></scales>
<clustering>
<clus scale="   51.929">  1  9  2 -1</clus>
<clus scale="   77.978">  5  6 -1 -1</clus>
<clus scale="   78.577">  2  5  1 -1</clus>
<clus scale="   91.648">  7  8 -1 -1</clus>
<clus scale="   51.929">  1  5  2 -1</clus>
</clustering>
</event>
<event>
 9    1  0.8429841E-005  0.1356278E+03  0.7546771E-02  0.1220046E+00
         21   -1    0    0  501  502  0.00000000000E+00  0.00000000000E+00  0.25328565787E+03  0.25328565787E+03  0.00000000000E+00 0.  1.
          1   -1    0    0  502    0 -0.00000000000E+00 -0.00000000000E+00 -0.13947283976E+03  0.13947283976E+03  0.00000000000E+00 0. -1.
         23    2    1    2    0    0 -0.35883020054E+02  0.72656599371E+02 -0.16033392462E+00  0.11843166226E+03  0.86368167511E+02 0.  0.
        -24    2    1    2    0    0  0.77157346860E+02 -0.13099935461E+03  0.55448475879E+02  0.18195484361E+03  0.83180193289E+02 0.  0.
         11    1    4    4    0    0  0.16275254788E+02 -0.50096179532E+02 -0.19302637614E+02  0.56099045811E+02  0.00000000000E+00 0. -1.
        -12    1    4    4    0    0  0.60882092072E+02 -0.80903175075E+02  0.74751113493E+02  0.12585579780E+03  0.00000000000E+00 0.  1.
        -11    1    3    3    0    0  0.21388259716E+02 -0.22185180402E+01  0.98171707979E+01  0.23638026958E+02  0.00000000000E+00 0.  1.
         11    1    3    3    0    0 -0.57271279771E+02  0.74875117411E+02 -0.99775047225E+01  0.94793635306E+02  0.00000000000E+00 0. -1.
          2    1    1    2  501    0 -0.41274326806E+02  0.58342755236E+02  0.58524676148E+02  0.92371991751E+02  0.00000000000E+00 0. -1.
<scales pt_clust_5="13000.00000" pt_clust_6="13000.00000" pt_clust_7="13000.00000" pt_clust_8="13000.00000" pt_clust_9="71.46641"></scales>
<clustering>
<clus scale="   71.466">  1  9  2 -1</clus>
<clus scale="   83.180">  5  6 -1 -1</clus>
<clus scale="   86.368">  7  8 -1 -1</clus>
<clus scale="  133.620">  1  5  2 -1</clus>
<clus scale="   71.466">  1  5  2 -1</clus>
</clustering>
</event>
<event>
 9    1  0.8429841E-005  0.1719196E+03  0.7546771E-02  0.1176502E+00
         -2   -1    0    0    0  501 -0.00000000000E+00  0.00000000000E+00  0.20422731892E+03  0.20422731892E+03  0.00000000000E+00 0.  1.
         21   -1    0    0  501  502  0.00000000000E+00 -0.00000000000E+00 -0.18481650139E+03  0.18481650139E+03  0.00000000000E+00 0.  1.
        -24    2    1    2    0    0  0.90432039256E+02 -0.12270233343E+03  0.77435156636E+02  0.19007391460E+03  0.83054639699E+02 0.  0.
         23    2    1    2    0    0 -0.66192410661E+02  0.12294999704E+03 -0.43403918446E+02  0.17066129162E+03  0.87995677834E+02 0.  0.
         13    1    3    3    0    0  0.65179303258E+02 -0.56661186192E+02  0.82172896794E+02  0.11921080723E+03  0.00000000000E+00 0. -1.
        -14    1    3    3    0    0  0.25252735998E+02 -0.66041147239E+02 -0.47377401582E+01  0.70863107368E+02  0.00000000000E+00 0.  1.
        -13    1    4    4    0    0 -0.11340339464E+02  0.59210135578E+02  0.21951482472E+02  0.64158483749E+02  0.00000000000E+00 0.  1.
         13    1    4    4    0    0 -0.54852071197E+02  0.63739861466E+02 -0.65355400918E+02  0.10650280787E+03  0.00000000000E+00 0. -1.
         -1    1    1    2    0  502 -0.24239628595E+02 -0.24766361241E+00 -0.14620420658E+02  0.28308614094E+02  0.00000000000E+00 0.  1.
<scales pt_clust_5="13000.00000" pt_clust_6="13000.00000" pt_clust_7="13000.00000" pt_clust_8="13000.00000" pt_clust_9="24.24089"></scales>
<clustering>
<clus scale="   24.241">  2  9  1 -1</clus>
<clus scale="   83.055">  5  6 -1 -1</clus>
<clus scale="   87.996">  7  8 -1 -1</clus>
<clus scale="  169.444">  1  5  2 -1</clus>
<clus scale="   24.241">  2  5  1 -1</clus>
</clustering>
</event>
<event>
 9    1  0.8429841E-005  0.1585462E+03  0.7546771E-02  0.1208628E+00
          3   -1    0    0  502    0 -0.00000000000E+00  0.00000000000E+00  0.99602692112E+03  0.99602692112E+03  0.00000000000E+00 0. -1.
         21   -1    0    0  501  502  0.00000000000E+00 -0.00000000000E+00 -0.60245283242E+02  0.60245283242E+02  0.00000000000E+00 0. -1.
         23    2    1    2    0    0 -0.71093104853E+01 -0.53035902037E+02  0.38148228911E+03  0.39608358713E+03  0.92141857416E+02 0.  0.
        -24    2    1    2    0    0 -0.12979594802E+03  0.30867569259E+02  0.47581383691E+03  0.50083222309E+03  0.81451294226E+02 0.  0.
         11    1    4    4    0    0 -0.13798563430E+03  0.18795427720E+02  0.45138902088E+03  0.47238263257E+03  0.00000000000E+00 0. -1.
        -12    1    4    4    0    0  0.81896862816E+01  0.12072141540E+02  0.24424816030E+02  0.28449590522E+02  0.00000000000E+00 0.  1.
        -11    1    3    3    0    0 -0.43990308450E+02 -0.15350013009E+02  0.25209323414E+03  0.25636257301E+03  0.00000000000E+00 0.  1.
         11    1    3    3    0    0  0.36880997965E+02 -0.37685889028E+02  0.12938905497E+03  0.13972101412E+03  0.00000000000E+00 0. -1.
          4    1    1    2  501    0  0.13690525851E+03  0.22168332778E+02  0.78485511861E+02  0.15935639415E+03  0.00000000000E+00 0. -1.
<scales pt_clust_5="13000.00000" pt_clust_6="13000.00000" pt_clust_7="13000.00000" pt_clust_8="13000.00000" pt_clust_9="136.02421"></scales>
<clustering>
<clus scale="   81.451">  5  6 -1 -1</clus>
<clus scale="   92.142">  7  8 -1 -1</clus>
<clus scale="  106.553">  1  7  2 -1</clus>
<clus scale="  136.024">  2  9  1 -1</clus>
<clus scale="  136.024">  2  5  1 -1</clus>
</clustering>
</event>
<event>
 9    1  0.8429841E-005  0.1235492E+03  0.7546771E-02  0.1241062E+00
         21   -1    0    0  501  502  0.00000000000E+00  0.00000000000E+00  0.43461244824E+03  0.43461244824E+03  0.00000000000E+00 0. -1.
         -2   -1    0    0    0  501 -0.00000000000E+00 -0.00000000000E+00 -0.12354952409E+03  0.12354952409E+03  0.00000000000E+00 0.  1.
         23    2    1    2    0    0 -0.64755023957E+02  0.45137268626E+02 -0.67372758099E+02  0.13828772142E+03  0.91399229841E+02 0.  0.
        -24    2    1    2    0    0  0.97171253643E+02 -0.60134924388E+02  0.24358257036E+03  0.28037119213E+03  0.78848431333E+02 0.  0.
         11    1    4    4    0    0  0.70877171209E+02 -0.59561007959E+00  0.15509838508E+03  0.17052693982E+03  0.00000000000E+00 0. -1.
        -12    1    4    4    0    0  0.26294082434E+02 -0.59539314308E+02  0.88484185280E+02  0.10984425230E+03  0.00000000000E+00 0.  1.
        -13    1    3    3    0    0  0.10039590371E+02 -0.18197205608E+02 -0.22073256963E+02  0.30317657227E+02  0.00000000000E+00 0. -1.
         13    1    3    3    0    0 -0.74794614328E+02  0.63334474234E+02 -0.45299501136E+02  0.10797006419E+03  0.00000000000E+00 0.  1.
         -1    1    1    2    0  502 -0.32416229686E+02  0.14997655762E+02  0.13485311188E+03  0.13950305878E+03  0.00000000000E+00 0.  1.
<scales pt_clust_5="13000.00000" pt_clust_6="13000.00000" pt_clust_7="13000.00000" pt_clust_8="13000.00000" pt_clust_9="35.71753"></scales>
<clustering>
<clus scale="   35.718">  1  9  2 -1</clus>
<clus scale="   78.848">  5  6 -1 -1</clus>
<clus scale="   91.399">  7  8 -1 -1</clus>
<clus scale="  114.576">  1  5  2 -1</clus>
<clus scale="   35.718">  1  5  2 -1</clus>
</clustering>
</event>
<event>
 9    1  0.8429841E-005  0.1474240E+03  0.7546771E-02  0.1204981E+00
          1   -1    0    0  502    0 -0.00000000000E+00  0.00000000000E+00  0.10736893581E+03  0.10736893581E+03  0.00000000000E+00 0. -1.
         21   -1    0    0  501  502  0.00000000000E+00 -0.00000000000E+00 -0.33194825497E+03  0.33194825497E+03  0.00000000000E+00 0.  1.
         23    2    1    2    0    0  0.38408354509E+02 -0.10348645129E+03 -0.96853233704E+02  0.17103628084E+03  0.87682456557E+02 0.  0.
        -24    2    1    2    0    0 -0.28159879146E+02  0.12789264095E+03 -0.16305875448E+03  0.22413240100E+03  0.80608122197E+02 0.  0.
         13    1    4    4    0    0  0.13727488958E+01  0.50808885091E+02 -0.12152270077E+03  0.13172393119E+03  0.00000000000E+00 0. -1.
        -14    1    4    4    0    0 -0.29532628042E+02  0.77083755857E+02 -0.41536053703E+02  0.92408469813E+02  0.00000000000E+00 0.  1.
        -13    1    3    3    0    0 -0.12959318810E+01 -0.93168870243E+02 -0.89808483700E+02  0.12941283385E+03  0.00000000000E+00 0. -1.
         13    1    3    3    0    0  0.39704286390E+02 -0.10317581050E+02 -0.70447500039E+01  0.41623446987E+02  0.00000000000E+00 0.  1.
          2    1    1    2  501    0 -0.10248475362E+02 -0.24406189654E+02  0.35332669023E+02  0.44148508933E+02  0.00000000000E+00 0. -1.
<scales pt_clust_5="13000.00000" pt_clust_6="13000.00000" pt_clust_7="13000.00000" pt_clust_8="13000.00000" pt_clust_9="26.47063"></scales>
<clustering>
<clus scale="   26.471">  2  9  1 -1</clus>
<clus scale="   80.608">  5  6 -1 -1</clus>
<clus scale="   87.682">  7  8 -1 -1</clus>
<clus scale="  143.329">  2  5  1 -1</clus>
<clus scale="   26.471">  2  5  1 -1</clus>
</clustering>
</event>
<event>
 9    1  0.8429841E-005  0.1674635E+03  0.7546771E-02  0.1204116E+00
         -4   -1    0    0    0  501 -0.00000000000E+00  0.00000000000E+00  0.50294658357E+02  0.50294658357E+02  0.00000000000E+00 0.  1.
         21   -1    0    0  501  502  0.00000000000E+00 -0.00000000000E+00 -0.12194101552E+04  0.12194101552E+04  0.00000000000E+00 0. -1.
         23    2    1    2    0    0 -0.21368440380E+02 -0.33741834772E+02 -0.73483534097E+02  0.12379542891E+03  0.91270788195E+02 0.  0.
        -24    2    1    2    0    0  0.11318536196E+03 -0.98794904466E+02 -0.69089889790E+03  0.71024301216E+03  0.67323769148E+02 0.  0.
         13    1    4    4    0    0  0.11960446388E+03 -0.79605886086E+02 -0.58131516820E+03  0.59880685505E+03  0.00000000000E+00 0. -1.
        -14    1    4    4    0    0 -0.64191019180E+01 -0.19189018380E+02 -0.10958372970E+03  0.11143615711E+03  0.00000000000E+00 0.  1.
        -13    1    3    3    0    0 -0.39400719237E+02 -0.56733985032E+02 -0.41993235140E+02  0.80836832766E+02  0.00000000000E+00 0.  1.
         13    1    3    3    0    0  0.18032278858E+02  0.22992150260E+02 -0.31490298957E+02  0.42958596145E+02  0.00000000000E+00 0. -1.
         -3    1    1    2    0  502 -0.91816921578E+02  0.13253673924E+03 -0.40473306486E+03  0.43566637250E+03  0.00000000000E+00 0.  1.
<scales pt_clust_5="13000.00000" pt_clust_6="13000.00000" pt_clust_7="13000.00000" pt_clust_8="13000.00000" pt_clust_9="153.33474"></scales>
<clustering>
<clus scale="   67.324">  5  6 -1 -1</clus>
<clus scale="   91.271">  7  8 -1 -1</clus>
<clus scale="   99.627">  1  7  2 -1</clus>
<clus scale="  153.335">  2  9  1 -1</clus>
<clus scale="  153.335">  2  5  1 -1</clus>
</clustering>
</event>
<event>
 9    1  0.8429841E-005  0.1039212E+03  0.7546771E-02  0.1277321E+00
          1   -1    0    0  502    0 -0.00000000000E+00  0.00000000000E+00  0.35433739444E+03  0.35433739444E+03  0.00000000000E+00 0. -1.
         21   -1    0    0  501  502  0.00000000000E+00 -0.00000000000E+00 -0.18232245658E+03  0.18232245658E+03  0.00000000000E+00 0.  1.
        -24    2    1    2    0    0  0.52734456771E+01  0.53430834424E+02  0.30156868778E+03  0.31643790789E+03  0.79414185146E+02 0.  0.
         23    2    1    2    0    0 -0.21628285399E+02 -0.27704044704E+02 -0.11014712362E+02  0.97825652677E+02  0.90626914385E+02 0.  0.
         11    1    3    3    0    0  0.52564521910E+00  0.55018353449E+02  0.30528473260E+03  0.31020326155E+03  0.00000000000E+00 0. -1.
        -12    1    3    3    0    0  0.47478004580E+01 -0.15875190252E+01 -0.37160448187E+01  0.62346463363E+01  0.00000000000E+00 0.  1.
        -11    1    4    4    0    0 -0.35468211552E+02  0.70633700298E+01  0.26502822452E+02  0.44836199937E+02  0.00000000000E+00 0. -1.
         11    1    4    4    0    0  0.13839926153E+02 -0.34767414734E+02 -0.37517534814E+02  0.52989452740E+02  0.00000000000E+00 0.  1.
          2    1    1    2  501    0  0.16354839722E+02 -0.25726789720E+02 -0.11853903756E+03  0.12239629046E+03  0.00000000000E+00 0. -1.
<scales pt_clust_5="13000.00000" pt_clust_6="13000.00000" pt_clust_7="13000.00000" pt_clust_8="13000.00000" pt_clust_9="30.48522"></scales>
<clustering>
<clus scale="   30.485">  2  9  1 -1</clus>
<clus scale="   79.414">  5  6 -1 -1</clus>
<clus scale="   90.627">  7  8 -1 -1</clus>
<clus scale="   94.303">  1  5  2 -1</clus>
<clus scale="   30.485">  2  5  1 -1</clus>
</clustering>
</event>
<event>
 9    1  0.8429841E-005  0.9631424E+02  0.7546771E-02  0.1293248E+00
         21   -1    0    0  501  502  0.00000000000E+00  0.00000000000E+00  0.57139658135E+02  0.57139658135E+02  0.00000000000E+00 0. -1.
         -2   -1    0    0    0  501 -0.00000000000E+00 -0.00000000000E+00 -0.30005791272E+03  0.30005791272E+03  0.00000000000E+00 0.  1.
        -24    2    1    2    0    0 -0.20613854786E+02  0.36234080523E+02 -0.16202793810E+03  0.18510322674E+03  0.79197930665E+02 0.  0.
         23    2    1    2    0    0  0.38119221593E+02 -0.20713481383E+01 -0.17638968031E+02  0.98106079970E+02  0.88635795229E+02 0.  0.
         13    1    3    3    0    0  0.15851952243E+02 -0.17959944738E+02 -0.37860344924E+02  0.44802340594E+02  0.00000000000E+00 0. -1.
        -14    1    3    3    0    0 -0.36465807030E+02  0.54194025261E+02 -0.12416759318E+03  0.14030088614E+03  0.00000000000E+00 0.  1.
        -11    1    4    4    0    0  0.62124168775E+02  0.64832172520E+01  0.67588691533E+01  0.62826163055E+02  0.00000000000E+00 0. -1.
         11    1    4    4    0    0 -0.24004947182E+02 -0.85545653903E+01 -0.24397837184E+02  0.35279916915E+02  0.00000000000E+00 0.  1.
         -1    1    1    2    0  502 -0.17505366807E+02 -0.34162732384E+02 -0.63251348449E+02  0.73988264148E+02  0.00000000000E+00 0.  1.
<scales pt_clust_5="13000.00000" pt_clust_6="13000.00000" pt_clust_7="13000.00000" pt_clust_8="13000.00000" pt_clust_9="38.38661"></scales>
<clustering>
<clus scale="   38.387">  1  9  2 -1</clus>
<clus scale="   79.198">  5  6 -1 -1</clus>
<clus scale="   87.707">  2  5  1 -1</clus>
<clus scale="   88.636">  7  8 -1 -1</clus>
<clus scale="   38.387">  1  5  2 -1</clus>
</clustering>
</event>
