<event>
 9    2  0.5684583E-005  0.9414600E+02  0.7546771E-02  0.1298489E+00
         -1   -1    0    0    0  501 -0.00000000000E+00  0.00000000000E+00  0.36249629680E+02  0.36249629680E+02  0.00000000000E+00 0.  1.
          2   -1    0    0  502    0  0.00000000000E+00 -0.00000000000E+00 -0.74722797608E+03  0.74722797608E+03  0.00000000000E+00 0. -1.
         23    2    1    2    0    0 -0.25579561049E+02 -0.36522645878E+02 -0.60266090470E+02  0.11801320444E+03  0.91142180999E+02 0.  0.
         24    2    1    2    0    0  0.83286111359E+01  0.19924801860E+02 -0.62349138193E+03  0.62921444021E+03  0.81871514795E+02 0.  0.
        -11    1    4    4    0    0  0.29280465513E+02 -0.19133565160E+02 -0.16992770469E+03  0.17349024122E+03  0.00000000000E+00 0.  1.
         12    1    4    4    0    0 -0.20951854377E+02  0.39058367019E+02 -0.45356367724E+03  0.45572419899E+03  0.00000000000E+00 0. -1.
        -11    1    3    3    0    0 -0.56243928080E+02 -0.32100299899E+02 -0.21175007144E+02  0.68133615983E+02  0.00000000000E+00 0.  1.
         11    1    3    3    0    0  0.30664367031E+02 -0.44223459791E+01 -0.39091083326E+02  0.49879588460E+02  0.00000000000E+00 0. -1.
         21    1    1    2  502  501  0.17250949913E+02  0.16597844018E+02 -0.27220873999E+02  0.36249961106E+02  0.00000000000E+00 0. -1.
<scales pt_clust_5="13000.00000" pt_clust_6="13000.00000" pt_clust_7="13000.00000" pt_clust_8="13000.00000" pt_clust_9="23.93917"></scales>
<clustering>
<clus scale="   23.939">  1  9  2 -1</clus>
<clus scale="   81.872">  5  6 -1 -1</clus>
<clus scale="   85.203">  2  5  1 -1</clus>
<clus scale="   91.142">  7  8 -1 -1</clus>
<clus scale="   85.203">  2  5  1 -1</clus>
</clustering>
</event>
<event>
 9    2  0.5684583E-005  0.1464969E+03  0.7546771E-02  0.1207387E+00
          2   -1    0    0  502    0  0.00000000000E+00  0.00000000000E+00  0.68352329371E+03  0.68352329371E+03  0.00000000000E+00 0. -1.
         -1   -1    0    0    0  501 -0.00000000000E+00 -0.00000000000E+00 -0.49206037141E+02  0.49206037141E+02  0.00000000000E+00 0.  1.
         23    2    1    2    0    0  0.91120790075E+02 -0.55370533203E+02  0.11737924608E+03  0.18401339548E+03  0.93349600827E+02 0.  0.
         24    2    1    2    0    0 -0.10753366621E+03  0.41072647651E+02  0.50438028545E+03  0.52358610266E+03  0.80575944247E+02 0.  0.
        -13    1    4    4    0    0 -0.38003432268E+02  0.56598755043E+02  0.21414262154E+03  0.22473260176E+03  0.00000000000E+00 0.  1.
         14    1    4    4    0    0 -0.69530233937E+02 -0.15526107392E+02  0.29023766392E+03  0.29885350090E+03  0.00000000000E+00 0. -1.
        -11    1    3    3    0    0  0.57452229770E+02 -0.80894469185E+02  0.87189699324E+02  0.13208602318E+03  0.00000000000E+00 0.  1.
         11    1    3    3    0    0  0.33668560306E+02  0.25523935982E+02  0.30189546754E+02  0.51927372303E+02  0.00000000000E+00 0. -1.
         21    1    1    2  502  501  0.16412876130E+02  0.14297885552E+02  0.12557725040E+02  0.25129832715E+02  0.00000000000E+00 0. -1.
<scales pt_clust_5="13000.00000" pt_clust_6="13000.00000" pt_clust_7="13000.00000" pt_clust_8="13000.00000" pt_clust_9="21.76722"></scales>
<clustering>
<clus scale="   21.767">  2  9  1 -1</clus>
<clus scale="   80.576">  5  6 -1 -1</clus>
<clus scale="   93.350">  7  8 -1 -1</clus>
<clus scale="  138.707">  1  5  2 -1</clus>
<clus scale="  138.707">  1  5  2 -1</clus>
</clustering>
</event>
<event>
 9    2  0.5684583E-005  0.2897958E+03  0.7546771E-02  0.1091206E+00
          2   -1    0    0  502    0  0.00000000000E+00  0.00000000000E+00  0.40879079946E+03  0.40879079946E+03  0.00000000000E+00 0. -1.
         -1   -1    0    0    0  501 -0.00000000000E+00 -0.00000000000E+00 -0.45041741626E+03  0.45041741626E+03  0.00000000000E+00 0.  1.
         24    2    1    2    0    0  0.20710760475E+03 -0.16305987265E+03 -0.32046254628E+03  0.42104518484E+03  0.71419339767E+02 0.  0.
         23    2    1    2    0    0 -0.20747937884E+03  0.18337306346E+03  0.29301131378E+03  0.41338995160E+03  0.91445333563E+02 0.  0.
        -11    1    3    3    0    0  0.15049449373E+03 -0.85938417056E+02 -0.17014281849E+03  0.24286330075E+03  0.00000000000E+00 0.  1.
         12    1    3    3    0    0  0.56613111016E+02 -0.77121455597E+02 -0.15031972779E+03  0.17818188409E+03  0.00000000000E+00 0. -1.
        -13    1    4    4    0    0 -0.17212159409E+03  0.10389850873E+03  0.17341568700E+03  0.26550657952E+03  0.00000000000E+00 0.  1.
         13    1    4    4    0    0 -0.35357784749E+02  0.79474554738E+02  0.11959562679E+03  0.14788337209E+03  0.00000000000E+00 0. -1.
         21    1    1    2  502  501  0.37177409320E+00 -0.20313190812E+02 -0.14175384304E+02  0.24773079282E+02  0.00000000000E+00 0.  1.
<scales pt_clust_5="13000.00000" pt_clust_6="13000.00000" pt_clust_7="13000.00000" pt_clust_8="13000.00000" pt_clust_9="20.31659"></scales>
<clustering>
<clus scale="   20.317">  2  9  1 -1</clus>
<clus scale="   71.419">  5  6 -1 -1</clus>
<clus scale="   91.445">  7  8 -1 -1</clus>
<clus scale="  284.113">  2  5  1 -1</clus>
<clus scale="  289.796">  1  5  2 -1</clus>
</clustering>
</event>
<event>
 9    2  0.5684583E-005  0.9519014E+02  0.7546771E-02  0.1297941E+00
          2   -1    0    0  502    0  0.00000000000E+00  0.00000000000E+00  0.21133387721E+03  0.21133387721E+03  0.00000000000E+00 0. -1.
         -1   -1    0    0    0  501 -0.00000000000E+00 -0.00000000000E+00 -0.16830096472E+03  0.16830096472E+03  0.00000000000E+00 0.  1.
         23    2    1    2    0    0  0.96755561554E+01  0.16269196002E+01 -0.12723789002E+03  0.15581294073E+03  0.89397587144E+02 0.  0.
         24    2    1    2    0    0 -0.33966271711E+02 -0.40652343564E+01  0.17917618183E+03  0.19783555821E+03  0.76580481936E+02 0.  0.
        -11    1    4    4    0    0 -0.42541378363E+02  0.12775780929E+02  0.48368069451E+02  0.65669320034E+02  0.00000000000E+00 0.  1.
         12    1    4    4    0    0  0.85751066513E+01 -0.16841015285E+02  0.13080811238E+03  0.13216623818E+03  0.00000000000E+00 0. -1.
        -11    1    3    3    0    0  0.24659231887E+02  0.18217436946E+02 -0.12974451071E+03  0.13331763119E+03  0.00000000000E+00 0.  1.
         11    1    3    3    0    0 -0.14983675731E+02 -0.16590517346E+02  0.25066206856E+01  0.22495309544E+02  0.00000000000E+00 0. -1.
         21    1    1    2  502  501  0.24290715556E+02  0.24383147562E+01 -0.89053793185E+01  0.25986342988E+02  0.00000000000E+00 0.  1.
<scales pt_clust_5="13000.00000" pt_clust_6="13000.00000" pt_clust_7="13000.00000" pt_clust_8="13000.00000" pt_clust_9="24.41279"></scales>
<clustering>
<clus scale="   24.413">  2  9  1 -1</clus>
<clus scale="   76.580">  5  6 -1 -1</clus>
<clus scale="   83.269">  1  5  2 -1</clus>
<clus scale="   89.398">  7  8 -1 -1</clus>
<clus scale="   83.269">  1  5  2 -1</clus>
</clustering>
</event>
<event>
 9    2  0.5684583E-005  0.1444059E+03  0.7546771E-02  0.1207624E+00
         -1   -1    0    0    0  501 -0.00000000000E+00  0.00000000000E+00  0.92842405363E+02  0.92842405363E+02  0.00000000000E+00 0.  1.
          2   -1    0    0  502    0  0.00000000000E+00 -0.00000000000E+00 -0.71551308483E+03  0.71551308483E+03  0.00000000000E+00 0. -1.
         24    2    1    2    0    0  0.11868856057E+03 -0.41894347675E+02 -0.17178704356E+03  0.23170712692E+03  0.91297828838E+02 0.  0.
         23    2    1    2    0    0 -0.10727757474E+03  0.12819496711E+02 -0.49939468224E+03  0.51895192342E+03  0.90792249901E+02 0.  0.
        -11    1    3    3    0    0  0.10572391484E+03 -0.38090352523E+02 -0.77623110318E+02  0.13657879916E+03  0.00000000000E+00 0.  1.
         12    1    3    3    0    0  0.12964645732E+02 -0.38039951523E+01 -0.94163933244E+02  0.95128327758E+02  0.00000000000E+00 0. -1.
        -13    1    4    4    0    0 -0.53297300961E+00  0.29514533526E+02 -0.16240879792E+03  0.16506971070E+03  0.00000000000E+00 0. -1.
         13    1    4    4    0    0 -0.10674460173E+03 -0.16695036814E+02 -0.33698588431E+03  0.35388221272E+03  0.00000000000E+00 0.  1.
         21    1    1    2  502  501 -0.11410985831E+02  0.29074850964E+02  0.48511046328E+02  0.57696439856E+02  0.00000000000E+00 0.  1.
<scales pt_clust_5="13000.00000" pt_clust_6="13000.00000" pt_clust_7="13000.00000" pt_clust_8="13000.00000" pt_clust_9="31.23392"></scales>
<clustering>
<clus scale="   31.234">  1  9  2 -1</clus>
<clus scale="   90.792">  7  8 -1 -1</clus>
<clus scale="   91.298">  5  6 -1 -1</clus>
<clus scale="  144.087">  2  7  1 -1</clus>
<clus scale="  144.087">  2  5  1 -1</clus>
</clustering>
</event>
<event>
 9    2  0.5684583E-005  0.1132016E+03  0.7546771E-02  0.1259188E+00
          2   -1    0    0  502    0  0.00000000000E+00  0.00000000000E+00  0.96454937309E+03  0.96454937309E+03  0.00000000000E+00 0. -1.
         -1   -1    0    0    0  501 -0.00000000000E+00 -0.00000000000E+00 -0.39183661247E+02  0.39183661247E+02  0.00000000000E+00 0.  1.
         23    2    1    2    0    0  0.42843469280E+02 -0.52297710306E+02  0.68939735068E+02  0.13303417310E+03  0.91513882974E+02 0.  0.
         24    2    1    2    0    0 -0.59432849994E+02  0.31019428547E+02  0.81266426758E+03  0.81928816178E+03  0.79469564173E+02 0.  0.
        -11    1    4    4    0    0  0.65900495866E+01  0.20335119593E+02  0.60672835723E+02  0.64328367281E+02  0.00000000000E+00 0.  1.
         12    1    4    4    0    0 -0.66022899581E+02  0.10684308954E+02  0.75199143186E+03  0.75495979450E+03  0.00000000000E+00 0. -1.
        -13    1    3    3    0    0  0.43524991544E+02 -0.68704906831E+01  0.75213696604E+02  0.87170687091E+02  0.00000000000E+00 0. -1.
         13    1    3    3    0    0 -0.68152226406E+00 -0.45427219623E+02 -0.62739615352E+01  0.45863486006E+02  0.00000000000E+00 0.  1.
         21    1    1    2  502  501  0.16589380715E+02  0.21278281758E+02  0.43761709192E+02  0.51410699456E+02  0.00000000000E+00 0.  1.
<scales pt_clust_5="13000.00000" pt_clust_6="13000.00000" pt_clust_7="13000.00000" pt_clust_8="13000.00000" pt_clust_9="26.98097"></scales>
<clustering>
<clus scale="   26.981">  2  9  1 -1</clus>
<clus scale="   79.470">  5  6 -1 -1</clus>
<clus scale="   91.514">  7  8 -1 -1</clus>
<clus scale="  103.707">  1  5  2 -1</clus>
<clus scale="  103.707">  1  5  2 -1</clus>
</clustering>
</event>
<event>
 9    2  0.5684583E-005  0.1193573E+03  0.7546771E-02  0.1246785E+00
          2   -1    0    0  502    0  0.00000000000E+00  0.00000000000E+00  0.66849004700E+03  0.66849004700E+03  0.00000000000E+00 0. -1.
         -1   -1    0    0    0  501 -0.00000000000E+00 -0.00000000000E+00 -0.34084310980E+02  0.34084310980E+02  0.00000000000E+00 0.  1.
         23    2    1    2    0    0 -0.32171508599E+02  0.87347673410E+02  0.22292369183E+03  0.25839632329E+03  0.91700956898E+02 0.  0.
         24    2    1    2    0    0  0.16262129899E+02 -0.67860823527E+02  0.40328537622E+03  0.41771993546E+03  0.83554183419E+02 0.  0.
        -11    1    4    4    0    0  0.28385844683E+02 -0.16540844143E+02  0.45792306743E+02  0.56358593490E+02  0.00000000000E+00 0.  1.
         12    1    4    4    0    0 -0.12123714784E+02 -0.51319979385E+02  0.35749306948E+03  0.36136134197E+03  0.00000000000E+00 0. -1.
        -11    1    3    3    0    0  0.11436962376E+02  0.57856708262E+02  0.18316422037E+03  0.19242487995E+03  0.00000000000E+00 0. -1.
         11    1    3    3    0    0 -0.43608470975E+02  0.29490965148E+02  0.39759471462E+02  0.65971443345E+02  0.00000000000E+00 0.  1.
         21    1    1    2  502  501  0.15909378700E+02 -0.19486849883E+02  0.81966679648E+01  0.26458099227E+02  0.00000000000E+00 0.  1.
<scales pt_clust_5="13000.00000" pt_clust_6="13000.00000" pt_clust_7="13000.00000" pt_clust_8="13000.00000" pt_clust_9="25.15642"></scales>
<clustering>
<clus scale="   25.156">  2  9  1 -1</clus>
<clus scale="   83.554">  5  6 -1 -1</clus>
<clus scale="   91.701">  7  8 -1 -1</clus>
<clus scale="  113.218">  1  5  2 -1</clus>
<clus scale="  113.218">  1  5  2 -1</clus>
</clustering>
</event>
<event>
 9    2  0.5684583E-005  0.9961991E+02  0.7546771E-02  0.1282824E+00
         -1   -1    0    0    0  501 -0.00000000000E+00  0.00000000000E+00  0.11166634789E+03  0.11166634789E+03  0.00000000000E+00 0.  1.
          2   -1    0    0  502    0  0.00000000000E+00 -0.00000000000E+00 -0.59415559215E+03  0.59415559215E+03  0.00000000000E+00 0. -1.
         23    2    1    2    0    0  0.72494597737E+00 -0.20903626566E+02  0.23430279526E+02  0.89721686695E+02  0.84044725679E+02 0.  0.
         24    2    1    2    0    0  0.32294506673E+02  0.46118515557E+02 -0.54816057969E+03  0.55685177924E+03  0.80212407270E+02 0.  0.
        -13    1    4    4    0    0  0.19527817641E+02 -0.21581054302E+02 -0.16442599991E+03  0.16698199608E+03  0.00000000000E+00 0.  1.
         14    1    4    4    0    0  0.12766689033E+02  0.67699569859E+02 -0.38373457978E+03  0.38986978317E+03  0.00000000000E+00 0. -1.
        -11    1    3    3    0    0  0.25591434213E+02  0.24087677277E+02  0.11128950767E+02  0.36864498462E+02  0.00000000000E+00 0. -1.
         11    1    3    3    0    0 -0.24866488236E+02 -0.44991303843E+02  0.12301328759E+02  0.52857188233E+02  0.00000000000E+00 0.  1.
         21    1    1    2  502  501 -0.33019452651E+02 -0.25214888991E+02  0.42241055897E+02  0.59248474103E+02  0.00000000000E+00 0. -1.
<scales pt_clust_5="13000.00000" pt_clust_6="13000.00000" pt_clust_7="13000.00000" pt_clust_8="13000.00000" pt_clust_9="41.54606"></scales>
<clustering>
<clus scale="   41.546">  1  9  2 -1</clus>
<clus scale="   80.212">  5  6 -1 -1</clus>
<clus scale="   84.045">  7  8 -1 -1</clus>
<clus scale="   96.409">  2  5  1 -1</clus>
<clus scale="   96.409">  2  5  1 -1</clus>
</clustering>
</event>
<event>
 9    2  0.5684583E-005  0.1204476E+03  0.7546771E-02  0.1252588E+00
          2   -1    0    0  502    0  0.00000000000E+00  0.00000000000E+00  0.54046499815E+03  0.54046499815E+03  0.00000000000E+00 0. -1.
         -1   -1    0    0    0  501 -0.00000000000E+00 -0.00000000000E+00 -0.11541101051E+03  0.11541101051E+03  0.00000000000E+00 0.  1.
         24    2    1    2    0    0 -0.16747729391E+02  0.17303761498E+02  0.98246340423E+02  0.12928337661E+03  0.80510505274E+02 0.  0.
         23    2    1    2    0    0  0.60225658821E+01 -0.81565285864E+02  0.40389678932E+03  0.42566043462E+03  0.10660685731E+03 0.  0.
        -11    1    3    3    0    0  0.52035795100E+00  0.34572673014E+02  0.98985648879E+02  0.10485084251E+03  0.00000000000E+00 0.  1.
         12    1    3    3    0    0 -0.17268087342E+02 -0.17268911516E+02 -0.73930845582E+00  0.24432534097E+02  0.00000000000E+00 0. -1.
        -11    1    4    4    0    0 -0.23138710704E+02  0.18459082859E+02  0.10672325729E+03  0.11075193596E+03  0.00000000000E+00 0.  1.
         11    1    4    4    0    0  0.29161276586E+02 -0.10002436872E+03  0.29717353203E+03  0.31490849867E+03  0.00000000000E+00 0. -1.
         21    1    1    2  502  501  0.10725163509E+02  0.64261524366E+02 -0.77089142110E+02  0.10093219743E+03  0.00000000000E+00 0.  1.
<scales pt_clust_5="13000.00000" pt_clust_6="13000.00000" pt_clust_7="13000.00000" pt_clust_8="13000.00000" pt_clust_9="65.15038"></scales>
<clustering>
<clus scale="   65.150">  2  9  1 -1</clus>
<clus scale="   80.511">  5  6 -1 -1</clus>
<clus scale="   98.105">  2  5  1 -1</clus>
<clus scale="  106.607">  7  8 -1 -1</clus>
<clus scale="  120.448">  1  5  2 -1</clus>
</clustering>
</event>
<event>
 9    2  0.5684583E-005  0.9591060E+02  0.7546771E-02  0.1298774E+00
          2   -1    0    0  502    0  0.00000000000E+00  0.00000000000E+00  0.96495401669E+03  0.96495401669E+03  0.00000000000E+00 0. -1.
         -1   -1    0    0    0  501 -0.00000000000E+00 -0.00000000000E+00 -0.41965734668E+02  0.41965734668E+02  0.00000000000E+00 0.  1.
         23    2    1    2    0    0 -0.83652177002E+01 -0.10273054208E+02  0.16659407517E+03  0.19036329478E+03  0.91154185901E+02 0.  0.
         24    2    1    2    0    0 -0.54214885685E+01 -0.37300433195E+02  0.76214248570E+03  0.76669311651E+03  0.74407335177E+02 0.  0.
        -13    1    4    4    0    0  0.22961731735E+02 -0.22384837596E+02  0.13597073581E+03  0.13970097736E+03  0.00000000000E+00 0.  1.
         14    1    4    4    0    0 -0.28383220303E+02 -0.14915595600E+02  0.62617174989E+03  0.62699213914E+03  0.00000000000E+00 0. -1.
        -11    1    3    3    0    0 -0.11246945858E+02  0.29456288120E+02  0.17544924267E+02  0.36083113342E+02  0.00000000000E+00 0.  1.
         11    1    3    3    0    0  0.28817281578E+01 -0.39729342328E+02  0.14904915091E+03  0.15428018144E+03  0.00000000000E+00 0. -1.
         21    1    1    2  502  501  0.13786706269E+02  0.47573487404E+02 -0.57482788529E+01  0.49863340073E+02  0.00000000000E+00 0.  1.
<scales pt_clust_5="13000.00000" pt_clust_6="13000.00000" pt_clust_7="13000.00000" pt_clust_8="13000.00000" pt_clust_9="49.53090"></scales>
<clustering>
<clus scale="   49.531">  2  9  1 -1</clus>
<clus scale="   74.407">  5  6 -1 -1</clus>
<clus scale="   80.164">  1  5  2 -1</clus>
<clus scale="   91.154">  7  8 -1 -1</clus>
<clus scale="   80.164">  1  5  2 -1</clus>
</clustering>
</event>
<event>
 9    2  0.5684583E-005  0.1117936E+03  0.7546771E-02  0.1262682E+00
          2   -1    0    0  502    0  0.00000000000E+00  0.00000000000E+00  0.70323935762E+02  0.70323935762E+02  0.00000000000E+00 0. -1.
         -1   -1    0    0    0  501 -0.00000000000E+00 -0.00000000000E+00 -0.63260715720E+03  0.63260715720E+03  0.00000000000E+00 0.  1.
         23    2    1    2    0    0  0.15713146772E+02 -0.25342847014E+02 -0.44573263403E+03  0.45648847841E+03  0.93888162216E+02 0.  0.
         24    2    1    2    0    0 -0.24295782239E+02  0.58745510632E+02  0.21165815811E+02  0.10447357820E+03  0.80158697147E+02 0.  0.
        -13    1    4    4    0    0 -0.25996713963E+02  0.59218699393E+02 -0.16516946172E+02  0.66749479441E+02  0.00000000000E+00 0.  1.
         14    1    4    4    0    0  0.17009317237E+01 -0.47318876188E+00  0.37682761983E+02  0.37724098756E+02  0.00000000000E+00 0. -1.
        -11    1    3    3    0    0  0.95372562482E+01 -0.61099791609E+02 -0.26101804974E+03  0.26824348283E+03  0.00000000000E+00 0.  1.
         11    1    3    3    0    0  0.61758905240E+01  0.35756944595E+02 -0.18471458429E+03  0.18824499558E+03  0.00000000000E+00 0. -1.
         21    1    1    2  502  501  0.85826354673E+01 -0.33402663617E+02 -0.13771640322E+03  0.14196903636E+03  0.00000000000E+00 0.  1.
<scales pt_clust_5="13000.00000" pt_clust_6="13000.00000" pt_clust_7="13000.00000" pt_clust_8="13000.00000" pt_clust_9="34.48767"></scales>
<clustering>
<clus scale="   34.488">  2  9  1 -1</clus>
<clus scale="   80.159">  5  6 -1 -1</clus>
<clus scale="   93.888">  7  8 -1 -1</clus>
<clus scale="  100.540">  1  5  2 -1</clus>
<clus scale="  100.540">  1  5  2 -1</clus>
</clustering>
</event>
<event>
 9    2  0.5684583E-005  0.2063433E+03  0.7546771E-02  0.1145718E+00
         -1   -1    0    0    0  501 -0.00000000000E+00  0.00000000000E+00  0.14844238142E+03  0.14844238142E+03  0.00000000000E+00 0.  1.
          2   -1    0    0  502    0  0.00000000000E+00 -0.00000000000E+00 -0.87973002981E+03  0.87973002981E+03  0.00000000000E+00 0. -1.
         23    2    1    2    0    0 -0.18344501411E+03  0.89732110596E+02  0.20274477320E+02  0.22540870145E+03  0.93242176005E+02 0.  0.
         24    2    1    2    0    0  0.16631036212E+03 -0.73877997268E+02 -0.75363107837E+03  0.77932805802E+03  0.79216947103E+02 0.  0.
        -13    1    4    4    0    0  0.74846764288E+02 -0.77662176405E+01 -0.18708664291E+03  0.20165258297E+03  0.00000000000E+00 0.  1.
         14    1    4    4    0    0  0.91463597829E+02 -0.66111779627E+02 -0.56654443545E+03  0.57767547505E+03  0.00000000000E+00 0. -1.
        -11    1    3    3    0    0 -0.10147038781E+03  0.69569174558E+02 -0.30690751219E+02  0.12679917926E+03  0.00000000000E+00 0. -1.
         11    1    3    3    0    0 -0.81974626300E+02  0.20162936038E+02  0.50965228539E+02  0.98609522191E+02  0.00000000000E+00 0.  1.
         21    1    1    2  502  501  0.17134651992E+02 -0.15854113329E+02  0.20689526574E+01  0.23435651760E+02  0.00000000000E+00 0.  1.
<scales pt_clust_5="13000.00000" pt_clust_6="13000.00000" pt_clust_7="13000.00000" pt_clust_8="13000.00000" pt_clust_9="23.34415"></scales>
<clustering>
<clus scale="   23.344">  1  9  2 -1</clus>
<clus scale="   79.217">  5  6 -1 -1</clus>
<clus scale="   93.242">  7  8 -1 -1</clus>
<clus scale="  200.397">  2  5  1 -1</clus>
<clus scale="  200.397">  2  5  1 -1</clus>
</clustering>
</event>
<event>
 9    2  0.5684583E-005  0.1033409E+03  0.7546771E-02  0.1278477E+00
         -1   -1    0    0    0  501 -0.00000000000E+00  0.00000000000E+00  0.49052376022E+02  0.49052376022E+02  0.00000000000E+00 0.  1.
          2   -1    0    0  502    0  0.00000000000E+00 -0.00000000000E+00 -0.53639099280E+03  0.53639099280E+03  0.00000000000E+00 0. -1.
         23    2    1    2    0    0 -0.63596439072E+02 -0.37151269577E+02 -0.57613453502E+02  0.13117434665E+03  0.91992800262E+02 0.  0.
         24    2    1    2    0    0  0.41594868725E+02  0.12777703894E+02 -0.39835977048E+03  0.40886056848E+03  0.81136027137E+02 0.  0.
        -13    1    4    4    0    0 -0.82128970535E+01  0.34505770227E+02 -0.20338923323E+03  0.20645890645E+03  0.00000000000E+00 0.  1.
         14    1    4    4    0    0  0.49807765779E+02 -0.21728066333E+02 -0.19497053725E+03  0.20240166204E+03  0.00000000000E+00 0. -1.
        -11    1    3    3    0    0 -0.81022714440E+02 -0.49005729751E+02 -0.36907413038E+02  0.10162873088E+03  0.00000000000E+00 0.  1.
         11    1    3    3    0    0  0.17426275368E+02  0.11854460174E+02 -0.20706040464E+02  0.29545615764E+02  0.00000000000E+00 0. -1.
         21    1    1    2  502  501  0.22001570346E+02  0.24373565683E+02 -0.31365392795E+02  0.45408453695E+02  0.00000000000E+00 0. -1.
<scales pt_clust_5="13000.00000" pt_clust_6="13000.00000" pt_clust_7="13000.00000" pt_clust_8="13000.00000" pt_clust_9="32.83504"></scales>
<clustering>
<clus scale="   32.835">  1  9  2 -1</clus>
<clus scale="   81.136">  5  6 -1 -1</clus>
<clus scale="   91.993">  7  8 -1 -1</clus>
<clus scale="   93.807">  2  5  1 -1</clus>
<clus scale="   93.807">  2  5  1 -1</clus>
</clustering>
</event>
<event>
 9    2  0.5684583E-005  0.2181823E+03  0.7546771E-02  0.1165550E+00
          2   -1    0    0  502    0  0.00000000000E+00  0.00000000000E+00  0.51150974054E+03  0.51150974054E+03  0.00000000000E+00 0. -1.
         -1   -1    0    0    0  501 -0.00000000000E+00 -0.00000000000E+00 -0.23896160860E+03  0.23896160860E+03  0.00000000000E+00 0.  1.
         23    2    1    2    0    0  0.15191925582E+03 -0.12308188857E+03 -0.35133275755E+02  0.21850888936E+03  0.91011955707E+02 0.  0.
         24    2    1    2    0    0  0.43776187140E+02  0.53644926573E+02  0.30634064751E+03  0.32430891244E+03  0.80855090519E+02 0.  0.
        -11    1    4    4    0    0  0.10359546463E+02  0.34932242506E+02  0.35833774876E+02  0.51104218919E+02  0.00000000000E+00 0.  1.
         12    1    4    4    0    0  0.33416640677E+02  0.18712684067E+02  0.27050687263E+03  0.27320469352E+03  0.00000000000E+00 0. -1.
        -11    1    3    3    0    0  0.17977241510E+01 -0.40254076361E+02 -0.23530089473E+02  0.46661414320E+02  0.00000000000E+00 0.  1.
         11    1    3    3    0    0  0.15012153167E+03 -0.82827812209E+02 -0.11603186282E+02  0.17184747504E+03  0.00000000000E+00 0. -1.
         21    1    1    2  502  501 -0.19569544296E+03  0.69436961997E+02  0.13407601865E+01  0.20765354734E+03  0.00000000000E+00 0.  1.
<scales pt_clust_5="13000.00000" pt_clust_6="13000.00000" pt_clust_7="13000.00000" pt_clust_8="13000.00000" pt_clust_9="198.29361"></scales>
<clustering>
<clus scale="   80.855">  5  6 -1 -1</clus>
<clus scale="   91.012">  7  8 -1 -1</clus>
<clus scale="  106.450">  1  5  2 -1</clus>
<clus scale="  198.294">  1  9  2 -1</clus>
<clus scale="  106.450">  1  5  2 -1</clus>
</clustering>
</event>
<event>
 9    2  0.5684583E-005  0.9658918E+02  0.7546771E-02  0.1295437E+00
         -1   -1    0    0    0  501 -0.00000000000E+00  0.00000000000E+00  0.18506607685E+03  0.18506607685E+03  0.00000000000E+00 0.  1.
          2   -1    0    0  502    0  0.00000000000E+00 -0.00000000000E+00 -0.32411277644E+03  0.32411277644E+03  0.00000000000E+00 0. -1.
         23    2    1    2    0    0  0.15461220483E+02  0.16413591494E+02  0.15236271861E+03  0.18042123664E+03  0.93962595143E+02 0.  0.
         24    2    1    2    0    0 -0.40494573306E+02  0.14493720146E+02 -0.26685947841E+03  0.28201758873E+03  0.80436687819E+02 0.  0.
        -13    1    4    4    0    0 -0.52072767580E+02 -0.95141233174E+01 -0.10100987743E+03  0.11403984832E+03  0.00000000000E+00 0.  1.
         14    1    4    4    0    0  0.11578194274E+02  0.24007843464E+02 -0.16584960097E+03  0.16797774041E+03  0.00000000000E+00 0. -1.
        -13    1    3    3    0    0 -0.10469688939E+02  0.51149872351E+02  0.69745653971E+02  0.87122787351E+02  0.00000000000E+00 0. -1.
         13    1    3    3    0    0  0.25930909422E+02 -0.34736280857E+02  0.82617064636E+02  0.93298449292E+02  0.00000000000E+00 0.  1.
         21    1    1    2  502  501  0.25033352823E+02 -0.30907311641E+02 -0.24549939787E+02  0.46740027920E+02  0.00000000000E+00 0. -1.
<scales pt_clust_5="13000.00000" pt_clust_6="13000.00000" pt_clust_7="13000.00000" pt_clust_8="13000.00000" pt_clust_9="39.77349"></scales>
<clustering>
<clus scale="   39.773">  2  9  1 -1</clus>
<clus scale="   80.437">  5  6 -1 -1</clus>
<clus scale="   83.490">  2  5  1 -1</clus>
<clus scale="   93.963">  7  8 -1 -1</clus>
<clus scale="   39.773">  2  5  1 -1</clus>
</clustering>
</event>
<event>
 9    2  0.5684583E-005  0.9951096E+02  0.7546771E-02  0.1286945E+00
          2   -1    0    0  502    0  0.00000000000E+00  0.00000000000E+00  0.23212091739E+03  0.23212091739E+03  0.00000000000E+00 0. -1.
         -1   -1    0    0    0  501 -0.00000000000E+00 -0.00000000000E+00 -0.76442715758E+02  0.76442715758E+02  0.00000000000E+00 0.  1.
         23    2    1    2    0    0  0.53187295201E+02  0.41146569859E+01  0.15381761144E+02  0.10765419067E+03  0.92233439814E+02 0.  0.
         24    2    1    2    0    0 -0.17234698409E+01 -0.26599438033E+02  0.10093920949E+03  0.13233041995E+03  0.81314916093E+02 0.  0.
        -13    1    4    4    0    0  0.38321585800E+02 -0.16645936364E+01  0.43237569188E+02  0.57799673005E+02  0.00000000000E+00 0.  1.
         14    1    4    4    0    0 -0.40045055641E+02 -0.24934844397E+02  0.57701640297E+02  0.74530746940E+02  0.00000000000E+00 0. -1.
        -11    1    3    3    0    0  0.76644842420E+01 -0.41429610019E+02  0.71751992175E+01  0.42739213713E+02  0.00000000000E+00 0. -1.
         11    1    3    3    0    0  0.45522810959E+02  0.45544267005E+02  0.82065619268E+01  0.64914976956E+02  0.00000000000E+00 0.  1.
         21    1    1    2  502  501 -0.51463825360E+02  0.22484781048E+02  0.39357231003E+02  0.68579022533E+02  0.00000000000E+00 0. -1.
<scales pt_clust_5="13000.00000" pt_clust_6="13000.00000" pt_clust_7="13000.00000" pt_clust_8="13000.00000" pt_clust_9="56.16129"></scales>
<clustering>
<clus scale="   56.161">  1  9  2 -1</clus>
<clus scale="   81.315">  5  6 -1 -1</clus>
<clus scale="   89.485">  1  5  2 -1</clus>
<clus scale="   92.233">  7  8 -1 -1</clus>
<clus scale="   56.161">  1  5  2 -1</clus>
</clustering>
</event>
<event>
 9    2  0.5684583E-005  0.1145265E+03  0.7546771E-02  0.1256054E+00
          2   -1    0    0  502    0  0.00000000000E+00  0.00000000000E+00  0.25500139576E+03  0.25500139576E+03  0.00000000000E+00 0. -1.
         -1   -1    0    0    0  501 -0.00000000000E+00 -0.00000000000E+00 -0.18087255274E+03  0.18087255274E+03  0.00000000000E+00 0.  1.
         23    2    1    2    0    0 -0.30445711185E+02 -0.43224331681E+02 -0.89158882940E+02  0.13848840832E+03  0.91839254427E+02 0.  0.
         24    2    1    2    0    0 -0.47157273082E+02  0.58845344278E+02  0.18453380459E+03  0.21542435998E+03  0.81659946664E+02 0.  0.
        -13    1    4    4    0    0 -0.17805291520E+02  0.44360161267E+02  0.27773007683E+02  0.55282838834E+02  0.00000000000E+00 0.  1.
         14    1    4    4    0    0 -0.29351981562E+02  0.14485183011E+02  0.15676079691E+03  0.16014152115E+03  0.00000000000E+00 0. -1.
        -11    1    3    3    0    0 -0.15713636896E+02  0.20762830927E+02  0.20318611132E+01  0.26117848154E+02  0.00000000000E+00 0. -1.
         11    1    3    3    0    0 -0.14732074289E+02 -0.63987162609E+02 -0.91190744054E+02  0.11237056017E+03  0.00000000000E+00 0.  1.
         21    1    1    2  502  501  0.77602984266E+02 -0.15621012596E+02 -0.21246078635E+02  0.81961180195E+02  0.00000000000E+00 0. -1.
<scales pt_clust_5="13000.00000" pt_clust_6="13000.00000" pt_clust_7="13000.00000" pt_clust_8="13000.00000" pt_clust_9="79.15958"></scales>
<clustering>
<clus scale="   79.160">  2  9  1 -1</clus>
<clus scale="   81.660">  5  6 -1 -1</clus>
<clus scale="   91.839">  7  8 -1 -1</clus>
<clus scale="  106.537">  1  5  2 -1</clus>
<clus scale="  106.537">  1  5  2 -1</clus>
</clustering>
</event>
<event>
 9    2  0.5684583E-005  0.1006435E+03  0.7546771E-02  0.1284213E+00
          2   -1    0    0  502    0  0.00000000000E+00  0.00000000000E+00  0.37734817690E+03  0.37734817690E+03  0.00000000000E+00 0. -1.
         -1   -1    0    0    0  501 -0.00000000000E+00 -0.00000000000E+00 -0.70440874216E+02  0.70440874216E+02  0.00000000000E+00 0.  1.
         23    2    1    2    0    0 -0.18915694012E+02  0.87552129325E+01  0.32314493614E+02  0.98381601379E+02  0.90555263563E+02 0.  0.
         24    2    1    2    0    0  0.45153866991E+02 -0.18847330701E+02  0.29829765389E+03  0.31263501128E+03  0.79781366135E+02 0.  0.
        -13    1    4    4    0    0 -0.48788084218E+01  0.21953884045E+02  0.35505184901E+02  0.42028489756E+02  0.00000000000E+00 0.  1.
         14    1    4    4    0    0  0.50032675413E+02 -0.40801214746E+02  0.26279246899E+03  0.27060652152E+03  0.00000000000E+00 0. -1.
        -13    1    3    3    0    0 -0.23301746469E+02 -0.18985505063E+02 -0.21991462394E+02  0.37243055853E+02  0.00000000000E+00 0.  1.
         13    1    3    3    0    0  0.43860524573E+01  0.27740717996E+02  0.54305956009E+02  0.61138545526E+02  0.00000000000E+00 0. -1.
         21    1    1    2  502  501 -0.26238172979E+02  0.10092117768E+02 -0.23704844819E+02  0.36772438459E+02  0.00000000000E+00 0.  1.
<scales pt_clust_5="13000.00000" pt_clust_6="13000.00000" pt_clust_7="13000.00000" pt_clust_8="13000.00000" pt_clust_9="28.11214"></scales>
<clustering>
<clus scale="   28.112">  2  9  1 -1</clus>
<clus scale="   79.781">  5  6 -1 -1</clus>
<clus scale="   90.555">  7  8 -1 -1</clus>
<clus scale="   91.071">  1  5  2 -1</clus>
<clus scale="   91.071">  1  5  2 -1</clus>
</clustering>
</event>
<event>
 9    2  0.5684583E-005  0.1120161E+03  0.7546771E-02  0.1261287E+00
         -1   -1    0    0    0  501 -0.00000000000E+00  0.00000000000E+00  0.60007584714E+03  0.60007584714E+03  0.00000000000E+00 0.  1.
          2   -1    0    0  502    0  0.00000000000E+00 -0.00000000000E+00 -0.30901479458E+02  0.30901479458E+02  0.00000000000E+00 0. -1.
         23    2    1    2    0    0  0.48546964238E+02 -0.53916302938E+02  0.38136081935E+03  0.39859538079E+03  0.90434659249E+02 0.  0.
         24    2    1    2    0    0 -0.11660111837E+02  0.57736552618E+02  0.11990349063E+03  0.15500617360E+03  0.78616786203E+02 0.  0.
        -13    1    4    4    0    0 -0.29992858619E+02  0.37880083415E+02  0.11846891602E+03  0.12794278546E+03  0.00000000000E+00 0.  1.
         14    1    4    4    0    0  0.18332746782E+02  0.19856469202E+02  0.14345746171E+01  0.27063388149E+02  0.00000000000E+00 0. -1.
        -13    1    3    3    0    0  0.17793018398E+02 -0.74190367081E+02  0.21298702972E+03  0.22623942384E+03  0.00000000000E+00 0.  1.
         13    1    3    3    0    0  0.30753945840E+02  0.20274064143E+02  0.16837378963E+03  0.17235595695E+03  0.00000000000E+00 0. -1.
         21    1    1    2  502  501 -0.36886852400E+02 -0.38202496797E+01  0.67910057698E+02  0.77375772204E+02  0.00000000000E+00 0.  1.
<scales pt_clust_5="13000.00000" pt_clust_6="13000.00000" pt_clust_7="13000.00000" pt_clust_8="13000.00000" pt_clust_9="37.08415"></scales>
<clustering>
<clus scale="   37.084">  2  9  1 -1</clus>
<clus scale="   78.617">  5  6 -1 -1</clus>
<clus scale="   90.435">  7  8 -1 -1</clus>
<clus scale="  102.712">  2  5  1 -1</clus>
<clus scale="   37.084">  2  5  1 -1</clus>
</clustering>
</event>
<event>
 9    2  0.5684583E-005  0.9632243E+02  0.7546771E-02  0.1294954E+00
          2   -1    0    0  502    0  0.00000000000E+00  0.00000000000E+00  0.18579073099E+03  0.18579073099E+03  0.00000000000E+00 0. -1.
         -1   -1    0    0    0  501 -0.00000000000E+00 -0.00000000000E+00 -0.98575077977E+02  0.98575077977E+02  0.00000000000E+00 0.  1.
         23    2    1    2    0    0  0.27338198420E+02  0.17024253286E+02 -0.16141835445E+02  0.98411904109E+02  0.91581339398E+02 0.  0.
         24    2    1    2    0    0 -0.20756271769E+02  0.30078765387E+02  0.10702153706E+03  0.13825231811E+03  0.79526971031E+02 0.  0.
        -11    1    4    4    0    0  0.18025935120E+02  0.29824666000E+02  0.88817192904E+02  0.95409322366E+02  0.00000000000E+00 0.  1.
         12    1    4    4    0    0 -0.38782206889E+02  0.25409938699E+00  0.18204344159E+02  0.42842995740E+02  0.00000000000E+00 0. -1.
        -11    1    3    3    0    0  0.30314672542E+02  0.49743147283E+02 -0.26453452802E+02  0.63977693285E+02  0.00000000000E+00 0.  1.
         11    1    3    3    0    0 -0.29764741214E+01 -0.32718893997E+02  0.10311617357E+02  0.34434210824E+02  0.00000000000E+00 0. -1.
         21    1    1    2  502  501 -0.65819266514E+01 -0.47103018673E+02 -0.36640486035E+01  0.47701586753E+02  0.00000000000E+00 0. -1.
<scales pt_clust_5="13000.00000" pt_clust_6="13000.00000" pt_clust_7="13000.00000" pt_clust_8="13000.00000" pt_clust_9="47.56066"></scales>
<clustering>
<clus scale="   47.561">  2  9  1 -1</clus>
<clus scale="   79.527">  5  6 -1 -1</clus>
<clus scale="   84.944">  1  5  2 -1</clus>
<clus scale="   91.581">  7  8 -1 -1</clus>
<clus scale="   84.944">  1  5  2 -1</clus>
</clustering>
</event>
<event>
 9    2  0.5684583E-005  0.1166406E+03  0.7546771E-02  0.1252821E+00
          2   -1    0    0  502    0  0.00000000000E+00  0.00000000000E+00  0.14997493315E+04  0.14997493315E+04  0.00000000000E+00 0. -1.
         -1   -1    0    0    0  501 -0.00000000000E+00 -0.00000000000E+00 -0.24976262689E+02  0.24976262689E+02  0.00000000000E+00 0.  1.
         23    2    1    2    0    0  0.46553931614E+02 -0.54728325508E+02  0.15851358493E+03  0.19715270437E+03  0.92629229040E+02 0.  0.
         24    2    1    2    0    0 -0.14223288247E+02  0.70337423944E+02  0.12209345775E+04  0.12257114534E+04  0.80855854987E+02 0.  0.
        -13    1    4    4    0    0  0.10406931136E+02  0.19178469958E+02  0.68770081715E+02  0.72148749572E+02  0.00000000000E+00 0.  1.
         14    1    4    4    0    0 -0.24630219383E+02  0.51158953986E+02  0.11521644958E+04  0.11535627039E+04  0.00000000000E+00 0. -1.
        -13    1    3    3    0    0  0.65923297012E+01 -0.66493002840E+02  0.58494479009E+02  0.88805305653E+02  0.00000000000E+00 0.  1.
         13    1    3    3    0    0  0.39961601913E+02  0.11764677333E+02  0.10001910592E+03  0.10834739872E+03  0.00000000000E+00 0. -1.
         21    1    1    2  502  501 -0.32330643367E+02 -0.15609098436E+02  0.95324906309E+02  0.10186143636E+03  0.00000000000E+00 0.  1.
<scales pt_clust_5="13000.00000" pt_clust_6="13000.00000" pt_clust_7="13000.00000" pt_clust_8="13000.00000" pt_clust_9="35.90145"></scales>
<clustering>
<clus scale="   35.901">  2  9  1 -1</clus>
<clus scale="   80.856">  5  6 -1 -1</clus>
<clus scale="   92.629">  7  8 -1 -1</clus>
<clus scale="  107.529">  1  5  2 -1</clus>
<clus scale="  107.529">  1  5  2 -1</clus>
</clustering>
</event>
<event>
 9    2  0.5684583E-005  0.1249613E+03  0.7546771E-02  0.1237934E+00
          2   -1    0    0  502    0  0.00000000000E+00  0.00000000000E+00  0.34718818787E+03  0.34718818787E+03  0.00000000000E+00 0. -1.
         -1   -1    0    0    0  501 -0.00000000000E+00 -0.00000000000E+00 -0.91627463671E+02  0.91627463671E+02  0.00000000000E+00 0.  1.
         24    2    1    2    0    0 -0.94738336706E+02  0.45157736236E+01  0.56215653641E+02  0.13697086548E+03  0.81271604034E+02 0.  0.
         23    2    1    2    0    0  0.79755345748E+02 -0.21578458867E+02  0.23170371454E+03  0.26231369594E+03  0.91078640110E+02 0.  0.
        -11    1    3    3    0    0 -0.57817490265E+02  0.23174794342E+02 -0.56541380356E+01  0.62545204055E+02  0.00000000000E+00 0.  1.
         12    1    3    3    0    0 -0.36920846440E+02 -0.18659020719E+02  0.61869791677E+02  0.74425661422E+02  0.00000000000E+00 0. -1.
        -13    1    4    4    0    0  0.45460609041E+02 -0.29563350714E+02  0.39952499648E+02  0.67356223973E+02  0.00000000000E+00 0.  1.
         13    1    4    4    0    0  0.34294736706E+02  0.79848918470E+01  0.19175121489E+03  0.19495747197E+03  0.00000000000E+00 0. -1.
         21    1    1    2  502  501  0.14982990958E+02  0.17062685243E+02 -0.32358643983E+02  0.39531090121E+02  0.00000000000E+00 0.  1.
<scales pt_clust_5="13000.00000" pt_clust_6="13000.00000" pt_clust_7="13000.00000" pt_clust_8="13000.00000" pt_clust_9="22.70738"></scales>
<clustering>
<clus scale="   22.707">  2  9  1 -1</clus>
<clus scale="   81.272">  5  6 -1 -1</clus>
<clus scale="   91.079">  7  8 -1 -1</clus>
<clus scale="  118.005">  2  5  1 -1</clus>
<clus scale="  124.961">  1  5  2 -1</clus>
</clustering>
</event>
<event>
 9    2  0.5684583E-005  0.1134955E+03  0.7546771E-02  0.1257820E+00
          2   -1    0    0  502    0  0.00000000000E+00  0.00000000000E+00  0.42069474786E+03  0.42069474786E+03  0.00000000000E+00 0. -1.
         -1   -1    0    0    0  501 -0.00000000000E+00 -0.00000000000E+00 -0.73541478171E+02  0.73541478171E+02  0.00000000000E+00 0.  1.
         23    2    1    2    0    0  0.49788700035E+02 -0.46795306455E+02  0.42820365729E+02  0.12057971124E+03  0.89650251997E+02 0.  0.
         24    2    1    2    0    0 -0.33192090880E+02  0.62227714484E+02  0.32563414698E+03  0.34255427039E+03  0.79572778874E+02 0.  0.
        -13    1    4    4    0    0 -0.44283908192E+01  0.24152644984E+02  0.16098255302E+02  0.29361790285E+02  0.00000000000E+00 0.  1.
         14    1    4    4    0    0 -0.28763700061E+02  0.38075069499E+02  0.30953589168E+03  0.31319248011E+03  0.00000000000E+00 0. -1.
        -13    1    3    3    0    0 -0.12856213005E+02 -0.47196756838E+02  0.10274461703E+02  0.49983803698E+02  0.00000000000E+00 0.  1.
         13    1    3    3    0    0  0.62644913040E+02  0.40145038280E+00  0.32545904026E+02  0.70595907537E+02  0.00000000000E+00 0. -1.
         21    1    1    2  502  501 -0.16596609155E+02 -0.15432408028E+02 -0.21301243017E+02  0.31102244406E+02  0.00000000000E+00 0. -1.
<scales pt_clust_5="13000.00000" pt_clust_6="13000.00000" pt_clust_7="13000.00000" pt_clust_8="13000.00000" pt_clust_9="22.66289"></scales>
<clustering>
<clus scale="   22.663">  2  9  1 -1</clus>
<clus scale="   79.573">  5  6 -1 -1</clus>
<clus scale="   89.650">  7  8 -1 -1</clus>
<clus scale="  105.716">  1  5  2 -1</clus>
<clus scale="  105.716">  1  5  2 -1</clus>
</clustering>
</event>
<event>
 9    2  0.5684583E-005  0.9575374E+02  0.7546771E-02  0.1296383E+00
          2   -1    0    0  502    0  0.00000000000E+00  0.00000000000E+00  0.41262138983E+03  0.41262138983E+03  0.00000000000E+00 0. -1.
         -1   -1    0    0    0  501 -0.00000000000E+00 -0.00000000000E+00 -0.80127986405E+02  0.80127986405E+02  0.00000000000E+00 0.  1.
         24    2    1    2    0    0  0.63436849229E+02  0.35451721966E+02  0.53075866233E+02  0.11996444899E+03  0.79330719243E+02 0.  0.
         23    2    1    2    0    0 -0.14980010071E+02 -0.11506369504E+02  0.30056025812E+03  0.31474649330E+03  0.91499120444E+02 0.  0.
        -11    1    3    3    0    0  0.61218686027E+02 -0.64815320372E+01  0.47179581544E+02  0.77560625907E+02  0.00000000000E+00 0.  1.
         12    1    3    3    0    0  0.22181632020E+01  0.41933254003E+02  0.58962846888E+01  0.42403823087E+02  0.00000000000E+00 0. -1.
        -13    1    4    4    0    0 -0.14960348439E+02  0.39563004304E+02  0.13047007364E+03  0.13715496145E+03  0.00000000000E+00 0. -1.
         13    1    4    4    0    0 -0.19661631814E-01 -0.51069373808E+02  0.17009018449E+03  0.17759153186E+03  0.00000000000E+00 0.  1.
         21    1    1    2  502  501 -0.48456839157E+02 -0.23945352462E+02 -0.21142720932E+02  0.58038433939E+02  0.00000000000E+00 0.  1.
<scales pt_clust_5="13000.00000" pt_clust_6="13000.00000" pt_clust_7="13000.00000" pt_clust_8="13000.00000" pt_clust_9="54.05039"></scales>
<clustering>
<clus scale="   54.050">  2  9  1 -1</clus>
<clus scale="   79.331">  5  6 -1 -1</clus>
<clus scale="   84.202">  2  5  1 -1</clus>
<clus scale="   91.499">  7  8 -1 -1</clus>
<clus scale="   95.754">  1  5  2 -1</clus>
</clustering>
</event>
<event>
 9    2  0.5684583E-005  0.9596078E+02  0.7546771E-02  0.1294281E+00
          2   -1    0    0  502    0  0.00000000000E+00  0.00000000000E+00  0.28988121431E+02  0.28988121431E+02  0.00000000000E+00 0. -1.
         -1   -1    0    0    0  501 -0.00000000000E+00 -0.00000000000E+00 -0.47481386820E+03  0.47481386820E+03  0.00000000000E+00 0.  1.
         23    2    1    2    0    0 -0.10327298121E+02 -0.45329544379E+02 -0.25512442477E+03  0.27443491357E+03  0.89803279420E+02 0.  0.
         24    2    1    2    0    0  0.23182892959E+02  0.20554902746E+02 -0.88208771180E+02  0.12314197469E+03  0.80144919146E+02 0.  0.
        -13    1    4    4    0    0  0.31715252425E+02 -0.22583576081E+02 -0.57752413375E+02  0.69650674051E+02  0.00000000000E+00 0.  1.
         14    1    4    4    0    0 -0.85323594668E+01  0.43138478826E+02 -0.30456357805E+02  0.53491300641E+02  0.00000000000E+00 0. -1.
        -11    1    3    3    0    0  0.74248131532E+01  0.25040330487E+02 -0.43802441552E+02  0.50998038072E+02  0.00000000000E+00 0. -1.
         11    1    3    3    0    0 -0.17752111274E+02 -0.70369874866E+02 -0.21132198321E+03  0.22343687550E+03  0.00000000000E+00 0.  1.
         21    1    1    2  502  501 -0.12855594838E+02  0.24774641633E+02 -0.10249255082E+03  0.10622510136E+03  0.00000000000E+00 0.  1.
<scales pt_clust_5="13000.00000" pt_clust_6="13000.00000" pt_clust_7="13000.00000" pt_clust_8="13000.00000" pt_clust_9="27.91145"></scales>
<clustering>
<clus scale="   27.911">  2  9  1 -1</clus>
<clus scale="   80.145">  5  6 -1 -1</clus>
<clus scale="   86.989">  1  5  2 -1</clus>
<clus scale="   89.803">  7  8 -1 -1</clus>
<clus scale="   86.989">  1  5  2 -1</clus>
</clustering>
</event>
<event>
 9    2  0.5684583E-005  0.1060027E+03  0.7546771E-02  0.1271942E+00
          2   -1    0    0  502    0  0.00000000000E+00  0.00000000000E+00  0.21694630842E+03  0.21694630842E+03  0.00000000000E+00 0. -1.
         -1   -1    0    0    0  501 -0.00000000000E+00 -0.00000000000E+00 -0.19292988789E+03  0.19292988789E+03  0.00000000000E+00 0.  1.
         23    2    1    2    0    0 -0.10737011712E+02  0.15471702972E+02 -0.16827754798E+02  0.97106767225E+02  0.93765099563E+02 0.  0.
         24    2    1    2    0    0  0.59873478207E+02  0.12864697733E+02  0.15390608887E+03  0.18627697779E+03  0.85215576180E+02 0.  0.
        -13    1    4    4    0    0  0.47490089626E+02 -0.24859330615E+02  0.43772514017E+02  0.69204970304E+02  0.00000000000E+00 0.  1.
         14    1    4    4    0    0  0.12383388581E+02  0.37724028348E+02  0.11013357485E+03  0.11707200748E+03  0.00000000000E+00 0. -1.
        -11    1    3    3    0    0 -0.28681655673E+02 -0.20116773574E+02 -0.38240878521E+02  0.51862189900E+02  0.00000000000E+00 0.  1.
         11    1    3    3    0    0  0.17944643961E+02  0.35588476546E+02  0.21413123723E+02  0.45244577325E+02  0.00000000000E+00 0. -1.
         21    1    1    2  502  501 -0.49136466496E+02 -0.28336400705E+02 -0.11306191353E+03  0.12649245130E+03  0.00000000000E+00 0.  1.
<scales pt_clust_5="13000.00000" pt_clust_6="13000.00000" pt_clust_7="13000.00000" pt_clust_8="13000.00000" pt_clust_9="56.72164"></scales>
<clustering>
<clus scale="   56.722">  2  9  1 -1</clus>
<clus scale="   85.216">  5  6 -1 -1</clus>
<clus scale="   93.765">  7  8 -1 -1</clus>
<clus scale="   98.521">  1  5  2 -1</clus>
<clus scale="   98.521">  1  5  2 -1</clus>
</clustering>
</event>
<event>
 9    2  0.5684583E-005  0.1032358E+03  0.7546771E-02  0.1278272E+00
         -1   -1    0    0    0  501 -0.00000000000E+00  0.00000000000E+00  0.21458911103E+02  0.21458911103E+02  0.00000000000E+00 0.  1.
          2   -1    0    0  502    0  0.00000000000E+00 -0.00000000000E+00 -0.16039275686E+04  0.16039275686E+04  0.00000000000E+00 0. -1.
         23    2    1    2    0    0  0.49625744297E+02 -0.10845924421E+02 -0.13226490807E+03  0.16865387257E+03  0.91486470319E+02 0.  0.
         24    2    1    2    0    0 -0.35344909773E+02  0.32694040197E+02 -0.13455547471E+04  0.13488776300E+04  0.81456248694E+02 0.  0.
        -13    1    4    4    0    0 -0.30217599856E+02  0.28775689077E+01 -0.15531194441E+03  0.15825038331E+03  0.00000000000E+00 0.  1.
         14    1    4    4    0    0 -0.51273099171E+01  0.29816471289E+02 -0.11902428027E+04  0.11906272467E+04  0.00000000000E+00 0. -1.
        -13    1    3    3    0    0  0.12611518535E+02  0.21421225570E+02 -0.11333204617E+03  0.11602616944E+03  0.00000000000E+00 0. -1.
         13    1    3    3    0    0  0.37014225762E+02 -0.32267149991E+02 -0.18932861902E+02  0.52627703134E+02  0.00000000000E+00 0.  1.
         21    1    1    2  502  501 -0.14280834524E+02 -0.21848115776E+02 -0.10464900233E+03  0.10785497711E+03  0.00000000000E+00 0. -1.
<scales pt_clust_5="13000.00000" pt_clust_6="13000.00000" pt_clust_7="13000.00000" pt_clust_8="13000.00000" pt_clust_9="26.10139"></scales>
<clustering>
<clus scale="   26.101">  1  9  2 -1</clus>
<clus scale="   81.456">  5  6 -1 -1</clus>
<clus scale="   91.486">  7  8 -1 -1</clus>
<clus scale="   94.462">  2  5  1 -1</clus>
<clus scale="   94.462">  2  5  1 -1</clus>
</clustering>
</event>
<event>
 9    2  0.5684583E-005  0.9607548E+02  0.7546771E-02  0.1297200E+00
         -3   -1    0    0    0  501 -0.00000000000E+00  0.00000000000E+00  0.15752835317E+03  0.15752835317E+03  0.00000000000E+00 0.  1.
          4   -1    0    0  502    0  0.00000000000E+00 -0.00000000000E+00 -0.10575357774E+03  0.10575357774E+03  0.00000000000E+00 0. -1.
         23    2    1    2    0    0  0.19056829423E+02 -0.12942579791E+02  0.82372776986E+02  0.12740370410E+03  0.94423282677E+02 0.  0.
         24    2    1    2    0    0 -0.16952704008E+02 -0.73037227469E+01 -0.58784719078E+02  0.10110997757E+03  0.80167610841E+02 0.  0.
        -11    1    4    4    0    0 -0.10922568490E+02  0.26377071674E+02  0.47556970047E+01  0.28942513134E+02  0.00000000000E+00 0.  1.
         12    1    4    4    0    0 -0.60301355174E+01 -0.33680794421E+02 -0.63540416083E+02  0.72167464436E+02  0.00000000000E+00 0. -1.
        -13    1    3    3    0    0  0.56351454693E+02 -0.16249631721E+02  0.59415127256E+02  0.83484695148E+02  0.00000000000E+00 0.  1.
         13    1    3    3    0    0 -0.37294625270E+02  0.33070519305E+01  0.22957649730E+02  0.43919008955E+02  0.00000000000E+00 0. -1.
         21    1    1    2  502  501 -0.21041254154E+01  0.20246302538E+02  0.28186717524E+02  0.34768249237E+02  0.00000000000E+00 0.  1.
<scales pt_clust_5="13000.00000" pt_clust_6="13000.00000" pt_clust_7="13000.00000" pt_clust_8="13000.00000" pt_clust_9="20.35535"></scales>
<clustering>
<clus scale="   20.355">  1  9  2 -1</clus>
<clus scale="   80.168">  5  6 -1 -1</clus>
<clus scale="   82.107">  2  5  1 -1</clus>
<clus scale="   94.423">  7  8 -1 -1</clus>
<clus scale="   82.107">  2  5  1 -1</clus>
</clustering>
</event>
<event>
 9    2  0.5684583E-005  0.1262435E+03  0.7546771E-02  0.1247079E+00
          2   -1    0    0  502    0  0.00000000000E+00  0.00000000000E+00  0.65897314332E+03  0.65897314332E+03  0.00000000000E+00 0. -1.
         -1   -1    0    0    0  501 -0.00000000000E+00 -0.00000000000E+00 -0.78403613725E+02  0.78403613725E+02  0.00000000000E+00 0.  1.
         23    2    1    2    0    0  0.22558336991E+02 -0.60689910352E+02  0.25491399178E+02  0.13610565522E+03  0.11697347633E+03 0.  0.
         24    2    1    2    0    0 -0.49454354754E+02 -0.26039777434E+01  0.51013189247E+03  0.51911468790E+03  0.82419643170E+02 0.  0.
        -11    1    4    4    0    0  0.19528046140E+02  0.91273247454E+01  0.64096014857E+02  0.67623603599E+02  0.00000000000E+00 0.  1.
         12    1    4    4    0    0 -0.68982400894E+02 -0.11731302489E+02  0.44603587761E+03  0.45149108431E+03  0.00000000000E+00 0. -1.
        -13    1    3    3    0    0  0.61336275428E+02 -0.33402134911E+02 -0.17609444523E+02  0.72027313128E+02  0.00000000000E+00 0.  1.
         13    1    3    3    0    0 -0.38777938437E+02 -0.27287775440E+02  0.43100843702E+02  0.64078342096E+02  0.00000000000E+00 0. -1.
         21    1    1    2  502  501  0.26896017763E+02  0.63293888095E+02  0.44946237944E+02  0.82156413913E+02  0.00000000000E+00 0. -1.
<scales pt_clust_5="13000.00000" pt_clust_6="13000.00000" pt_clust_7="13000.00000" pt_clust_8="13000.00000" pt_clust_9="68.77145"></scales>
<clustering>
<clus scale="   68.771">  2  9  1 -1</clus>
<clus scale="   82.420">  5  6 -1 -1</clus>
<clus scale="   95.119">  1  5  2 -1</clus>
<clus scale="  116.973">  7  8 -1 -1</clus>
<clus scale="   95.119">  1  5  2 -1</clus>
</clustering>
</event>
<event>
 9    2  0.5684583E-005  0.1102033E+03  0.7546771E-02  0.1263655E+00
          2   -1    0    0  502    0  0.00000000000E+00  0.00000000000E+00  0.36566324822E+03  0.36566324822E+03  0.00000000000E+00 0. -1.
         -1   -1    0    0    0  501 -0.00000000000E+00 -0.00000000000E+00 -0.14173657457E+03  0.14173657457E+03  0.00000000000E+00 0.  1.
         24    2    1    2    0    0  0.70509059108E+02  0.55277157208E+00 -0.48593139577E+02  0.11861167576E+03  0.82070722184E+02 0.  0.
         23    2    1    2    0    0 -0.57288147551E+02  0.23199687647E+02  0.31762318300E+03  0.33612615138E+03  0.90973325253E+02 0.  0.
        -13    1    3    3    0    0  0.55136843796E+02  0.34263072160E+02 -0.49365897403E+02  0.81553795032E+02  0.00000000000E+00 0.  1.
         14    1    3    3    0    0  0.15372215311E+02 -0.33710300588E+02  0.77275782649E+00  0.37057880727E+02  0.00000000000E+00 0. -1.
        -11    1    4    4    0    0 -0.22206002599E+02  0.56135902938E+02  0.14881648121E+03  0.16059480449E+03  0.00000000000E+00 0.  1.
         11    1    4    4    0    0 -0.35082144953E+02 -0.32936215291E+02  0.16880670179E+03  0.17553134689E+03  0.00000000000E+00 0. -1.
         21    1    1    2  502  501 -0.13220911556E+02 -0.23752459219E+02 -0.45103369770E+02  0.52661995651E+02  0.00000000000E+00 0. -1.
<scales pt_clust_5="13000.00000" pt_clust_6="13000.00000" pt_clust_7="13000.00000" pt_clust_8="13000.00000" pt_clust_9="27.18404"></scales>
<clustering>
<clus scale="   27.184">  2  9  1 -1</clus>
<clus scale="   82.071">  5  6 -1 -1</clus>
<clus scale="   90.973">  7  8 -1 -1</clus>
<clus scale="  102.977">  2  5  1 -1</clus>
<clus scale="  110.203">  1  5  2 -1</clus>
</clustering>
</event>
<event>
 9    2  0.5684583E-005  0.1552456E+03  0.7546771E-02  0.1196369E+00
         -1   -1    0    0    0  501 -0.00000000000E+00  0.00000000000E+00  0.47330391793E+03  0.47330391793E+03  0.00000000000E+00 0.  1.
          2   -1    0    0  502    0  0.00000000000E+00 -0.00000000000E+00 -0.59269500977E+02  0.59269500977E+02  0.00000000000E+00 0. -1.
         24    2    1    2    0    0  0.11418605019E+03 -0.34270584498E+02  0.20481946329E+03  0.25032390194E+03  0.80610894561E+02 0.  0.
         23    2    1    2    0    0 -0.11396297996E+03  0.61002881707E+02  0.15790126759E+03  0.22438968761E+03  0.93322072526E+02 0.  0.
        -11    1    3    3    0    0  0.10045339152E+03 -0.32001303959E+02  0.21039349962E+03  0.23533038903E+03  0.00000000000E+00 0.  1.
         12    1    3    3    0    0  0.13732658674E+02 -0.22692805390E+01 -0.55740363258E+01  0.14993512910E+02  0.00000000000E+00 0. -1.
        -13    1    4    4    0    0 -0.74401155300E+02  0.11773956629E+02  0.13961586209E+03  0.15864030670E+03  0.00000000000E+00 0.  1.
         13    1    4    4    0    0 -0.39561824661E+02  0.49228925077E+02  0.18285405499E+02  0.65749380902E+02  0.00000000000E+00 0. -1.
         21    1    1    2  502  501 -0.22307023191E+00 -0.26732297209E+02  0.51313686079E+02  0.57859829358E+02  0.00000000000E+00 0.  1.
<scales pt_clust_5="13000.00000" pt_clust_6="13000.00000" pt_clust_7="13000.00000" pt_clust_8="13000.00000" pt_clust_9="26.73323"></scales>
<clustering>
<clus scale="   26.733">  1  9  2 -1</clus>
<clus scale="   80.611">  5  6 -1 -1</clus>
<clus scale="   93.322">  7  8 -1 -1</clus>
<clus scale="  147.954">  1  5  2 -1</clus>
<clus scale="  155.246">  2  5  1 -1</clus>
</clustering>
</event>
<event>
 9    2  0.5684583E-005  0.1056500E+03  0.7546771E-02  0.1271305E+00
          2   -1    0    0  502    0  0.00000000000E+00  0.00000000000E+00  0.12100963954E+04  0.12100963954E+04  0.00000000000E+00 0. -1.
         -1   -1    0    0    0  501 -0.00000000000E+00 -0.00000000000E+00 -0.64192414592E+02  0.64192414592E+02  0.00000000000E+00 0.  1.
         23    2    1    2    0    0  0.23414380055E+02  0.52195358669E+02 -0.22411948367E+01  0.10586781576E+03  0.89052696753E+02 0.  0.
         24    2    1    2    0    0 -0.79306155957E+02 -0.17100653212E+02  0.99365772554E+03  0.10004272408E+04  0.83169043672E+02 0.  0.
        -11    1    4    4    0    0 -0.43885824812E+02 -0.27750820732E+02  0.22637491763E+03  0.23225347576E+03  0.00000000000E+00 0.  1.
         12    1    4    4    0    0 -0.35420331145E+02  0.10650167520E+02  0.76728280790E+03  0.76817376500E+03  0.00000000000E+00 0. -1.
        -11    1    3    3    0    0  0.29814068930E+02  0.72864372784E+02  0.12461400131E+02  0.79708105113E+02  0.00000000000E+00 0.  1.
         11    1    3    3    0    0 -0.63996888754E+01 -0.20669014116E+02 -0.14702594967E+02  0.26159710644E+02  0.00000000000E+00 0. -1.
         21    1    1    2  502  501  0.55891775902E+02 -0.35094705457E+02  0.15448745007E+03  0.16799375344E+03  0.00000000000E+00 0.  1.
<scales pt_clust_5="13000.00000" pt_clust_6="13000.00000" pt_clust_7="13000.00000" pt_clust_8="13000.00000" pt_clust_9="65.99643"></scales>
<clustering>
<clus scale="   65.996">  1  9  2 -1</clus>
<clus scale="   83.169">  5  6 -1 -1</clus>
<clus scale="   89.053">  7  8 -1 -1</clus>
<clus scale="  100.740">  1  5  2 -1</clus>
<clus scale="   65.996">  1  5  2 -1</clus>
</clustering>
</event>
<event>
 9    2  0.5684583E-005  0.9413214E+02  0.7546771E-02  0.1299680E+00
         -1   -1    0    0    0  501 -0.00000000000E+00  0.00000000000E+00  0.13280637939E+03  0.13280637939E+03  0.00000000000E+00 0.  1.
          2   -1    0    0  502    0  0.00000000000E+00 -0.00000000000E+00 -0.25816012968E+03  0.25816012968E+03  0.00000000000E+00 0. -1.
         24    2    1    2    0    0 -0.49348642916E+01  0.18744967533E+02  0.43033035559E+02  0.92768525149E+02  0.79865076320E+02 0.  0.
         23    2    1    2    0    0 -0.22423281270E+02 -0.14070032014E+02 -0.22002261965E+03  0.23957561207E+03  0.91026102834E+02 0.  0.
        -11    1    3    3    0    0  0.32518994883E+01  0.19872230225E+02  0.65660691191E+02  0.68679012457E+02  0.00000000000E+00 0.  1.
         12    1    3    3    0    0 -0.81867637800E+01 -0.11272626914E+01 -0.22627655632E+02  0.24089512693E+02  0.00000000000E+00 0. -1.
        -13    1    4    4    0    0 -0.23712593824E+02 -0.51450970298E+02 -0.14681905595E+03  0.15737002460E+03  0.00000000000E+00 0.  1.
         13    1    4    4    0    0  0.12893125539E+01  0.37380938285E+02 -0.73203563692E+02  0.82205587469E+02  0.00000000000E+00 0. -1.
         21    1    1    2  502  501  0.27358145562E+02 -0.46749355195E+01  0.51635833794E+02  0.58622371858E+02  0.00000000000E+00 0.  1.
<scales pt_clust_5="13000.00000" pt_clust_6="13000.00000" pt_clust_7="13000.00000" pt_clust_8="13000.00000" pt_clust_9="27.75470"></scales>
<clustering>
<clus scale="   27.755">  1  9  2 -1</clus>
<clus scale="   79.865">  5  6 -1 -1</clus>
<clus scale="   83.388">  1  5  2 -1</clus>
<clus scale="   91.026">  7  8 -1 -1</clus>
<clus scale="   94.132">  2  5  1 -1</clus>
</clustering>
</event>
<event>
 9    2  0.5684583E-005  0.1565303E+03  0.7546771E-02  0.1196175E+00
         -1   -1    0    0    0  501 -0.00000000000E+00  0.00000000000E+00  0.77587820652E+02  0.77587820652E+02  0.00000000000E+00 0.  1.
          2   -1    0    0  502    0  0.00000000000E+00 -0.00000000000E+00 -0.17352879322E+04  0.17352879322E+04  0.00000000000E+00 0. -1.
         23    2    1    2    0    0  0.10267820700E+03  0.50976534622E+02 -0.43032603315E+02  0.15403203667E+03  0.93448606709E+02 0.  0.
         24    2    1    2    0    0  0.10722932409E+03  0.54964490437E+02 -0.64193304946E+03  0.65809549626E+03  0.80575548735E+02 0.  0.
        -11    1    4    4    0    0  0.33292555129E+02  0.63034434075E+01 -0.55542460728E+02  0.65062220754E+02  0.00000000000E+00 0.  1.
         12    1    4    4    0    0  0.73936768962E+02  0.48661047029E+02 -0.58639058873E+03  0.59303327551E+03  0.00000000000E+00 0. -1.
        -13    1    3    3    0    0  0.79030698499E+02 -0.12343119266E+02 -0.18280067916E+02  0.82050988912E+02  0.00000000000E+00 0. -1.
         13    1    3    3    0    0  0.23647508504E+02  0.63319653888E+02 -0.24752535400E+02  0.71981047753E+02  0.00000000000E+00 0.  1.
         21    1    1    2  502  501 -0.20990753109E+03 -0.10594102506E+03 -0.97273445874E+03  0.10007482199E+04  0.00000000000E+00 0.  1.
<scales pt_clust_5="13000.00000" pt_clust_6="13000.00000" pt_clust_7="13000.00000" pt_clust_8="13000.00000" pt_clust_9="125.57506"></scales>
<clustering>
<clus scale="   80.576">  5  6 -1 -1</clus>
<clus scale="   93.449">  7  8 -1 -1</clus>
<clus scale="  144.954">  2  5  1 -1</clus>
<clus scale="  125.575">  2  9  1 -1</clus>
<clus scale="  144.954">  2  5  1 -1</clus>
</clustering>
</event>
<event>
 9    2  0.5684583E-005  0.9747860E+02  0.7546771E-02  0.1299711E+00
         -1   -1    0    0    0  501 -0.00000000000E+00  0.00000000000E+00  0.21344551358E+03  0.21344551358E+03  0.00000000000E+00 0.  1.
          2   -1    0    0  502    0  0.00000000000E+00 -0.00000000000E+00 -0.78586445965E+02  0.78586445965E+02  0.00000000000E+00 0. -1.
         23    2    1    2    0    0  0.22314399059E+02  0.18415283701E+02  0.13970743310E+03  0.16914189286E+03  0.90850195259E+02 0.  0.
         24    2    1    2    0    0 -0.37313025696E+02  0.67673318133E+00 -0.35418471248E+02  0.83851684596E+02  0.66211155025E+02 0.  0.
        -13    1    4    4    0    0 -0.10330556314E+02 -0.25565656636E+02  0.56470480482E+01  0.28146266975E+02  0.00000000000E+00 0.  1.
         14    1    4    4    0    0 -0.26982469382E+02  0.26242389817E+02 -0.41065519296E+02  0.55705417621E+02  0.00000000000E+00 0. -1.
        -13    1    3    3    0    0  0.32229513537E+01  0.53889711553E+02  0.92306345225E+02  0.10693432468E+03  0.00000000000E+00 0. -1.
         13    1    3    3    0    0  0.19091447706E+02 -0.35474427853E+02  0.47401087875E+02  0.62207568178E+02  0.00000000000E+00 0.  1.
         21    1    1    2  502  501  0.14998626637E+02 -0.19092016882E+02  0.30570105765E+02  0.39038382088E+02  0.00000000000E+00 0.  1.
<scales pt_clust_5="13000.00000" pt_clust_6="13000.00000" pt_clust_7="13000.00000" pt_clust_8="13000.00000" pt_clust_9="24.27888"></scales>
<clustering>
<clus scale="   24.279">  1  9  2 -1</clus>
<clus scale="   66.211">  5  6 -1 -1</clus>
<clus scale="   75.048">  2  5  1 -1</clus>
<clus scale="   90.850">  7  8 -1 -1</clus>
<clus scale="   75.048">  2  5  1 -1</clus>
</clustering>
</event>
<event>
 9    2  0.5684583E-005  0.9182768E+02  0.7546771E-02  0.1304577E+00
         -1   -1    0    0    0  501 -0.00000000000E+00  0.00000000000E+00  0.22005904300E+03  0.22005904300E+03  0.00000000000E+00 0.  1.
          2   -1    0    0  502    0  0.00000000000E+00 -0.00000000000E+00 -0.67290503496E+03  0.67290503496E+03  0.00000000000E+00 0. -1.
         23    2    1    2    0    0 -0.98822823358E+01  0.18899065911E+02  0.18205756735E+03  0.20418372031E+03  0.89951095680E+02 0.  0.
         24    2    1    2    0    0 -0.12076561414E+02  0.14672023764E+02 -0.64268086333E+03  0.64791845194E+03  0.79990728559E+02 0.  0.
        -11    1    4    4    0    0  0.25127323672E+02 -0.15463504023E+02 -0.14706405655E+03  0.14999446350E+03  0.00000000000E+00 0.  1.
         12    1    4    4    0    0 -0.37203885086E+02  0.30135527787E+02 -0.49561680678E+03  0.49792398844E+03  0.00000000000E+00 0. -1.
        -11    1    3    3    0    0 -0.21940949148E+01  0.49791754900E+02  0.59785692325E+02  0.77835479797E+02  0.00000000000E+00 0. -1.
         11    1    3    3    0    0 -0.76881874210E+01 -0.30892688988E+02  0.12227187503E+03  0.12634824051E+03  0.00000000000E+00 0.  1.
         21    1    1    2  502  501  0.21958843750E+02 -0.33571089675E+02  0.77773040110E+01  0.40861905713E+02  0.00000000000E+00 0. -1.
<scales pt_clust_5="13000.00000" pt_clust_6="13000.00000" pt_clust_7="13000.00000" pt_clust_8="13000.00000" pt_clust_9="40.11495"></scales>
<clustering>
<clus scale="   40.115">  1  9  2 -1</clus>
<clus scale="   79.991">  5  6 -1 -1</clus>
<clus scale="   82.095">  2  5  1 -1</clus>
<clus scale="   89.951">  7  8 -1 -1</clus>
<clus scale="   82.095">  2  5  1 -1</clus>
</clustering>
</event>
<event>
 9    2  0.5684583E-005  0.1694398E+03  0.7546771E-02  0.1179860E+00
         -1   -1    0    0    0  501 -0.00000000000E+00  0.00000000000E+00  0.20188104512E+03  0.20188104512E+03  0.00000000000E+00 0.  1.
          2   -1    0    0  502    0  0.00000000000E+00 -0.00000000000E+00 -0.19375704295E+03  0.19375704295E+03  0.00000000000E+00 0. -1.
         24    2    1    2    0    0 -0.79465858049E+02  0.10057382575E+03  0.45183599165E+02  0.15825240148E+03  0.81070018613E+02 0.  0.
         23    2    1    2    0    0  0.97154239245E+02 -0.11552813518E+03 -0.75944680788E+02  0.19212466648E+03  0.91425361400E+02 0.  0.
        -11    1    3    3    0    0 -0.39417422717E+01  0.47055867026E+02  0.45662161464E+02  0.65687327113E+02  0.00000000000E+00 0.  1.
         12    1    3    3    0    0 -0.75524115777E+02  0.53517958723E+02 -0.47856229859E+00  0.92565074363E+02  0.00000000000E+00 0. -1.
        -11    1    4    4    0    0  0.15801024556E+02 -0.13026015687E+02  0.20949029064E+02  0.29295243307E+02  0.00000000000E+00 0.  1.
         11    1    4    4    0    0  0.81353214689E+02 -0.10250211949E+03 -0.96893709851E+02  0.16282942317E+03  0.00000000000E+00 0. -1.
         21    1    1    2  502  501 -0.17688381196E+02  0.14954309431E+02  0.38885083800E+02  0.45261020117E+02  0.00000000000E+00 0. -1.
<scales pt_clust_5="13000.00000" pt_clust_6="13000.00000" pt_clust_7="13000.00000" pt_clust_8="13000.00000" pt_clust_9="23.16269"></scales>
<clustering>
<clus scale="   23.163">  1  9  2 -1</clus>
<clus scale="   81.070">  5  6 -1 -1</clus>
<clus scale="   91.425">  7  8 -1 -1</clus>
<clus scale="  164.084">  1  5  2 -1</clus>
<clus scale="  169.440">  2  5  1 -1</clus>
</clustering>
</event>
<event>
 9    2  0.5684583E-005  0.1244839E+03  0.7546771E-02  0.1238842E+00
          2   -1    0    0  502    0  0.00000000000E+00  0.00000000000E+00  0.90417488093E+03  0.90417488093E+03  0.00000000000E+00 0. -1.
         -1   -1    0    0    0  501 -0.00000000000E+00 -0.00000000000E+00 -0.21778069837E+02  0.21778069837E+02  0.00000000000E+00 0.  1.
         24    2    1    2    0    0 -0.62993319110E+02 -0.49572858135E+02  0.28204185892E+03  0.30400158554E+03  0.80272830473E+02 0.  0.
         23    2    1    2    0    0  0.56341314778E+02  0.78590764476E+02  0.50142575442E+03  0.51863982561E+03  0.90601487291E+02 0.  0.
        -11    1    3    3    0    0 -0.20108115325E+02 -0.40065165614E+02  0.47232533466E+02  0.65118860672E+02  0.00000000000E+00 0.  1.
         12    1    3    3    0    0 -0.42885203785E+02 -0.95076925213E+01  0.23480932545E+03  0.23888272487E+03  0.00000000000E+00 0. -1.
        -13    1    4    4    0    0  0.62704612372E+02  0.48147321119E+02  0.46050270861E+03  0.46723952913E+03  0.00000000000E+00 0.  1.
         13    1    4    4    0    0 -0.63632975940E+01  0.30443443357E+02  0.40923045807E+02  0.51400296476E+02  0.00000000000E+00 0. -1.
         21    1    1    2  502  501  0.66520043318E+01 -0.29017906341E+02  0.98929197759E+02  0.10331153962E+03  0.00000000000E+00 0.  1.
<scales pt_clust_5="13000.00000" pt_clust_6="13000.00000" pt_clust_7="13000.00000" pt_clust_8="13000.00000" pt_clust_9="29.77059"></scales>
<clustering>
<clus scale="   29.771">  1  9  2 -1</clus>
<clus scale="   80.273">  5  6 -1 -1</clus>
<clus scale="   90.601">  7  8 -1 -1</clus>
<clus scale="  117.181">  2  5  1 -1</clus>
<clus scale="   29.771">  1  5  2 -1</clus>
</clustering>
</event>
<event>
 9    2  0.5684583E-005  0.9563787E+02  0.7546771E-02  0.1298323E+00
          2   -1    0    0  502    0  0.00000000000E+00  0.00000000000E+00  0.94688218264E+03  0.94688218264E+03  0.00000000000E+00 0. -1.
         -1   -1    0    0    0  501 -0.00000000000E+00 -0.00000000000E+00 -0.49538887185E+02  0.49538887185E+02  0.00000000000E+00 0.  1.
         23    2    1    2    0    0  0.34705447754E+02  0.25403284708E+02  0.29130116796E+03  0.30774562735E+03  0.89449459016E+02 0.  0.
         24    2    1    2    0    0 -0.24434210670E+01 -0.34442297648E+02  0.63749343030E+03  0.64272191630E+03  0.74171057967E+02 0.  0.
        -11    1    4    4    0    0 -0.20000882526E+02  0.89862263929E+01  0.71334393496E+02  0.74628300678E+02  0.00000000000E+00 0.  1.
         12    1    4    4    0    0  0.17557461459E+02 -0.43428524040E+02  0.56615903681E+03  0.56809361562E+03  0.00000000000E+00 0. -1.
        -13    1    3    3    0    0  0.51596808610E+02  0.44009462924E+02  0.15558640619E+03  0.16972387362E+03  0.00000000000E+00 0.  1.
         13    1    3    3    0    0 -0.16891360856E+02 -0.18606178216E+02  0.13571476177E+03  0.13802175372E+03  0.00000000000E+00 0. -1.
         21    1    1    2  502  501 -0.32262026687E+02  0.90390129392E+01 -0.31451302801E+02  0.45953526184E+02  0.00000000000E+00 0.  1.
<scales pt_clust_5="13000.00000" pt_clust_6="13000.00000" pt_clust_7="13000.00000" pt_clust_8="13000.00000" pt_clust_9="33.50436"></scales>
<clustering>
<clus scale="   33.504">  2  9  1 -1</clus>
<clus scale="   74.171">  5  6 -1 -1</clus>
<clus scale="   81.528">  1  5  2 -1</clus>
<clus scale="   89.449">  7  8 -1 -1</clus>
<clus scale="   81.528">  1  5  2 -1</clus>
</clustering>
</event>
<event>
 9    2  0.5684583E-005  0.1019022E+03  0.7546771E-02  0.1279664E+00
          2   -1    0    0  502    0  0.00000000000E+00  0.00000000000E+00  0.54379445430E+03  0.54379445430E+03  0.00000000000E+00 0. -1.
         -1   -1    0    0    0  501 -0.00000000000E+00 -0.00000000000E+00 -0.79443413622E+02  0.79443413622E+02  0.00000000000E+00 0.  1.
         23    2    1    2    0    0  0.10418198484E+02  0.54123577130E+02  0.64848523389E+02  0.12251246037E+03  0.88125317021E+02 0.  0.
         24    2    1    2    0    0 -0.33771862957E+02 -0.38985290232E+02  0.44070075629E+03  0.45100764140E+03  0.80810546500E+02 0.  0.
        -11    1    4    4    0    0  0.26346762891E+02 -0.64578914607E+01  0.10768565175E+03  0.11104979005E+03  0.00000000000E+00 0.  1.
         12    1    4    4    0    0 -0.60118625848E+02 -0.32527398772E+02  0.33301510454E+03  0.33995785135E+03  0.00000000000E+00 0. -1.
        -13    1    3    3    0    0  0.41758738852E+02  0.58462611332E+00  0.29245991032E+02  0.50984919826E+02  0.00000000000E+00 0. -1.
         13    1    3    3    0    0 -0.31340540368E+02  0.53538951017E+02  0.35602532356E+02  0.71527540547E+02  0.00000000000E+00 0.  1.
         21    1    1    2  502  501  0.23353664473E+02 -0.15138286898E+02 -0.41198238998E+02  0.49717766151E+02  0.00000000000E+00 0. -1.
<scales pt_clust_5="13000.00000" pt_clust_6="13000.00000" pt_clust_7="13000.00000" pt_clust_8="13000.00000" pt_clust_9="27.83094"></scales>
<clustering>
<clus scale="   27.831">  2  9  1 -1</clus>
<clus scale="   80.811">  5  6 -1 -1</clus>
<clus scale="   88.125">  7  8 -1 -1</clus>
<clus scale="   95.647">  1  5  2 -1</clus>
<clus scale="   95.647">  1  5  2 -1</clus>
</clustering>
</event>
<event>
 9    2  0.5684583E-005  0.1125084E+03  0.7546771E-02  0.1258481E+00
          2   -1    0    0  502    0  0.00000000000E+00  0.00000000000E+00  0.21724816934E+03  0.21724816934E+03  0.00000000000E+00 0. -1.
         -1   -1    0    0    0  501 -0.00000000000E+00 -0.00000000000E+00 -0.13952207220E+03  0.13952207220E+03  0.00000000000E+00 0.  1.
         23    2    1    2    0    0  0.52545312538E+02 -0.10830063712E+02 -0.36366203292E+02  0.11141740224E+03  0.90625805538E+02 0.  0.
         24    2    1    2    0    0 -0.43562870003E+02 -0.47364032112E+02  0.13912704051E+03  0.18136865944E+03  0.96939063552E+02 0.  0.
        -13    1    4    4    0    0 -0.13845347458E+02  0.14535970697E+02 -0.58869229371E+01  0.20919941491E+02  0.00000000000E+00 0.  1.
         14    1    4    4    0    0 -0.29717522545E+02 -0.61900002809E+02  0.14501396345E+03  0.16044871794E+03  0.00000000000E+00 0. -1.
        -11    1    3    3    0    0 -0.25904912894E+02 -0.66668302538E+01 -0.97453686550E+01  0.28468989232E+02  0.00000000000E+00 0. -1.
         11    1    3    3    0    0  0.78450225431E+02 -0.41632334579E+01 -0.26620834637E+02  0.82948413004E+02  0.00000000000E+00 0.  1.
         21    1    1    2  502  501 -0.89824425346E+01  0.58194095824E+02 -0.25034740078E+02  0.63984179868E+02  0.00000000000E+00 0. -1.
<scales pt_clust_5="13000.00000" pt_clust_6="13000.00000" pt_clust_7="13000.00000" pt_clust_8="13000.00000" pt_clust_9="58.88325"></scales>
<clustering>
<clus scale="   58.883">  2  9  1 -1</clus>
<clus scale="   90.626">  7  8 -1 -1</clus>
<clus scale="   96.939">  5  6 -1 -1</clus>
<clus scale="  107.117">  2  7  1 -1</clus>
<clus scale="  112.508">  1  5  2 -1</clus>
</clustering>
</event>
<event>
 9    2  0.5684583E-005  0.3609084E+03  0.7546771E-02  0.1058345E+00
          2   -1    0    0  502    0  0.00000000000E+00  0.00000000000E+00  0.55552539329E+03  0.55552539329E+03  0.00000000000E+00 0. -1.
         -1   -1    0    0    0  501 -0.00000000000E+00 -0.00000000000E+00 -0.61675264966E+03  0.61675264966E+03  0.00000000000E+00 0.  1.
         23    2    1    2    0    0 -0.33741637759E+03 -0.23429191859E+03 -0.83879794744E+01  0.42070221668E+03  0.90429430694E+02 0.  0.
         24    2    1    2    0    0  0.19434162546E+03  0.26737345135E+03  0.24451350183E+03  0.41993830196E+03  0.85463998276E+02 0.  0.
        -13    1    4    4    0    0 -0.41868707127E+01  0.30644702931E+02  0.11636924770E+02  0.33046115085E+02  0.00000000000E+00 0.  1.
         14    1    4    4    0    0  0.19852849617E+03  0.23672874842E+03  0.23287657706E+03  0.38689218688E+03  0.00000000000E+00 0. -1.
        -11    1    3    3    0    0 -0.79896061615E+02 -0.77566534237E+02 -0.38304631232E+02  0.11775904496E+03  0.00000000000E+00 0.  1.
         11    1    3    3    0    0 -0.25752031598E+03 -0.15672538435E+03  0.29916651758E+02  0.30294317172E+03  0.00000000000E+00 0. -1.
         21    1    1    2  502  501  0.14307475213E+03 -0.33081532764E+02 -0.29735277873E+03  0.33163752430E+03  0.00000000000E+00 0.  1.
<scales pt_clust_5="13000.00000" pt_clust_6="13000.00000" pt_clust_7="13000.00000" pt_clust_8="13000.00000" pt_clust_9="146.84949"></scales>
<clustering>
<clus scale="   85.464">  5  6 -1 -1</clus>
<clus scale="   90.429">  7  8 -1 -1</clus>
<clus scale="  146.849">  2  9  1 -1</clus>
<clus scale="  359.696">  1  5  2 -1</clus>
<clus scale="  359.696">  1  5  2 -1</clus>
</clustering>
</event>
<event>
 9    2  0.5684583E-005  0.1370580E+03  0.7546771E-02  0.1240302E+00
          2   -1    0    0  502    0  0.00000000000E+00  0.00000000000E+00  0.50583164709E+03  0.50583164709E+03  0.00000000000E+00 0. -1.
         -1   -1    0    0    0  501 -0.00000000000E+00 -0.00000000000E+00 -0.11858440056E+03  0.11858440056E+03  0.00000000000E+00 0.  1.
         24    2    1    2    0    0  0.18666954141E+02  0.23818837347E+02 -0.54158536162E+02  0.10098250634E+03  0.79677646538E+02 0.  0.
         23    2    1    2    0    0 -0.72113428455E+00 -0.11296734649E+03  0.39778905687E+03  0.42257756526E+03  0.87025993164E+02 0.  0.
        -13    1    3    3    0    0  0.37451608524E+02  0.20830464884E+02  0.76188780308E+00  0.42861541285E+02  0.00000000000E+00 0.  1.
         14    1    3    3    0    0 -0.18784654383E+02  0.29883724631E+01 -0.54920423965E+02  0.58120965054E+02  0.00000000000E+00 0. -1.
        -11    1    4    4    0    0 -0.28146134682E+02 -0.11110609259E+03  0.30600409063E+03  0.32676485764E+03  0.00000000000E+00 0. -1.
         11    1    4    4    0    0  0.27425000397E+02 -0.18612539011E+01  0.91784966245E+02  0.95812707620E+02  0.00000000000E+00 0.  1.
         21    1    1    2  502  501 -0.17945819856E+02  0.89148509145E+02  0.43616725822E+02  0.10085597605E+03  0.00000000000E+00 0.  1.
<scales pt_clust_5="13000.00000" pt_clust_6="13000.00000" pt_clust_7="13000.00000" pt_clust_8="13000.00000" pt_clust_9="105.88374"></scales>
<clustering>
<clus scale="   79.678">  5  6 -1 -1</clus>
<clus scale="   85.231">  2  5  1 -1</clus>
<clus scale="   87.026">  7  8 -1 -1</clus>
<clus scale="  105.884">  2  9  1 -1</clus>
<clus scale="  137.058">  1  5  2 -1</clus>
</clustering>
</event>
<event>
 9    2  0.5684583E-005  0.8719184E+02  0.7546771E-02  0.1313113E+00
         -1   -1    0    0    0  501 -0.00000000000E+00  0.00000000000E+00  0.17003601347E+03  0.17003601347E+03  0.00000000000E+00 0.  1.
          2   -1    0    0  502    0  0.00000000000E+00 -0.00000000000E+00 -0.17536843179E+03  0.17536843179E+03  0.00000000000E+00 0. -1.
         23    2    1    2    0    0  0.44493173534E+02 -0.29271314229E+02 -0.35425624680E+02  0.10641872173E+03  0.85050085967E+02 0.  0.
         24    2    1    2    0    0 -0.32970069929E+00  0.55946825491E+01 -0.82993451378E+02  0.11529422270E+03  0.79833800113E+02 0.  0.
        -13    1    4    4    0    0 -0.14933711406E+02 -0.20446292606E+02  0.18145494615E+01  0.25384231473E+02  0.00000000000E+00 0.  1.
         14    1    4    4    0    0  0.14604010707E+02  0.26040975155E+02 -0.84808000839E+02  0.89909991225E+02  0.00000000000E+00 0. -1.
        -13    1    3    3    0    0  0.59561149276E+02 -0.13006345880E+02  0.40964670449E+01  0.61102181454E+02  0.00000000000E+00 0. -1.
         13    1    3    3    0    0 -0.15067975741E+02 -0.16264968349E+02 -0.39522091725E+02  0.45316540277E+02  0.00000000000E+00 0.  1.
         21    1    1    2  502  501 -0.44163472835E+02  0.23676631680E+02  0.11308665773E+03  0.12369150083E+03  0.00000000000E+00 0.  1.
<scales pt_clust_5="13000.00000" pt_clust_6="13000.00000" pt_clust_7="13000.00000" pt_clust_8="13000.00000" pt_clust_9="50.10983"></scales>
<clustering>
<clus scale="   50.110">  1  9  2 -1</clus>
<clus scale="   79.834">  5  6 -1 -1</clus>
<clus scale="   82.112">  2  5  1 -1</clus>
<clus scale="   85.050">  7  8 -1 -1</clus>
<clus scale="   82.112">  2  5  1 -1</clus>
</clustering>
</event>
<event>
 9    2  0.5684583E-005  0.9159837E+02  0.7546771E-02  0.1306335E+00
          2   -1    0    0  502    0  0.00000000000E+00  0.00000000000E+00  0.56233559843E+03  0.56233559843E+03  0.00000000000E+00 0. -1.
         -1   -1    0    0    0  501 -0.00000000000E+00 -0.00000000000E+00 -0.35155480245E+02  0.35155480245E+02  0.00000000000E+00 0.  1.
         23    2    1    2    0    0  0.34464469715E+02 -0.24104665433E+02  0.93164656816E+02  0.13590497195E+03  0.89563796001E+02 0.  0.
         24    2    1    2    0    0 -0.13323099897E+02  0.75511686867E+01  0.42636170038E+03  0.43366557969E+03  0.77762525165E+02 0.  0.
        -11    1    4    4    0    0 -0.12720006447E+02 -0.27994447526E+02  0.83784613938E+02  0.89248804973E+02  0.00000000000E+00 0.  1.
         12    1    4    4    0    0 -0.60309345043E+00  0.35545616213E+02  0.34257708644E+03  0.34441677472E+03  0.00000000000E+00 0. -1.
        -11    1    3    3    0    0  0.11261738913E+02 -0.51200600353E+02  0.23113248968E+02  0.57293546912E+02  0.00000000000E+00 0.  1.
         11    1    3    3    0    0  0.23202730801E+02  0.27095934920E+02  0.70051407848E+02  0.78611425043E+02  0.00000000000E+00 0. -1.
         21    1    1    2  502  501 -0.21141369817E+02  0.16553496747E+02  0.76537609906E+01  0.27920527029E+02  0.00000000000E+00 0.  1.
<scales pt_clust_5="13000.00000" pt_clust_6="13000.00000" pt_clust_7="13000.00000" pt_clust_8="13000.00000" pt_clust_9="26.85099"></scales>
<clustering>
<clus scale="   26.851">  2  9  1 -1</clus>
<clus scale="   77.763">  5  6 -1 -1</clus>
<clus scale="   80.097">  1  5  2 -1</clus>
<clus scale="   89.564">  7  8 -1 -1</clus>
<clus scale="   80.097">  1  5  2 -1</clus>
</clustering>
</event>
<event>
 9    2  0.5684583E-005  0.1074008E+03  0.7546771E-02  0.1271048E+00
         -1   -1    0    0    0  501 -0.00000000000E+00  0.00000000000E+00  0.32901550640E+03  0.32901550640E+03  0.00000000000E+00 0.  1.
          2   -1    0    0  502    0  0.00000000000E+00 -0.00000000000E+00 -0.97289031633E+03  0.97289031633E+03  0.00000000000E+00 0. -1.
         23    2    1    2    0    0 -0.10449866452E+03 -0.36576887697E+02 -0.72249036694E+02  0.16325976035E+03  0.95791369382E+02 0.  0.
         24    2    1    2    0    0  0.45248950808E+02  0.71922284867E+00 -0.84822941434E+03  0.85350421176E+03  0.83236502295E+02 0.  0.
        -13    1    4    4    0    0  0.22690402105E+02  0.37331276494E+02 -0.25473726086E+03  0.25845609031E+03  0.00000000000E+00 0.  1.
         14    1    4    4    0    0  0.22558548703E+02 -0.36612053645E+02 -0.59349215348E+03  0.59504812145E+03  0.00000000000E+00 0. -1.
        -11    1    3    3    0    0 -0.74540485850E+02 -0.64555586612E+02 -0.72289858932E+02  0.12226827674E+03  0.00000000000E+00 0.  1.
         11    1    3    3    0    0 -0.29958178666E+02  0.27978698915E+02  0.40822238105E-01  0.40991483609E+02  0.00000000000E+00 0. -1.
         21    1    1    2  502  501  0.59249713709E+02  0.35857664849E+02  0.27660364110E+03  0.28514185061E+03  0.00000000000E+00 0.  1.
<scales pt_clust_5="13000.00000" pt_clust_6="13000.00000" pt_clust_7="13000.00000" pt_clust_8="13000.00000" pt_clust_9="69.25533"></scales>
<clustering>
<clus scale="   69.255">  1  9  2 -1</clus>
<clus scale="   83.237">  5  6 -1 -1</clus>
<clus scale="   95.791">  7  8 -1 -1</clus>
<clus scale="   96.370">  2  5  1 -1</clus>
<clus scale="   96.370">  2  5  1 -1</clus>
</clustering>
</event>
<event>
 9    2  0.5684583E-005  0.1305022E+03  0.7546771E-02  0.1229423E+00
          2   -1    0    0  502    0  0.00000000000E+00  0.00000000000E+00  0.41825177237E+03  0.41825177237E+03  0.00000000000E+00 0. -1.
         -1   -1    0    0    0  501 -0.00000000000E+00 -0.00000000000E+00 -0.64202428990E+03  0.64202428990E+03  0.00000000000E+00 0.  1.
         23    2    1    2    0    0  0.12610219699E+03 -0.74579400845E+02 -0.56659512328E+03  0.59262210860E+03  0.93311728908E+02 0.  0.
         24    2    1    2    0    0 -0.77676207965E+02  0.46078141548E+02  0.38063693621E+03  0.39992418339E+03  0.83054721976E+02 0.  0.
        -11    1    4    4    0    0 -0.38693638229E+02  0.19648329141E+01  0.45970322268E+02  0.60119287564E+02  0.00000000000E+00 0.  1.
         12    1    4    4    0    0 -0.38982569737E+02  0.44113308634E+02  0.33466661394E+03  0.33980489583E+03  0.00000000000E+00 0. -1.
        -11    1    3    3    0    0  0.12354572063E+03 -0.47010052949E+02 -0.53269991942E+03  0.54885580467E+03  0.00000000000E+00 0.  1.
         11    1    3    3    0    0  0.25564763586E+01 -0.27569347896E+02 -0.33895203862E+02  0.43766303929E+02  0.00000000000E+00 0. -1.
         21    1    1    2  502  501 -0.48425989022E+02  0.28501259297E+02 -0.37814330450E+02  0.67729770277E+02  0.00000000000E+00 0. -1.
<scales pt_clust_5="13000.00000" pt_clust_6="13000.00000" pt_clust_7="13000.00000" pt_clust_8="13000.00000" pt_clust_9="56.19073"></scales>
<clustering>
<clus scale="   56.191">  2  9  1 -1</clus>
<clus scale="   83.055">  5  6 -1 -1</clus>
<clus scale="   93.312">  7  8 -1 -1</clus>
<clus scale="  123.377">  1  5  2 -1</clus>
<clus scale="  123.377">  1  5  2 -1</clus>
</clustering>
</event>
<event>
 9    2  0.5684583E-005  0.1093787E+03  0.7546771E-02  0.1266795E+00
          2   -1    0    0  502    0  0.00000000000E+00  0.00000000000E+00  0.17170649254E+02  0.17170649254E+02  0.00000000000E+00 0. -1.
         -1   -1    0    0    0  501 -0.00000000000E+00 -0.00000000000E+00 -0.94811557518E+03  0.94811557518E+03  0.00000000000E+00 0.  1.
         23    2    1    2    0    0  0.53890142686E+02 -0.57869080271E+01 -0.52123029798E+03  0.53227282861E+03  0.93250762823E+02 0.  0.
         24    2    1    2    0    0 -0.55963384007E+02 -0.23998959860E+02 -0.23687392727E+03  0.25761270008E+03  0.80914741537E+02 0.  0.
        -13    1    4    4    0    0 -0.48038329448E+02 -0.18455467773E+02 -0.24147848580E+03  0.24690108240E+03  0.00000000000E+00 0.  1.
         14    1    4    4    0    0 -0.79250545585E+01 -0.55434920875E+01  0.46045585210E+01  0.10711617686E+02  0.00000000000E+00 0. -1.
        -11    1    3    3    0    0  0.34108105559E+02  0.43066270607E+02 -0.28277269223E+03  0.28805982365E+03  0.00000000000E+00 0.  1.
         11    1    3    3    0    0  0.19782037127E+02 -0.48853178634E+02 -0.23845760575E+03  0.24421300496E+03  0.00000000000E+00 0. -1.
         21    1    1    2  502  501  0.20732413207E+01  0.29785867888E+02 -0.17284070068E+03  0.17540069574E+03  0.00000000000E+00 0.  1.
<scales pt_clust_5="13000.00000" pt_clust_6="13000.00000" pt_clust_7="13000.00000" pt_clust_8="13000.00000" pt_clust_9="29.85793"></scales>
<clustering>
<clus scale="   29.858">  2  9  1 -1</clus>
<clus scale="   80.915">  5  6 -1 -1</clus>
<clus scale="   93.251">  7  8 -1 -1</clus>
<clus scale="   99.072">  1  5  2 -1</clus>
<clus scale="   99.072">  1  5  2 -1</clus>
</clustering>
</event>
<event>
 9    2  0.5684583E-005  0.9618184E+02  0.7546771E-02  0.1292953E+00
         -1   -1    0    0    0  501 -0.00000000000E+00  0.00000000000E+00  0.95244091634E+02  0.95244091634E+02  0.00000000000E+00 0.  1.
          2   -1    0    0  502    0  0.00000000000E+00 -0.00000000000E+00 -0.50403995486E+03  0.50403995486E+03  0.00000000000E+00 0. -1.
         23    2    1    2    0    0 -0.53628229471E+01 -0.38284411766E+02  0.56741364136E+02  0.11364846956E+03  0.90564541487E+02 0.  0.
         24    2    1    2    0    0  0.22542633277E+02  0.23309248755E+02 -0.44855102735E+03  0.45721142557E+03  0.82418275511E+02 0.  0.
        -13    1    4    4    0    0 -0.15035971822E+02 -0.18946724693E+02 -0.62088268535E+02  0.66633414402E+02  0.00000000000E+00 0.  1.
         14    1    4    4    0    0  0.37578605099E+02  0.42255973448E+02 -0.38646275882E+03  0.39057801116E+03  0.00000000000E+00 0. -1.
        -13    1    3    3    0    0  0.25912088824E+02 -0.51507700978E+01  0.62374575351E+02  0.67738869418E+02  0.00000000000E+00 0.  1.
         13    1    3    3    0    0 -0.31274911771E+02 -0.33133641668E+02 -0.56332112150E+01  0.45909600141E+02  0.00000000000E+00 0. -1.
         21    1    1    2  502  501 -0.17179810330E+02  0.14975163012E+02 -0.16986200008E+02  0.28424151366E+02  0.00000000000E+00 0. -1.
<scales pt_clust_5="13000.00000" pt_clust_6="13000.00000" pt_clust_7="13000.00000" pt_clust_8="13000.00000" pt_clust_9="22.79038"></scales>
<clustering>
<clus scale="   22.790">  1  9  2 -1</clus>
<clus scale="   82.418">  5  6 -1 -1</clus>
<clus scale="   88.554">  2  5  1 -1</clus>
<clus scale="   90.565">  7  8 -1 -1</clus>
<clus scale="   88.554">  2  5  1 -1</clus>
</clustering>
</event>
<event>
 9    2  0.5684583E-005  0.9969104E+02  0.7546771E-02  0.1288941E+00
          2   -1    0    0  502    0  0.00000000000E+00  0.00000000000E+00  0.12893253324E+04  0.12893253324E+04  0.00000000000E+00 0. -1.
         -1   -1    0    0    0  501 -0.00000000000E+00 -0.00000000000E+00 -0.56213022650E+02  0.56213022650E+02  0.00000000000E+00 0.  1.
         23    2    1    2    0    0  0.43765404746E+02  0.28716324579E+02  0.41981140408E+02  0.11647022158E+03  0.95199046289E+02 0.  0.
         24    2    1    2    0    0 -0.14660256866E+02 -0.24861201024E+02  0.11962208389E+04  0.11992708795E+04  0.80457096767E+02 0.  0.
        -11    1    4    4    0    0  0.14527750572E+02  0.14790501917E+02  0.11011851756E+03  0.11205312308E+03  0.00000000000E+00 0.  1.
         12    1    4    4    0    0 -0.29188007438E+02 -0.39651702940E+02  0.10861023214E+04  0.10872177564E+04  0.00000000000E+00 0. -1.
        -13    1    3    3    0    0  0.13738543233E+02 -0.32587856730E+02  0.31592249185E+02  0.47421368443E+02  0.00000000000E+00 0. -1.
         13    1    3    3    0    0  0.30026861513E+02  0.61304181309E+02  0.10388891223E+02  0.69048853134E+02  0.00000000000E+00 0.  1.
         21    1    1    2  502  501 -0.29105147880E+02 -0.38551235548E+01 -0.50896695675E+01  0.29797254019E+02  0.00000000000E+00 0. -1.
<scales pt_clust_5="13000.00000" pt_clust_6="13000.00000" pt_clust_7="13000.00000" pt_clust_8="13000.00000" pt_clust_9="29.35935"></scales>
<clustering>
<clus scale="   29.359">  2  9  1 -1</clus>
<clus scale="   80.457">  5  6 -1 -1</clus>
<clus scale="   85.725">  1  5  2 -1</clus>
<clus scale="   95.199">  7  8 -1 -1</clus>
<clus scale="   85.725">  1  5  2 -1</clus>
</clustering>
</event>
<event>
 9    2  0.5684583E-005  0.8798827E+02  0.7546771E-02  0.1311403E+00
          2   -1    0    0  502    0  0.00000000000E+00  0.00000000000E+00  0.82022134681E+03  0.82022134681E+03  0.00000000000E+00 0. -1.
         -1   -1    0    0    0  501 -0.00000000000E+00 -0.00000000000E+00 -0.29982110322E+02  0.29982110322E+02  0.00000000000E+00 0.  1.
         23    2    1    2    0    0 -0.20749244465E+02  0.13800882119E+02  0.59886274980E+02  0.10772278538E+03  0.86004866520E+02 0.  0.
         24    2    1    2    0    0 -0.22380810538E+02  0.61819856865E+01  0.53108406084E+03  0.53762069172E+03  0.80290789329E+02 0.  0.
        -13    1    4    4    0    0 -0.14799155665E+02 -0.28981028197E+02  0.10277058133E+03  0.10779938493E+03  0.00000000000E+00 0.  1.
         14    1    4    4    0    0 -0.75816548724E+01  0.35163013884E+02  0.42831347952E+03  0.42982130679E+03  0.00000000000E+00 0. -1.
        -13    1    3    3    0    0 -0.64633314710E+01 -0.21260028742E+02 -0.12889254709E+02  0.25688448041E+02  0.00000000000E+00 0.  1.
         13    1    3    3    0    0 -0.14285912994E+02  0.35060910861E+02  0.72775529689E+02  0.82034337335E+02  0.00000000000E+00 0. -1.
         21    1    1    2  502  501  0.43130055002E+02 -0.19982867806E+02  0.19926890066E+03  0.20485998004E+03  0.00000000000E+00 0. -1.
<scales pt_clust_5="13000.00000" pt_clust_6="13000.00000" pt_clust_7="13000.00000" pt_clust_8="13000.00000" pt_clust_9="47.53437"></scales>
<clustering>
<clus scale="   47.534">  1  9  2 -1</clus>
<clus scale="   80.291">  5  6 -1 -1</clus>
<clus scale="   82.412">  1  5  2 -1</clus>
<clus scale="   86.005">  7  8 -1 -1</clus>
<clus scale="   47.534">  1  5  2 -1</clus>
</clustering>
</event>
<event>
 9    2  0.5684583E-005  0.9460879E+02  0.7546771E-02  0.1299131E+00
          2   -1    0    0  502    0  0.00000000000E+00  0.00000000000E+00  0.39938031967E+03  0.39938031967E+03  0.00000000000E+00 0. -1.
         -1   -1    0    0    0  501 -0.00000000000E+00 -0.00000000000E+00 -0.14471456807E+03  0.14471456807E+03  0.00000000000E+00 0.  1.
         23    2    1    2    0    0  0.84562914580E+01  0.32064424146E+01  0.41686882080E+02  0.10131891821E+03  0.91901778610E+02 0.  0.
         24    2    1    2    0    0 -0.92978074922E+01 -0.23631495152E+02  0.32155229837E+03  0.33229483820E+03  0.79869156252E+02 0.  0.
        -11    1    4    4    0    0  0.28313237682E+02  0.36025047742E+01  0.57538286879E+02  0.64228279797E+02  0.00000000000E+00 0.  1.
         12    1    4    4    0    0 -0.37611045174E+02 -0.27233999927E+02  0.26401401149E+03  0.26806655840E+03  0.00000000000E+00 0. -1.
        -11    1    3    3    0    0 -0.28893537887E+02 -0.24986387371E+02  0.38778587589E+02  0.54432847995E+02  0.00000000000E+00 0. -1.
         11    1    3    3    0    0  0.37349829345E+02  0.28192829785E+02  0.29082944908E+01  0.46886070215E+02  0.00000000000E+00 0.  1.
         21    1    1    2  502  501  0.84151603417E+00  0.20425052738E+02 -0.10857342884E+03  0.11048113133E+03  0.00000000000E+00 0.  1.
<scales pt_clust_5="13000.00000" pt_clust_6="13000.00000" pt_clust_7="13000.00000" pt_clust_8="13000.00000" pt_clust_9="20.44238"></scales>
<clustering>
<clus scale="   20.442">  2  9  1 -1</clus>
<clus scale="   79.869">  5  6 -1 -1</clus>
<clus scale="   82.970">  1  5  2 -1</clus>
<clus scale="   91.902">  7  8 -1 -1</clus>
<clus scale="   82.970">  1  5  2 -1</clus>
</clustering>
</event>
<event>
 9    2  0.5684583E-005  0.3045708E+03  0.7546771E-02  0.1083441E+00
         -1   -1    0    0    0  501 -0.00000000000E+00  0.00000000000E+00  0.31552468504E+03  0.31552468504E+03  0.00000000000E+00 0.  1.
          2   -1    0    0  502    0  0.00000000000E+00 -0.00000000000E+00 -0.97291252911E+03  0.97291252911E+03  0.00000000000E+00 0. -1.
         24    2    1    2    0    0  0.32803444105E+03  0.57254871189E+01  0.11627187104E+03  0.35679680898E+03  0.78392851619E+02 0.  0.
         23    2    1    2    0    0 -0.28035030879E+03  0.61068214955E+02 -0.79216865655E+03  0.84751100474E+03  0.91750205481E+02 0.  0.
        -13    1    3    3    0    0  0.77259563429E+02  0.17372897701E+02  0.60438844626E+02  0.99617828000E+02  0.00000000000E+00 0.  1.
         14    1    3    3    0    0  0.25077487762E+03 -0.11647410582E+02  0.55833026417E+02  0.25717898098E+03  0.00000000000E+00 0. -1.
        -11    1    4    4    0    0 -0.11703799029E+03 -0.73334075510E+00 -0.42686300584E+03  0.44261772978E+03  0.00000000000E+00 0. -1.
         11    1    4    4    0    0 -0.16331231850E+03  0.61801555710E+02 -0.36530565071E+03  0.40489327495E+03  0.00000000000E+00 0.  1.
         21    1    1    2  502  501 -0.47684132255E+02 -0.66793702074E+02  0.18508941437E+02  0.84129400443E+02  0.00000000000E+00 0. -1.
<scales pt_clust_5="13000.00000" pt_clust_6="13000.00000" pt_clust_7="13000.00000" pt_clust_8="13000.00000" pt_clust_9="82.06811"></scales>
<clustering>
<clus scale="   78.393">  5  6 -1 -1</clus>
<clus scale="   82.068">  1  9  2 -1</clus>
<clus scale="   91.750">  7  8 -1 -1</clus>
<clus scale="  300.817">  1  5  2 -1</clus>
<clus scale="  304.571">  2  5  1 -1</clus>
</clustering>
</event>
<event>
 9    2  0.5684583E-005  0.9231967E+02  0.7546771E-02  0.1306162E+00
         -1   -1    0    0    0  501 -0.00000000000E+00  0.00000000000E+00  0.59894788017E+02  0.59894788017E+02  0.00000000000E+00 0.  1.
          2   -1    0    0  502    0  0.00000000000E+00 -0.00000000000E+00 -0.35674362640E+03  0.35674362640E+03  0.00000000000E+00 0. -1.
         23    2    1    2    0    0 -0.29159046428E+02 -0.29575518266E+02 -0.27097659188E+02  0.10267934796E+03  0.89909977721E+02 0.  0.
         24    2    1    2    0    0 -0.22870928767E+02 -0.25563687715E+02 -0.16415453449E+03  0.18396636771E+03  0.75632874750E+02 0.  0.
        -11    1    4    4    0    0  0.70629615899E+01 -0.46088098922E+02 -0.97318595464E+02  0.10791157172E+03  0.00000000000E+00 0.  1.
         12    1    4    4    0    0 -0.29933890357E+02  0.20524411207E+02 -0.66835939029E+02  0.76054795991E+02  0.00000000000E+00 0. -1.
        -13    1    3    3    0    0  0.26859052778E+02 -0.25528143945E+02 -0.28102236194E+02  0.46506241823E+02  0.00000000000E+00 0.  1.
         13    1    3    3    0    0 -0.56018099207E+02 -0.40473743219E+01  0.10045770063E+01  0.56173106133E+02  0.00000000000E+00 0. -1.
         21    1    1    2  502  501  0.52029975195E+02  0.55139205982E+02 -0.10559664470E+03  0.12999269874E+03  0.00000000000E+00 0. -1.
<scales pt_clust_5="13000.00000" pt_clust_6="13000.00000" pt_clust_7="13000.00000" pt_clust_8="13000.00000" pt_clust_9="75.81194"></scales>
<clustering>
<clus scale="   75.633">  5  6 -1 -1</clus>
<clus scale="   75.812">  2  9  1 -1</clus>
<clus scale="   78.482">  2  5  1 -1</clus>
<clus scale="   89.910">  7  8 -1 -1</clus>
<clus scale="   75.812">  2  5  1 -1</clus>
</clustering>
</event>
<event>
 9    2  0.5684583E-005  0.9379948E+02  0.7546771E-02  0.1295917E+00
          2   -1    0    0  502    0  0.00000000000E+00  0.00000000000E+00  0.72502665996E+03  0.72502665996E+03  0.00000000000E+00 0. -1.
         -1   -1    0    0    0  501 -0.00000000000E+00 -0.00000000000E+00 -0.45497523746E+02  0.45497523746E+02  0.00000000000E+00 0.  1.
         24    2    1    2    0    0 -0.23705259737E+02 -0.52235564219E+02  0.31747362554E+03  0.33145400563E+03  0.76037894658E+02 0.  0.
         23    2    1    2    0    0  0.26118238168E+02 -0.38086118488E+02  0.32677852163E+03  0.34207381326E+03  0.89986536399E+02 0.  0.
        -13    1    3    3    0    0  0.25241543721E+02 -0.18456943963E+02  0.65840737096E+02  0.72888935863E+02  0.00000000000E+00 0.  1.
         14    1    3    3    0    0 -0.48946803459E+02 -0.33778620256E+02  0.25163288845E+03  0.25856506977E+03  0.00000000000E+00 0. -1.
        -13    1    4    4    0    0 -0.11335183733E+02 -0.57131498401E+02  0.21162188380E+03  0.21949103901E+03  0.00000000000E+00 0.  1.
         13    1    4    4    0    0  0.37453421901E+02  0.19045379913E+02  0.11515663783E+03  0.12258277426E+03  0.00000000000E+00 0. -1.
         21    1    1    2  502  501 -0.24129784300E+01  0.90321682707E+02  0.35276989042E+02  0.96996364817E+02  0.00000000000E+00 0.  1.
<scales pt_clust_5="13000.00000" pt_clust_6="13000.00000" pt_clust_7="13000.00000" pt_clust_8="13000.00000" pt_clust_9="90.35391"></scales>
<clustering>
<clus scale="   76.038">  5  6 -1 -1</clus>
<clus scale="   89.987">  7  8 -1 -1</clus>
<clus scale="   90.354">  2  9  1 -1</clus>
<clus scale="   90.354">  2  5  1 -1</clus>
<clus scale="   93.799">  1  5  2 -1</clus>
</clustering>
</event>
<event>
 9    2  0.5684583E-005  0.9826658E+02  0.7546771E-02  0.1286135E+00
          2   -1    0    0  502    0  0.00000000000E+00  0.00000000000E+00  0.23586150482E+03  0.23586150482E+03  0.00000000000E+00 0. -1.
         -1   -1    0    0    0  501 -0.00000000000E+00 -0.00000000000E+00 -0.20287113617E+03  0.20287113617E+03  0.00000000000E+00 0.  1.
         23    2    1    2    0    0  0.47447200576E+02 -0.13802714412E+02 -0.49360863154E+01  0.10115906225E+03  0.88130807092E+02 0.  0.
         24    2    1    2    0    0 -0.81710765300E+01  0.46897676324E+02  0.17025957833E+03  0.19562307341E+03  0.83749055537E+02 0.  0.
        -13    1    4    4    0    0 -0.22415252968E+02 -0.56757264168E+01  0.80037251444E+01  0.24468695350E+02  0.00000000000E+00 0.  1.
         14    1    4    4    0    0  0.14244176438E+02  0.52573402741E+02  0.16225585318E+03  0.17115437806E+03  0.00000000000E+00 0. -1.
        -11    1    3    3    0    0  0.33843370814E+02  0.35908411668E+02  0.39507037837E+00  0.49345150290E+02  0.00000000000E+00 0.  1.
         11    1    3    3    0    0  0.13603829762E+02 -0.49711126081E+02 -0.53311566938E+01  0.51813911955E+02  0.00000000000E+00 0. -1.
         21    1    1    2  502  501 -0.39276124046E+02 -0.33094961912E+02 -0.13233312336E+03  0.14195050533E+03  0.00000000000E+00 0.  1.
<scales pt_clust_5="13000.00000" pt_clust_6="13000.00000" pt_clust_7="13000.00000" pt_clust_8="13000.00000" pt_clust_9="51.36040"></scales>
<clustering>
<clus scale="   51.360">  2  9  1 -1</clus>
<clus scale="   83.749">  5  6 -1 -1</clus>
<clus scale="   88.131">  7  8 -1 -1</clus>
<clus scale="   94.357">  1  5  2 -1</clus>
<clus scale="   94.357">  1  5  2 -1</clus>
</clustering>
</event>
<event>
 9    2  0.5684583E-005  0.9618987E+02  0.7546771E-02  0.1293007E+00
          2   -1    0    0  502    0  0.00000000000E+00  0.00000000000E+00  0.79597014281E+02  0.79597014281E+02  0.00000000000E+00 0. -1.
         -1   -1    0    0    0  501 -0.00000000000E+00 -0.00000000000E+00 -0.32566809068E+03  0.32566809068E+03  0.00000000000E+00 0.  1.
         23    2    1    2    0    0  0.18659988656E+02  0.10067543173E+02 -0.23765761035E+03  0.25459575231E+03  0.88816140072E+02 0.  0.
         24    2    1    2    0    0 -0.15543010497E+02 -0.36145399322E+02  0.38102774001E+02  0.97250903374E+02  0.80360697813E+02 0.  0.
        -11    1    4    4    0    0  0.20569006200E+02  0.13667229759E+02 -0.34882568032E+00  0.24698155087E+02  0.00000000000E+00 0.  1.
         12    1    4    4    0    0 -0.36112016696E+02 -0.49812629082E+02  0.38451599682E+02  0.72552748287E+02  0.00000000000E+00 0. -1.
        -13    1    3    3    0    0  0.20078689640E+02  0.42112634838E+02 -0.19883977189E+03  0.20423976761E+03  0.00000000000E+00 0.  1.
         13    1    3    3    0    0 -0.14187009847E+01 -0.32045091664E+02 -0.38817838459E+02  0.50355984698E+02  0.00000000000E+00 0. -1.
         21    1    1    2  502  501 -0.31169781588E+01  0.26077856149E+02 -0.46516240053E+02  0.53418449274E+02  0.00000000000E+00 0. -1.
<scales pt_clust_5="13000.00000" pt_clust_6="13000.00000" pt_clust_7="13000.00000" pt_clust_8="13000.00000" pt_clust_9="26.26348"></scales>
<clustering>
<clus scale="   26.263">  2  9  1 -1</clus>
<clus scale="   80.361">  5  6 -1 -1</clus>
<clus scale="   88.442">  1  5  2 -1</clus>
<clus scale="   88.816">  7  8 -1 -1</clus>
<clus scale="   88.442">  1  5  2 -1</clus>
</clustering>
</event>
<event>
 9    2  0.5684583E-005  0.1129058E+03  0.7546771E-02  0.1258793E+00
         -1   -1    0    0    0  501 -0.00000000000E+00  0.00000000000E+00  0.56862501296E+03  0.56862501296E+03  0.00000000000E+00 0.  1.
          2   -1    0    0  502    0  0.00000000000E+00 -0.00000000000E+00 -0.42655098187E+02  0.42655098187E+02  0.00000000000E+00 0. -1.
         24    2    1    2    0    0 -0.30022585902E+02 -0.53929800861E+02  0.20718767812E+03  0.23067510785E+03  0.80464230136E+02 0.  0.
         23    2    1    2    0    0 -0.30242839783E+02  0.76776515609E+02  0.11857125231E+03  0.17027589889E+03  0.90141428668E+02 0.  0.
        -13    1    3    3    0    0 -0.14599842077E+02 -0.72305227329E+02  0.17934842931E+03  0.19392539901E+03  0.00000000000E+00 0.  1.
         14    1    3    3    0    0 -0.15422743825E+02  0.18375426468E+02  0.27839248810E+02  0.36749708833E+02  0.00000000000E+00 0. -1.
        -13    1    4    4    0    0 -0.20162260665E+02  0.18378932534E+01  0.85293469878E+02  0.87663393788E+02  0.00000000000E+00 0.  1.
         13    1    4    4    0    0 -0.10080579118E+02  0.74938622356E+02  0.33277782429E+02  0.82612505103E+02  0.00000000000E+00 0. -1.
         21    1    1    2  502  501  0.60265425685E+02 -0.22846714748E+02  0.20021098434E+03  0.21032910440E+03  0.00000000000E+00 0.  1.
<scales pt_clust_5="13000.00000" pt_clust_6="13000.00000" pt_clust_7="13000.00000" pt_clust_8="13000.00000" pt_clust_9="64.45071"></scales>
<clustering>
<clus scale="   64.451">  1  9  2 -1</clus>
<clus scale="   80.464">  5  6 -1 -1</clus>
<clus scale="   90.141">  7  8 -1 -1</clus>
<clus scale="  105.341">  1  5  2 -1</clus>
<clus scale="  112.906">  2  5  1 -1</clus>
</clustering>
</event>
<event>
 9    2  0.5684583E-005  0.1247252E+03  0.7546771E-02  0.1239305E+00
         -1   -1    0    0    0  501 -0.00000000000E+00  0.00000000000E+00  0.39235447746E+02  0.39235447746E+02  0.00000000000E+00 0.  1.
          2   -1    0    0  502    0  0.00000000000E+00 -0.00000000000E+00 -0.58045306764E+03  0.58045306764E+03  0.00000000000E+00 0. -1.
         24    2    1    2    0    0  0.78820100581E+02  0.14017597688E+02 -0.19562941015E+03  0.22580240204E+03  0.79415095232E+02 0.  0.
         23    2    1    2    0    0 -0.87473741856E+02  0.17052476385E+02 -0.33681892467E+03  0.36046253827E+03  0.92432737799E+02 0.  0.
        -13    1    3    3    0    0 -0.41039871958E+01  0.28311927732E+02 -0.50931470284E+02  0.58415944981E+02  0.00000000000E+00 0.  1.
         14    1    3    3    0    0  0.82924087777E+02 -0.14294330044E+02 -0.14469793986E+03  0.16738645705E+03  0.00000000000E+00 0. -1.
        -13    1    4    4    0    0 -0.64773071400E+02 -0.16942359205E+02 -0.29293785363E+03  0.30049156462E+03  0.00000000000E+00 0. -1.
         13    1    4    4    0    0 -0.22700670457E+02  0.33994835590E+02 -0.43881071033E+02  0.59970973654E+02  0.00000000000E+00 0.  1.
         21    1    1    2  502  501  0.86536412752E+01 -0.31070074073E+02 -0.87692850803E+01  0.33423575079E+02  0.00000000000E+00 0.  1.
<scales pt_clust_5="13000.00000" pt_clust_6="13000.00000" pt_clust_7="13000.00000" pt_clust_8="13000.00000" pt_clust_9="32.25267"></scales>
<clustering>
<clus scale="   32.253">  1  9  2 -1</clus>
<clus scale="   79.415">  5  6 -1 -1</clus>
<clus scale="   92.433">  7  8 -1 -1</clus>
<clus scale="  115.409">  1  5  2 -1</clus>
<clus scale="  124.725">  2  5  1 -1</clus>
</clustering>
</event>
<event>
 9    2  0.5684583E-005  0.1412165E+03  0.7546771E-02  0.1213363E+00
         -1   -1    0    0    0  501 -0.00000000000E+00  0.00000000000E+00  0.50053944241E+02  0.50053944241E+02  0.00000000000E+00 0.  1.
          2   -1    0    0  502    0  0.00000000000E+00 -0.00000000000E+00 -0.88222568977E+03  0.88222568977E+03  0.00000000000E+00 0. -1.
         23    2    1    2    0    0  0.15564186662E+02  0.15870094726E+03 -0.38075063721E+03  0.42236711750E+03  0.89413084299E+02 0.  0.
         24    2    1    2    0    0 -0.11901707502E+01 -0.88576750039E+02 -0.40981336465E+03  0.42711626235E+03  0.81449681166E+02 0.  0.
        -13    1    4    4    0    0 -0.30304782304E+02 -0.20540001372E+02 -0.66440907136E+02  0.75859512442E+02  0.00000000000E+00 0.  1.
         14    1    4    4    0    0  0.29114611554E+02 -0.68036748667E+02 -0.34337245752E+03  0.35125674991E+03  0.00000000000E+00 0. -1.
        -13    1    3    3    0    0  0.25778923779E+02  0.10897868672E+03 -0.15648010732E+03  0.19242383183E+03  0.00000000000E+00 0.  1.
         13    1    3    3    0    0 -0.10214737117E+02  0.49722260542E+02 -0.22427052989E+03  0.22994328567E+03  0.00000000000E+00 0. -1.
         21    1    1    2  502  501 -0.14374015912E+02 -0.70124197221E+02 -0.41607743663E+02  0.82796254155E+02  0.00000000000E+00 0. -1.
<scales pt_clust_5="13000.00000" pt_clust_6="13000.00000" pt_clust_7="13000.00000" pt_clust_8="13000.00000" pt_clust_9="71.58223"></scales>
<clustering>
<clus scale="   71.582">  1  9  2 -1</clus>
<clus scale="   81.450">  5  6 -1 -1</clus>
<clus scale="   89.413">  7  8 -1 -1</clus>
<clus scale="  136.314">  2  5  1 -1</clus>
<clus scale="  136.314">  2  5  1 -1</clus>
</clustering>
</event>
<event>
 9    2  0.5684583E-005  0.1329639E+03  0.7546771E-02  0.1244706E+00
         -1   -1    0    0    0  501 -0.00000000000E+00  0.00000000000E+00  0.36512288978E+02  0.36512288978E+02  0.00000000000E+00 0.  1.
          2   -1    0    0  502    0  0.00000000000E+00 -0.00000000000E+00 -0.12096818434E+04  0.12096818434E+04  0.00000000000E+00 0. -1.
         23    2    1    2    0    0 -0.81037918693E+02  0.38235769665E+02 -0.15846239396E+03  0.20229354734E+03  0.88222619822E+02 0.  0.
         24    2    1    2    0    0 -0.26875147408E+02  0.19426621503E-01 -0.75829022201E+03  0.76308332025E+03  0.81054419522E+02 0.  0.
        -13    1    4    4    0    0  0.33776497542E+01 -0.33935525232E+02 -0.19494691794E+03  0.19790737531E+03  0.00000000000E+00 0.  1.
         14    1    4    4    0    0 -0.30252797162E+02  0.33954951854E+02 -0.56334330407E+03  0.56517594494E+03  0.00000000000E+00 0. -1.
        -11    1    3    3    0    0 -0.17502111771E+02  0.45689028971E+02 -0.11494202316E+03  0.12492189549E+03  0.00000000000E+00 0.  1.
         11    1    3    3    0    0 -0.63535806922E+02 -0.74532593064E+01 -0.43520370802E+02  0.77371651851E+02  0.00000000000E+00 0. -1.
         21    1    1    2  502  501  0.10791306610E+03 -0.38255196286E+02 -0.25641693848E+03  0.28081726481E+03  0.00000000000E+00 0.  1.
<scales pt_clust_5="13000.00000" pt_clust_6="13000.00000" pt_clust_7="13000.00000" pt_clust_8="13000.00000" pt_clust_9="99.47953"></scales>
<clustering>
<clus scale="   81.054">  5  6 -1 -1</clus>
<clus scale="   85.394">  2  5  1 -1</clus>
<clus scale="   88.223">  7  8 -1 -1</clus>
<clus scale="   99.480">  2  9  1 -1</clus>
<clus scale="   85.394">  2  5  1 -1</clus>
</clustering>
</event>
<event>
 9    2  0.5684583E-005  0.1452242E+03  0.7546771E-02  0.1238452E+00
          2   -1    0    0  502    0  0.00000000000E+00  0.00000000000E+00  0.69862747208E+03  0.69862747208E+03  0.00000000000E+00 0. -1.
         -1   -1    0    0    0  501 -0.00000000000E+00 -0.00000000000E+00 -0.97068156452E+02  0.97068156452E+02  0.00000000000E+00 0.  1.
         23    2    1    2    0    0 -0.10791046096E+03  0.65809239576E+02  0.34981267203E+03  0.38253736822E+03  0.89389087554E+02 0.  0.
         24    2    1    2    0    0  0.15214467124E+02 -0.99923218602E+00  0.28557237686E+03  0.29510291498E+03  0.72812564388E+02 0.  0.
        -13    1    4    4    0    0 -0.21471741967E+02  0.20385520376E+02  0.82864834546E+02  0.87995374586E+02  0.00000000000E+00 0.  1.
         14    1    4    4    0    0  0.36686209091E+02 -0.21384752562E+02  0.20270754231E+03  0.20710754040E+03  0.00000000000E+00 0. -1.
        -11    1    3    3    0    0 -0.59369011011E+02 -0.44444567455E+01  0.21385388381E+03  0.22198629752E+03  0.00000000000E+00 0.  1.
         11    1    3    3    0    0 -0.48541449948E+02  0.70253696322E+02  0.13595878822E+03  0.16055107070E+03  0.00000000000E+00 0. -1.
         21    1    1    2  502  501  0.92695993835E+02 -0.64810007390E+02 -0.33825733257E+02  0.11805534533E+03  0.00000000000E+00 0.  1.
<scales pt_clust_5="13000.00000" pt_clust_6="13000.00000" pt_clust_7="13000.00000" pt_clust_8="13000.00000" pt_clust_9="114.45377"></scales>
<clustering>
<clus scale="   72.813">  5  6 -1 -1</clus>
<clus scale="   74.392">  1  5  2 -1</clus>
<clus scale="   89.389">  7  8 -1 -1</clus>
<clus scale="  114.454">  2  9  1 -1</clus>
<clus scale="   74.392">  1  5  2 -1</clus>
</clustering>
</event>
<event>
 9    2  0.5684583E-005  0.9255299E+02  0.7546771E-02  0.1302753E+00
         -1   -1    0    0    0  501 -0.00000000000E+00  0.00000000000E+00  0.75501212079E+02  0.75501212079E+02  0.00000000000E+00 0.  1.
          2   -1    0    0  502    0  0.00000000000E+00 -0.00000000000E+00 -0.46220303041E+03  0.46220303041E+03  0.00000000000E+00 0. -1.
         23    2    1    2    0    0 -0.75760212417E+01  0.82662797166E+01  0.24128688777E+02  0.90230112954E+02  0.86218050218E+02 0.  0.
         24    2    1    2    0    0 -0.23656164890E+02 -0.27273119966E+02 -0.40089591081E+03  0.40958738211E+03  0.75768430566E+02 0.  0.
        -11    1    4    4    0    0  0.20269265198E+02 -0.33899086953E+02 -0.18534755834E+03  0.18950912535E+03  0.00000000000E+00 0.  1.
         12    1    4    4    0    0 -0.43925430088E+02  0.66259669869E+01 -0.21554835247E+03  0.22007825676E+03  0.00000000000E+00 0. -1.
        -11    1    3    3    0    0 -0.20157546302E+02  0.43863745561E+02  0.70287325775E+01  0.48782762624E+02  0.00000000000E+00 0.  1.
         11    1    3    3    0    0  0.12581525060E+02 -0.35597465844E+02  0.17099956200E+02  0.41447350330E+02  0.00000000000E+00 0. -1.
         21    1    1    2  502  501  0.31232186132E+02  0.19006840250E+02 -0.99345963002E+01  0.37886747426E+02  0.00000000000E+00 0. -1.
<scales pt_clust_5="13000.00000" pt_clust_6="13000.00000" pt_clust_7="13000.00000" pt_clust_8="13000.00000" pt_clust_9="36.56104"></scales>
<clustering>
<clus scale="   36.561">  1  9  2 -1</clus>
<clus scale="   75.768">  5  6 -1 -1</clus>
<clus scale="   82.906">  2  5  1 -1</clus>
<clus scale="   86.218">  7  8 -1 -1</clus>
<clus scale="   82.906">  2  5  1 -1</clus>
</clustering>
</event>
<event>
 9    2  0.5684583E-005  0.9601515E+02  0.7546771E-02  0.1293725E+00
          2   -1    0    0  502    0  0.00000000000E+00  0.00000000000E+00  0.11784991197E+04  0.11784991197E+04  0.00000000000E+00 0. -1.
         -1   -1    0    0    0  501 -0.00000000000E+00 -0.00000000000E+00 -0.18589638704E+02  0.18589638704E+02  0.00000000000E+00 0.  1.
         23    2    1    2    0    0 -0.13585073888E+02 -0.64107073225E+02  0.23996793727E+03  0.26446755769E+03  0.89800930285E+02 0.  0.
         24    2    1    2    0    0  0.24614230418E+02  0.17601495794E+02  0.77947533283E+03  0.78424611040E+03  0.80898048076E+02 0.  0.
        -11    1    4    4    0    0  0.22388508089E+02 -0.39086193364E-01  0.52765589030E+02  0.57318881774E+02  0.00000000000E+00 0.  1.
         12    1    4    4    0    0  0.22257223285E+01  0.17640581988E+02  0.72670974380E+03  0.72692722862E+03  0.00000000000E+00 0. -1.
        -11    1    3    3    0    0 -0.46018686838E+02 -0.26022662884E+02  0.17287994881E+03  0.18078267401E+03  0.00000000000E+00 0. -1.
         11    1    3    3    0    0  0.32433612949E+02 -0.38084410342E+02  0.67087988463E+02  0.83684883677E+02  0.00000000000E+00 0.  1.
         21    1    1    2  502  501 -0.11029156529E+02  0.46505577431E+02  0.14046621087E+03  0.14837509031E+03  0.00000000000E+00 0. -1.
<scales pt_clust_5="13000.00000" pt_clust_6="13000.00000" pt_clust_7="13000.00000" pt_clust_8="13000.00000" pt_clust_9="47.79551"></scales>
<clustering>
<clus scale="   47.796">  2  9  1 -1</clus>
<clus scale="   80.898">  5  6 -1 -1</clus>
<clus scale="   87.745">  1  5  2 -1</clus>
<clus scale="   89.801">  7  8 -1 -1</clus>
<clus scale="   87.745">  1  5  2 -1</clus>
</clustering>
</event>
<event>
 9    2  0.5684583E-005  0.1368021E+03  0.7546771E-02  0.1220663E+00
         -1   -1    0    0    0  501 -0.00000000000E+00  0.00000000000E+00  0.48173996529E+02  0.48173996529E+02  0.00000000000E+00 0.  1.
          2   -1    0    0  502    0  0.00000000000E+00 -0.00000000000E+00 -0.74897602362E+03  0.74897602362E+03  0.00000000000E+00 0. -1.
         23    2    1    2    0    0  0.99373121901E+02  0.31191266620E+02 -0.12159071535E+03  0.18528633925E+03  0.93267427232E+02 0.  0.
         24    2    1    2    0    0 -0.61758776771E+02 -0.84368606508E+02 -0.38330119773E+03  0.40540922779E+03  0.80651258667E+02 0.  0.
        -13    1    4    4    0    0 -0.20362498690E+02 -0.31802530139E+02 -0.37589727271E+02  0.53282453702E+02  0.00000000000E+00 0.  1.
         14    1    4    4    0    0 -0.41396278080E+02 -0.52566076369E+02 -0.34571147046E+03  0.35212677409E+03  0.00000000000E+00 0. -1.
        -11    1    3    3    0    0  0.72540747875E+02 -0.16715396360E+01 -0.20111552635E+02  0.75295608746E+02  0.00000000000E+00 0.  1.
         11    1    3    3    0    0  0.26832374026E+02  0.32862806256E+02 -0.10147916271E+03  0.10999073050E+03  0.00000000000E+00 0. -1.
         21    1    1    2  502  501 -0.37614345131E+02  0.53177339888E+02 -0.19591011401E+03  0.20645445311E+03  0.00000000000E+00 0.  1.
<scales pt_clust_5="13000.00000" pt_clust_6="13000.00000" pt_clust_7="13000.00000" pt_clust_8="13000.00000" pt_clust_9="65.13577"></scales>
<clustering>
<clus scale="   65.136">  2  9  1 -1</clus>
<clus scale="   80.651">  5  6 -1 -1</clus>
<clus scale="   93.267">  7  8 -1 -1</clus>
<clus scale="  128.533">  2  5  1 -1</clus>
<clus scale="   65.136">  2  5  1 -1</clus>
</clustering>
</event>
<event>
 9    2  0.5684583E-005  0.9252250E+02  0.7546771E-02  0.1304494E+00
         -1   -1    0    0    0  501 -0.00000000000E+00  0.00000000000E+00  0.11532964166E+03  0.11532964166E+03  0.00000000000E+00 0.  1.
          2   -1    0    0  502    0  0.00000000000E+00 -0.00000000000E+00 -0.34196016417E+03  0.34196016417E+03  0.00000000000E+00 0. -1.
         23    2    1    2    0    0 -0.40775858446E+02 -0.62206177328E+02  0.41829777353E+02  0.12476615510E+03  0.91019690481E+02 0.  0.
         24    2    1    2    0    0 -0.14861442207E+02  0.87020044471E+01 -0.23497323339E+03  0.24838335503E+03  0.78646572090E+02 0.  0.
        -13    1    4    4    0    0  0.36964611631E+01 -0.21254093618E+02 -0.16694088873E+02  0.27278066719E+02  0.00000000000E+00 0.  1.
         14    1    4    4    0    0 -0.18557903370E+02  0.29956098065E+02 -0.21827914452E+03  0.22110528831E+03  0.00000000000E+00 0. -1.
        -11    1    3    3    0    0  0.26542876772E+02 -0.31540478519E+02  0.32887104907E+01  0.41353859665E+02  0.00000000000E+00 0.  1.
         11    1    3    3    0    0 -0.67318735218E+02 -0.30665698809E+02  0.38541066862E+02  0.83412295435E+02  0.00000000000E+00 0. -1.
         21    1    1    2  502  501  0.55637300654E+02  0.53504172880E+02 -0.33487066475E+02  0.84140295702E+02  0.00000000000E+00 0. -1.
<scales pt_clust_5="13000.00000" pt_clust_6="13000.00000" pt_clust_7="13000.00000" pt_clust_8="13000.00000" pt_clust_9="77.18941"></scales>
<clustering>
<clus scale="   77.189">  1  9  2 -1</clus>
<clus scale="   78.647">  5  6 -1 -1</clus>
<clus scale="   80.381">  2  5  1 -1</clus>
<clus scale="   91.020">  7  8 -1 -1</clus>
<clus scale="   80.381">  2  5  1 -1</clus>
</clustering>
</event>
<event>
 9    2  0.5684583E-005  0.1329442E+03  0.7546771E-02  0.1224965E+00
          2   -1    0    0  502    0  0.00000000000E+00  0.00000000000E+00  0.88972673610E+03  0.88972673610E+03  0.00000000000E+00 0. -1.
         -1   -1    0    0    0  501 -0.00000000000E+00 -0.00000000000E+00 -0.38447275337E+02  0.38447275337E+02  0.00000000000E+00 0.  1.
         23    2    1    2    0    0 -0.43133221700E+02 -0.10086584834E+03  0.13732376460E+03  0.19624975229E+03  0.87302661893E+02 0.  0.
         24    2    1    2    0    0  0.33786278461E+02  0.56772448315E+02  0.60866896896E+03  0.61739527505E+03  0.79588870952E+02 0.  0.
        -13    1    4    4    0    0  0.62141361564E+01  0.51499205512E+02  0.16783357069E+03  0.17566698924E+03  0.00000000000E+00 0.  1.
         14    1    4    4    0    0  0.27572142304E+02  0.52732428030E+01  0.44083539826E+03  0.44172828581E+03  0.00000000000E+00 0. -1.
        -11    1    3    3    0    0 -0.30355137871E+02 -0.58489415985E+02  0.17016345106E+02  0.68058814111E+02  0.00000000000E+00 0.  1.
         11    1    3    3    0    0 -0.12778083829E+02 -0.42376432354E+02  0.12030741949E+03  0.12819093817E+03  0.00000000000E+00 0. -1.
         21    1    1    2  502  501  0.93469432393E+01  0.44093400023E+02  0.10528672721E+03  0.11452898410E+03  0.00000000000E+00 0.  1.
<scales pt_clust_5="13000.00000" pt_clust_6="13000.00000" pt_clust_7="13000.00000" pt_clust_8="13000.00000" pt_clust_9="45.07320"></scales>
<clustering>
<clus scale="   45.073">  1  9  2 -1</clus>
<clus scale="   79.589">  5  6 -1 -1</clus>
<clus scale="   87.303">  7  8 -1 -1</clus>
<clus scale="  128.011">  1  5  2 -1</clus>
<clus scale="   45.073">  1  5  2 -1</clus>
</clustering>
</event>
<event>
 9    2  0.5684583E-005  0.1036142E+03  0.7546771E-02  0.1277110E+00
          2   -1    0    0  502    0  0.00000000000E+00  0.00000000000E+00  0.29752590254E+03  0.29752590254E+03  0.00000000000E+00 0. -1.
         -1   -1    0    0    0  501 -0.00000000000E+00 -0.00000000000E+00 -0.35805191314E+03  0.35805191314E+03  0.00000000000E+00 0.  1.
         24    2    1    2    0    0  0.17618115044E+00  0.71142432366E+02 -0.19648718371E+03  0.22375598156E+03  0.79989056741E+02 0.  0.
         23    2    1    2    0    0  0.60080796233E+01 -0.51044657138E+02  0.27368817693E+03  0.29249885241E+03  0.89491376276E+02 0.  0.
        -13    1    3    3    0    0 -0.43468654272E+01  0.69083469783E+02 -0.20361922354E+03  0.21506326797E+03  0.00000000000E+00 0.  1.
         14    1    3    3    0    0  0.45230465776E+01  0.20589625831E+01  0.71320398327E+01  0.86927135831E+01  0.00000000000E+00 0. -1.
        -13    1    4    4    0    0 -0.27172805246E+02  0.61671537302E+01  0.34562331971E+02  0.44395381757E+02  0.00000000000E+00 0.  1.
         13    1    4    4    0    0  0.33180884869E+02 -0.57211810869E+02  0.23912584496E+03  0.24810347065E+03  0.00000000000E+00 0. -1.
         21    1    1    2  502  501 -0.61842607737E+01 -0.20097775227E+02 -0.13772700382E+03  0.13932298171E+03  0.00000000000E+00 0.  1.
<scales pt_clust_5="13000.00000" pt_clust_6="13000.00000" pt_clust_7="13000.00000" pt_clust_8="13000.00000" pt_clust_9="21.02774"></scales>
<clustering>
<clus scale="   21.028">  2  9  1 -1</clus>
<clus scale="   79.989">  5  6 -1 -1</clus>
<clus scale="   89.491">  7  8 -1 -1</clus>
<clus scale="   95.527">  2  5  1 -1</clus>
<clus scale="  103.614">  1  5  2 -1</clus>
</clustering>
</event>
<event>
 9    2  0.5684583E-005  0.8534097E+02  0.7546771E-02  0.1318451E+00
         -1   -1    0    0    0  501 -0.00000000000E+00  0.00000000000E+00  0.60743728665E+02  0.60743728665E+02  0.00000000000E+00 0.  1.
          2   -1    0    0  502    0  0.00000000000E+00 -0.00000000000E+00 -0.49307283139E+03  0.49307283139E+03  0.00000000000E+00 0. -1.
         23    2    1    2    0    0 -0.13673836682E+02 -0.22683546850E+02  0.16365609453E+02  0.78834780402E+02  0.72426323399E+02 0.  0.
         24    2    1    2    0    0  0.33754022202E+02  0.57537989481E+01 -0.43846953251E+03  0.44679695193E+03  0.78737190033E+02 0.  0.
        -11    1    4    4    0    0 -0.20589224251E+02 -0.13589608825E+02 -0.80041714863E+02  0.83757207102E+02  0.00000000000E+00 0.  1.
         12    1    4    4    0    0  0.54343246453E+02  0.19343407773E+02 -0.35842781765E+03  0.36303974483E+03  0.00000000000E+00 0. -1.
        -13    1    3    3    0    0 -0.29395220493E+02  0.16700235961E+02  0.13260527407E+02  0.36315540146E+02  0.00000000000E+00 0.  1.
         13    1    3    3    0    0  0.15721383812E+02 -0.39383782811E+02  0.31050820457E+01  0.42519240256E+02  0.00000000000E+00 0. -1.
         21    1    1    2  502  501 -0.20080185520E+02  0.16929747902E+02 -0.10225179664E+02  0.28184827722E+02  0.00000000000E+00 0. -1.
<scales pt_clust_5="13000.00000" pt_clust_6="13000.00000" pt_clust_7="13000.00000" pt_clust_8="13000.00000" pt_clust_9="26.26462"></scales>
<clustering>
<clus scale="   26.265">  1  9  2 -1</clus>
<clus scale="   72.426">  7  8 -1 -1</clus>
<clus scale="   78.737">  5  6 -1 -1</clus>
<clus scale="   79.556">  1  7  2 -1</clus>
<clus scale="   85.341">  2  5  1 -1</clus>
</clustering>
</event>
<event>
 9    2  0.8386835E-005  0.2119650E+03  0.7546771E-02  0.1179992E+00
         -1   -1    0    0    0  501 -0.00000000000E+00  0.00000000000E+00  0.33614818676E+03  0.33614818676E+03  0.00000000000E+00 0.  1.
          2   -1    0    0  502    0  0.00000000000E+00 -0.00000000000E+00 -0.55486259048E+03  0.55486259048E+03  0.00000000000E+00 0. -1.
         24    2    1    2    0    0  0.87608045222E+01  0.70773018890E+01  0.65881698297E+01  0.83825921936E+02  0.82804234848E+02 0.  0.
         23    2    1    2    0    0 -0.17081003589E+03 -0.84342244258E+02 -0.46286403208E+03  0.50941771259E+03  0.94729146409E+02 0.  0.
        -13    1    3    3    0    0  0.25893942238E+02  0.29918949861E+02 -0.20416800430E+02  0.44525111400E+02  0.00000000000E+00 0.  1.
         14    1    3    3    0    0 -0.17133137716E+02 -0.22841647972E+02  0.27004970260E+02  0.39300810536E+02  0.00000000000E+00 0. -1.
        -11    1    4    4    0    0 -0.51555930673E+02  0.61307563412E+01 -0.58395448610E+02  0.78138521736E+02  0.00000000000E+00 0.  1.
         11    1    4    4    0    0 -0.11925410522E+03 -0.90473000599E+02 -0.40446858347E+03  0.43127919085E+03  0.00000000000E+00 0. -1.
         21    1    1    2  502  501  0.16204923137E+03  0.77264942369E+02  0.23756145853E+03  0.29776714272E+03  0.00000000000E+00 0.  1.
<scales pt_clust_5="13000.00000" pt_clust_6="13000.00000" pt_clust_7="13000.00000" pt_clust_8="13000.00000" pt_clust_9="189.61945"></scales>
<clustering>
<clus scale="   82.804">  5  6 -1 -1</clus>
<clus scale="   83.567">  1  5  2 -1</clus>
<clus scale="   94.729">  7  8 -1 -1</clus>
<clus scale="  189.619">  1  9  2 -1</clus>
<clus scale="  211.965">  2  5  1 -1</clus>
</clustering>
</event>
<event>
 9    2  0.5684583E-005  0.2086026E+03  0.7546771E-02  0.1142677E+00
         -1   -1    0    0    0  501 -0.00000000000E+00  0.00000000000E+00  0.22579906712E+03  0.22579906712E+03  0.00000000000E+00 0.  1.
          2   -1    0    0  502    0  0.00000000000E+00 -0.00000000000E+00 -0.19331613210E+03  0.19331613210E+03  0.00000000000E+00 0. -1.
         24    2    1    2    0    0 -0.11926875862E+02 -0.65415799932E+02  0.58560131599E+02  0.12088736583E+03  0.82237393907E+02 0.  0.
         23    2    1    2    0    0 -0.20279699308E+02 -0.34234179229E+02  0.95001558104E+02  0.13814208552E+03  0.92058104038E+02 0.  0.
        -11    1    3    3    0    0 -0.37454181774E+02 -0.54684342429E+02  0.12957816041E+02  0.67535901828E+02  0.00000000000E+00 0.  1.
         12    1    3    3    0    0  0.25527305912E+02 -0.10731457504E+02  0.45602315558E+02  0.53351464005E+02  0.00000000000E+00 0. -1.
        -11    1    4    4    0    0 -0.55163380756E+02 -0.30300869758E+02  0.46420246458E+02  0.78204734932E+02  0.00000000000E+00 0.  1.
         11    1    4    4    0    0  0.34883681448E+02 -0.39333094708E+01  0.48581311646E+02  0.59937350592E+02  0.00000000000E+00 0. -1.
         21    1    1    2  502  501  0.32206575170E+02  0.99649979161E+02 -0.12107875469E+03  0.16008574786E+03  0.00000000000E+00 0. -1.
<scales pt_clust_5="13000.00000" pt_clust_6="13000.00000" pt_clust_7="13000.00000" pt_clust_8="13000.00000" pt_clust_9="104.72527"></scales>
<clustering>
<clus scale="   82.237">  5  6 -1 -1</clus>
<clus scale="   92.058">  7  8 -1 -1</clus>
<clus scale="   98.855">  5  7 -1 -1</clus>
<clus scale="  104.725">  2  9  1 -1</clus>
<clus scale="  104.725">  2  5  1 -1</clus>
</clustering>
</event>
<event>
 9    2  0.5684583E-005  0.1013918E+03  0.7546771E-02  0.1286595E+00
          2   -1    0    0  502    0  0.00000000000E+00  0.00000000000E+00  0.92623490026E+03  0.92623490026E+03  0.00000000000E+00 0. -1.
         -1   -1    0    0    0  501 -0.00000000000E+00 -0.00000000000E+00 -0.93245573000E+02  0.93245573000E+02  0.00000000000E+00 0.  1.
         23    2    1    2    0    0  0.26442651239E+02 -0.43705004718E+02 -0.36118633724E+02  0.11720059048E+03  0.99106414852E+02 0.  0.
         24    2    1    2    0    0 -0.20454586488E+02 -0.71464378327E+01  0.83809618892E+03  0.84241790707E+03  0.82421153812E+02 0.  0.
        -13    1    4    4    0    0 -0.63981265833E+01 -0.33149005057E+02  0.15283126637E+03  0.15651577729E+03  0.00000000000E+00 0.  1.
         14    1    4    4    0    0 -0.14056459905E+02  0.26002567224E+02  0.68526492255E+03  0.68590212979E+03  0.00000000000E+00 0. -1.
        -11    1    3    3    0    0 -0.17550137946E+02 -0.49888033626E+02  0.92673916368E+01  0.53690853865E+02  0.00000000000E+00 0. -1.
         11    1    3    3    0    0  0.43992789185E+02  0.61830289087E+01 -0.45386025361E+02  0.63509736614E+02  0.00000000000E+00 0.  1.
         21    1    1    2  502  501 -0.59880647506E+01  0.50851442550E+02  0.31011772067E+02  0.59861975708E+02  0.00000000000E+00 0. -1.
<scales pt_clust_5="13000.00000" pt_clust_6="13000.00000" pt_clust_7="13000.00000" pt_clust_8="13000.00000" pt_clust_9="51.20279"></scales>
<clustering>
<clus scale="   51.203">  2  9  1 -1</clus>
<clus scale="   82.421">  5  6 -1 -1</clus>
<clus scale="   85.156">  1  5  2 -1</clus>
<clus scale="   99.106">  7  8 -1 -1</clus>
<clus scale="   85.156">  1  5  2 -1</clus>
</clustering>
</event>
<event>
 9    2  0.5684583E-005  0.9664064E+02  0.7546771E-02  0.1292258E+00
          2   -1    0    0  502    0  0.00000000000E+00  0.00000000000E+00  0.30550214453E+03  0.30550214453E+03  0.00000000000E+00 0. -1.
         -1   -1    0    0    0  501 -0.00000000000E+00 -0.00000000000E+00 -0.24295206376E+03  0.24295206376E+03  0.00000000000E+00 0.  1.
         23    2    1    2    0    0 -0.84653747313E+01  0.32158469299E+02 -0.21643064728E+03  0.23692029854E+03  0.90460892429E+02 0.  0.
         24    2    1    2    0    0  0.23043624066E+02 -0.50047769975E+02  0.26886401864E+03  0.28633668289E+03  0.81639742526E+02 0.  0.
        -11    1    4    4    0    0  0.32268088774E+02 -0.49281645361E+01  0.34516185549E+02  0.47506667150E+02  0.00000000000E+00 0.  1.
         12    1    4    4    0    0 -0.92244647085E+01 -0.45119605439E+02  0.23434783309E+03  0.23883001574E+03  0.00000000000E+00 0. -1.
        -13    1    3    3    0    0 -0.32163067475E+02  0.50908530569E+02 -0.10089926991E+03  0.11750235769E+03  0.00000000000E+00 0.  1.
         13    1    3    3    0    0  0.23697692744E+02 -0.18750061270E+02 -0.11553137737E+03  0.11941794084E+03  0.00000000000E+00 0. -1.
         21    1    1    2  502  501 -0.14578249334E+02  0.17889300676E+02  0.10116709418E+02  0.25197226867E+02  0.00000000000E+00 0.  1.
<scales pt_clust_5="13000.00000" pt_clust_6="13000.00000" pt_clust_7="13000.00000" pt_clust_8="13000.00000" pt_clust_9="23.07710"></scales>
<clustering>
<clus scale="   23.077">  1  9  2 -1</clus>
<clus scale="   81.640">  5  6 -1 -1</clus>
<clus scale="   88.438">  1  5  2 -1</clus>
<clus scale="   90.461">  7  8 -1 -1</clus>
<clus scale="   23.077">  1  5  2 -1</clus>
</clustering>
</event>
<event>
 9    2  0.5684583E-005  0.9743564E+02  0.7546771E-02  0.1292806E+00
         -1   -1    0    0    0  501 -0.00000000000E+00  0.00000000000E+00  0.60269288277E+02  0.60269288277E+02  0.00000000000E+00 0.  1.
          2   -1    0    0  502    0  0.00000000000E+00 -0.00000000000E+00 -0.21781036416E+03  0.21781036416E+03  0.00000000000E+00 0. -1.
         23    2    1    2    0    0  0.53446673620E+01  0.57905939805E+00 -0.32806285935E+02  0.98886918308E+02  0.93131463194E+02 0.  0.
         24    2    1    2    0    0 -0.40060398843E+02 -0.54773010932E+00 -0.10841080846E+03  0.14083057353E+03  0.80468698807E+02 0.  0.
        -13    1    4    4    0    0  0.48512535346E+01 -0.21826675039E+02 -0.88672811612E+00  0.22376878488E+02  0.00000000000E+00 0.  1.
         14    1    4    4    0    0 -0.44911652378E+02  0.21278944930E+02 -0.10752408034E+03  0.11845369505E+03  0.00000000000E+00 0. -1.
        -11    1    3    3    0    0 -0.22040650843E+02 -0.31617628985E+02 -0.40518074761E+02  0.55921186813E+02  0.00000000000E+00 0. -1.
         11    1    3    3    0    0  0.27385318205E+02  0.32196688383E+02  0.77117888262E+01  0.42965731495E+02  0.00000000000E+00 0.  1.
         21    1    1    2  502  501  0.34715731481E+02 -0.31329288731E-01 -0.16323981490E+02  0.38362160595E+02  0.00000000000E+00 0. -1.
<scales pt_clust_5="13000.00000" pt_clust_6="13000.00000" pt_clust_7="13000.00000" pt_clust_8="13000.00000" pt_clust_9="34.71575"></scales>
<clustering>
<clus scale="   34.716">  1  9  2 -1</clus>
<clus scale="   80.469">  5  6 -1 -1</clus>
<clus scale="   85.413">  2  5  1 -1</clus>
<clus scale="   93.131">  7  8 -1 -1</clus>
<clus scale="   85.413">  2  5  1 -1</clus>
</clustering>
</event>
<event>
 9    2  0.5684583E-005  0.2001428E+03  0.7546771E-02  0.1187758E+00
         -1   -1    0    0    0  501 -0.00000000000E+00  0.00000000000E+00  0.12714138145E+03  0.12714138145E+03  0.00000000000E+00 0.  1.
          2   -1    0    0  502    0  0.00000000000E+00 -0.00000000000E+00 -0.60233821408E+03  0.60233821408E+03  0.00000000000E+00 0. -1.
         24    2    1    2    0    0 -0.16074286949E+02  0.87593078416E+01 -0.59775863029E+02  0.10266064467E+03  0.81430620711E+02 0.  0.
         23    2    1    2    0    0  0.46210835163E+02 -0.17656335105E+03 -0.40871542882E+03  0.45619839895E+03  0.88083024630E+02 0.  0.
        -11    1    3    3    0    0 -0.26040808411E+02 -0.26522955142E+02 -0.61126414127E+01  0.37669022249E+02  0.00000000000E+00 0.  1.
         12    1    3    3    0    0  0.99665214619E+01  0.35282262983E+02 -0.53663221616E+02  0.64991622426E+02  0.00000000000E+00 0. -1.
        -11    1    4    4    0    0 -0.13863191732E+02 -0.23620056936E+02 -0.19215280880E+02  0.33456272864E+02  0.00000000000E+00 0.  1.
         11    1    4    4    0    0  0.60074026895E+02 -0.15294329411E+03 -0.38950014794E+03  0.42274212609E+03  0.00000000000E+00 0. -1.
         21    1    1    2  502  501 -0.30136548214E+02  0.16780404321E+03 -0.67055407739E+01  0.17062055190E+03  0.00000000000E+00 0.  1.
<scales pt_clust_5="13000.00000" pt_clust_6="13000.00000" pt_clust_7="13000.00000" pt_clust_8="13000.00000" pt_clust_9="179.71787"></scales>
<clustering>
<clus scale="   81.431">  5  6 -1 -1</clus>
<clus scale="   83.463">  1  5  2 -1</clus>
<clus scale="   88.083">  7  8 -1 -1</clus>
<clus scale="  179.718">  1  9  2 -1</clus>
<clus scale="  200.143">  2  5  1 -1</clus>
</clustering>
</event>
<event>
 9    2  0.5684583E-005  0.1093946E+03  0.7546771E-02  0.1272978E+00
          2   -1    0    0  502    0  0.00000000000E+00  0.00000000000E+00  0.72482674057E+03  0.72482674057E+03  0.00000000000E+00 0. -1.
         -1   -1    0    0    0  501 -0.00000000000E+00 -0.00000000000E+00 -0.12075805632E+03  0.12075805632E+03  0.00000000000E+00 0.  1.
         23    2    1    2    0    0 -0.81251311371E+01  0.60472706575E+02 -0.87263386684E+02  0.14018213379E+03  0.91176564876E+02 0.  0.
         24    2    1    2    0    0 -0.34523805345E+02 -0.56520777010E+02  0.37112702601E+03  0.38234567073E+03  0.63768731512E+02 0.  0.
        -13    1    4    4    0    0 -0.32237858392E+02 -0.65976119521E+02  0.36064700775E+03  0.36804672537E+03  0.00000000000E+00 0.  1.
         14    1    4    4    0    0 -0.22859469526E+01  0.94553425101E+01  0.10480018267E+02  0.14298945357E+02  0.00000000000E+00 0. -1.
        -11    1    3    3    0    0  0.82764814641E+01  0.82125160886E+02 -0.65082161097E+02  0.10511293873E+03  0.00000000000E+00 0.  1.
         11    1    3    3    0    0 -0.16401612601E+02 -0.21652454311E+02 -0.22181225588E+02  0.35069195060E+02  0.00000000000E+00 0. -1.
         21    1    1    2  502  501  0.42648936482E+02 -0.39519295646E+01  0.32020504492E+03  0.32305699237E+03  0.00000000000E+00 0. -1.
<scales pt_clust_5="13000.00000" pt_clust_6="13000.00000" pt_clust_7="13000.00000" pt_clust_8="13000.00000" pt_clust_9="42.83164"></scales>
<clustering>
<clus scale="   42.832">  1  9  2 -1</clus>
<clus scale="   63.769">  5  6 -1 -1</clus>
<clus scale="   87.866">  1  5  2 -1</clus>
<clus scale="   91.177">  7  8 -1 -1</clus>
<clus scale="   42.832">  1  5  2 -1</clus>
</clustering>
</event>
<event>
 9    2  0.5684583E-005  0.1006307E+03  0.7546771E-02  0.1284048E+00
          2   -1    0    0  502    0  0.00000000000E+00  0.00000000000E+00  0.69924108684E+03  0.69924108684E+03  0.00000000000E+00 0. -1.
         -1   -1    0    0    0  501 -0.00000000000E+00 -0.00000000000E+00 -0.35365573434E+02  0.35365573434E+02  0.00000000000E+00 0.  1.
         23    2    1    2    0    0  0.19418560285E+02  0.44634545878E+02  0.73723897278E+02  0.12715013572E+03  0.91447366357E+02 0.  0.
         24    2    1    2    0    0 -0.32929632497E+02 -0.25725601500E+02  0.56820251614E+03  0.57548997579E+03  0.81169240584E+02 0.  0.
        -11    1    4    4    0    0  0.12505842243E+02  0.18176823950E+02  0.72659051126E+02  0.75935042830E+02  0.00000000000E+00 0.  1.
         12    1    4    4    0    0 -0.45435474740E+02 -0.43902425450E+02  0.49554346502E+03  0.49955493296E+03  0.00000000000E+00 0. -1.
        -11    1    3    3    0    0 -0.35090067798E+01 -0.26861212083E+02  0.10711309719E+02  0.29130224837E+02  0.00000000000E+00 0.  1.
         11    1    3    3    0    0  0.22927567064E+02  0.71495757961E+02  0.63012587560E+02  0.98019910880E+02  0.00000000000E+00 0. -1.
         21    1    1    2  502  501  0.13511072212E+02 -0.18908944378E+02  0.21949099987E+02  0.31966548767E+02  0.00000000000E+00 0.  1.
<scales pt_clust_5="13000.00000" pt_clust_6="13000.00000" pt_clust_7="13000.00000" pt_clust_8="13000.00000" pt_clust_9="23.23999"></scales>
<clustering>
<clus scale="   23.240">  2  9  1 -1</clus>
<clus scale="   81.169">  5  6 -1 -1</clus>
<clus scale="   91.391">  1  5  2 -1</clus>
<clus scale="   91.447">  7  8 -1 -1</clus>
<clus scale="   91.391">  1  5  2 -1</clus>
</clustering>
</event>
<event>
 9    2  0.5684583E-005  0.9896391E+02  0.7546771E-02  0.1287918E+00
          2   -1    0    0  502    0  0.00000000000E+00  0.00000000000E+00  0.29836148549E+03  0.29836148549E+03  0.00000000000E+00 0. -1.
         -1   -1    0    0    0  501 -0.00000000000E+00 -0.00000000000E+00 -0.22026401479E+03  0.22026401479E+03  0.00000000000E+00 0.  1.
         23    2    1    2    0    0 -0.42321817959E+02  0.23728632439E+02 -0.18792169657E+02  0.10502753057E+03  0.91232956026E+02 0.  0.
         24    2    1    2    0    0 -0.48586679710E+01 -0.40257035838E+02  0.24296701398E+03  0.25920306870E+03  0.80678530940E+02 0.  0.
        -11    1    4    4    0    0  0.17004520215E+02  0.11771161316E+02  0.18493071436E+02  0.27743605346E+02  0.00000000000E+00 0.  1.
         12    1    4    4    0    0 -0.21863188186E+02 -0.52028197154E+02  0.22447394254E+03  0.23145946336E+03  0.00000000000E+00 0. -1.
        -11    1    3    3    0    0  0.25520302211E+02 -0.68156535859E+01  0.50633093258E+01  0.26895651323E+02  0.00000000000E+00 0.  1.
         11    1    3    3    0    0 -0.67842120169E+02  0.30544286024E+02 -0.23855478983E+02  0.78131879251E+02  0.00000000000E+00 0. -1.
         21    1    1    2  502  501  0.47180485930E+02  0.16528403399E+02 -0.14607737362E+03  0.15439490100E+03  0.00000000000E+00 0.  1.
<scales pt_clust_5="13000.00000" pt_clust_6="13000.00000" pt_clust_7="13000.00000" pt_clust_8="13000.00000" pt_clust_9="49.99186"></scales>
<clustering>
<clus scale="   49.992">  2  9  1 -1</clus>
<clus scale="   80.679">  5  6 -1 -1</clus>
<clus scale="   89.328">  1  5  2 -1</clus>
<clus scale="   91.233">  7  8 -1 -1</clus>
<clus scale="   89.328">  1  5  2 -1</clus>
</clustering>
</event>
<event>
 9    2  0.5684583E-005  0.9602814E+02  0.7546771E-02  0.1290976E+00
          2   -1    0    0  502    0  0.00000000000E+00  0.00000000000E+00  0.16900851044E+03  0.16900851044E+03  0.00000000000E+00 0. -1.
         -1   -1    0    0    0  501 -0.00000000000E+00 -0.00000000000E+00 -0.11034126695E+03  0.11034126695E+03  0.00000000000E+00 0.  1.
         23    2    1    2    0    0 -0.74398627024E+02  0.20848442065E+02 -0.20645359394E+02  0.11734468560E+03  0.85870432242E+02 0.  0.
         24    2    1    2    0    0  0.27874383997E+02 -0.18392871550E+02  0.73864901623E+02  0.11509866937E+03  0.81709246675E+02 0.  0.
        -11    1    4    4    0    0  0.31899750651E+02  0.27153185542E+02  0.28347119871E+02  0.50581110917E+02  0.00000000000E+00 0.  1.
         12    1    4    4    0    0 -0.40253666538E+01 -0.45546057092E+02  0.45517781753E+02  0.64517558455E+02  0.00000000000E+00 0. -1.
        -13    1    3    3    0    0 -0.13592805642E+02  0.45023080393E+02  0.44986273212E+01  0.47244891587E+02  0.00000000000E+00 0. -1.
         13    1    3    3    0    0 -0.60805821382E+02 -0.24174638328E+02 -0.25143986715E+02  0.70099794009E+02  0.00000000000E+00 0.  1.
         21    1    1    2  502  501  0.46524243028E+02 -0.24555705149E+01  0.54477012597E+01  0.46906422427E+02  0.00000000000E+00 0. -1.
<scales pt_clust_5="13000.00000" pt_clust_6="13000.00000" pt_clust_7="13000.00000" pt_clust_8="13000.00000" pt_clust_9="46.58900"></scales>
<clustering>
<clus scale="   46.589">  2  9  1 -1</clus>
<clus scale="   81.709">  5  6 -1 -1</clus>
<clus scale="   85.870">  7  8 -1 -1</clus>
<clus scale="   92.326">  1  5  2 -1</clus>
<clus scale="   92.326">  1  5  2 -1</clus>
</clustering>
</event>
<event>
 9    2  0.5684583E-005  0.1032294E+03  0.7546771E-02  0.1278867E+00
          2   -1    0    0  502    0  0.00000000000E+00  0.00000000000E+00  0.12499584635E+04  0.12499584635E+04  0.00000000000E+00 0. -1.
         -1   -1    0    0    0  501 -0.00000000000E+00 -0.00000000000E+00 -0.15481223546E+02  0.15481223546E+02  0.00000000000E+00 0.  1.
         23    2    1    2    0    0  0.67335850880E+01  0.35591206616E+02  0.24497380994E+03  0.26375902467E+03  0.90799671705E+02 0.  0.
         24    2    1    2    0    0 -0.33763242582E+02 -0.41391436101E+02  0.94094867815E+03  0.94580751163E+03  0.79462108004E+02 0.  0.
        -11    1    4    4    0    0 -0.33774589670E+02 -0.21171709693E+02  0.17066117004E+03  0.17525466943E+03  0.00000000000E+00 0.  1.
         12    1    4    4    0    0  0.11347087637E-01 -0.20219726408E+02  0.77028750811E+03  0.77055284220E+03  0.00000000000E+00 0. -1.
        -11    1    3    3    0    0  0.43759314610E+01 -0.30848688548E+02  0.84344714807E+02  0.89915634220E+02  0.00000000000E+00 0. -1.
         11    1    3    3    0    0  0.23576536271E+01  0.66439895163E+02  0.16062909514E+03  0.17384339045E+03  0.00000000000E+00 0.  1.
         21    1    1    2  502  501  0.27029657494E+02  0.58002294854E+01  0.48554751887E+02  0.55873150772E+02  0.00000000000E+00 0. -1.
<scales pt_clust_5="13000.00000" pt_clust_6="13000.00000" pt_clust_7="13000.00000" pt_clust_8="13000.00000" pt_clust_9="27.64498"></scales>
<clustering>
<clus scale="   27.645">  2  9  1 -1</clus>
<clus scale="   79.462">  5  6 -1 -1</clus>
<clus scale="   90.800">  7  8 -1 -1</clus>
<clus scale="   93.413">  1  5  2 -1</clus>
<clus scale="   93.413">  1  5  2 -1</clus>
</clustering>
</event>
<event>
 9    2  0.5684583E-005  0.1170394E+03  0.7546771E-02  0.1252114E+00
         -1   -1    0    0    0  501 -0.00000000000E+00  0.00000000000E+00  0.34516888915E+02  0.34516888915E+02  0.00000000000E+00 0.  1.
          2   -1    0    0  502    0  0.00000000000E+00 -0.00000000000E+00 -0.46586617719E+03  0.46586617719E+03  0.00000000000E+00 0. -1.
         23    2    1    2    0    0  0.74286242324E+02 -0.20606188428E+01 -0.19667149820E+03  0.22951717630E+03  0.92063912916E+02 0.  0.
         24    2    1    2    0    0 -0.68843515926E+02 -0.23161637938E+02 -0.20280373620E+03  0.22985685644E+03  0.80180595393E+02 0.  0.
        -11    1    4    4    0    0 -0.51926221752E+02 -0.35267162412E+02 -0.64516730788E+02  0.90013964481E+02  0.00000000000E+00 0.  1.
         12    1    4    4    0    0 -0.16917294174E+02  0.12105524474E+02 -0.13828700541E+03  0.13984289195E+03  0.00000000000E+00 0. -1.
        -13    1    3    3    0    0  0.21771972002E+02 -0.41080568201E+02 -0.12019841586E+03  0.12887703839E+03  0.00000000000E+00 0.  1.
         13    1    3    3    0    0  0.52514270322E+02  0.39019949358E+02 -0.76473082347E+02  0.10064013791E+03  0.00000000000E+00 0. -1.
         21    1    1    2  502  501 -0.54427263982E+01  0.25222256781E+02 -0.31874053876E+02  0.41009033374E+02  0.00000000000E+00 0. -1.
<scales pt_clust_5="13000.00000" pt_clust_6="13000.00000" pt_clust_7="13000.00000" pt_clust_8="13000.00000" pt_clust_9="25.80282"></scales>
<clustering>
<clus scale="   25.803">  1  9  2 -1</clus>
<clus scale="   80.181">  5  6 -1 -1</clus>
<clus scale="   92.064">  7  8 -1 -1</clus>
<clus scale="  107.942">  2  5  1 -1</clus>
<clus scale="  107.942">  2  5  1 -1</clus>
</clustering>
</event>
<event>
 9    2  0.5684583E-005  0.1074540E+03  0.7546771E-02  0.1269611E+00
         -1   -1    0    0    0  501 -0.00000000000E+00  0.00000000000E+00  0.57110458562E+02  0.57110458562E+02  0.00000000000E+00 0.  1.
          2   -1    0    0  502    0  0.00000000000E+00 -0.00000000000E+00 -0.67808213949E+03  0.67808213949E+03  0.00000000000E+00 0. -1.
         24    2    1    2    0    0 -0.55582206528E+02  0.19381362800E+02 -0.72683968699E+01  0.10002417762E+03  0.80541837627E+02 0.  0.
         23    2    1    2    0    0  0.27054114300E+02 -0.50166537703E+02 -0.53829259500E+03  0.54886459049E+03  0.90800959512E+02 0.  0.
        -13    1    3    3    0    0 -0.26256674795E+02 -0.29910428905E+02  0.81637633707E+01  0.40628730733E+02  0.00000000000E+00 0.  1.
         14    1    3    3    0    0 -0.29325531733E+02  0.49291791705E+02 -0.15432160241E+02  0.59395446885E+02  0.00000000000E+00 0. -1.
        -13    1    4    4    0    0 -0.33495498707E+02 -0.13497995681E+02 -0.20198858355E+03  0.20519145256E+03  0.00000000000E+00 0.  1.
         13    1    4    4    0    0  0.60549613006E+02 -0.36668542022E+02 -0.33630401146E+03  0.34367313793E+03  0.00000000000E+00 0. -1.
         21    1    1    2  502  501  0.28528092229E+02  0.30785174903E+02 -0.75410689053E+02  0.86303829946E+02  0.00000000000E+00 0. -1.
<scales pt_clust_5="13000.00000" pt_clust_6="13000.00000" pt_clust_7="13000.00000" pt_clust_8="13000.00000" pt_clust_9="41.97117"></scales>
<clustering>
<clus scale="   41.971">  2  9  1 -1</clus>
<clus scale="   80.542">  5  6 -1 -1</clus>
<clus scale="   90.801">  7  8 -1 -1</clus>
<clus scale="   98.937">  1  5  2 -1</clus>
<clus scale="   41.971">  2  5  1 -1</clus>
</clustering>
</event>
<event>
 9    2  0.5684583E-005  0.1056907E+03  0.7546771E-02  0.1272904E+00
          2   -1    0    0  502    0  0.00000000000E+00  0.00000000000E+00  0.36548492732E+02  0.36548492732E+02  0.00000000000E+00 0. -1.
         -1   -1    0    0    0  501 -0.00000000000E+00 -0.00000000000E+00 -0.62110998074E+03  0.62110998074E+03  0.00000000000E+00 0.  1.
         23    2    1    2    0    0  0.43591323799E+02 -0.55976470864E+02 -0.26258399656E+03  0.28652422807E+03  0.90067803451E+02 0.  0.
         24    2    1    2    0    0 -0.44487920043E+02  0.25185199725E+02 -0.72373899530E+02  0.11963701011E+03  0.80383851239E+02 0.  0.
        -11    1    4    4    0    0 -0.92889471427E+01  0.47642574797E+02 -0.57651821603E+02  0.75364660196E+02  0.00000000000E+00 0.  1.
         12    1    4    4    0    0 -0.35198972901E+02 -0.22457375072E+02 -0.14722077926E+02  0.44272349914E+02  0.00000000000E+00 0. -1.
        -11    1    3    3    0    0  0.69708094963E+02 -0.48914493530E+02 -0.22176560213E+03  0.23755384331E+03  0.00000000000E+00 0.  1.
         11    1    3    3    0    0 -0.26116771164E+02 -0.70619773341E+01 -0.40818394432E+02  0.48970384763E+02  0.00000000000E+00 0. -1.
         21    1    1    2  502  501  0.89659624399E+00  0.30791271140E+02 -0.24960359191E+03  0.25149723529E+03  0.00000000000E+00 0.  1.
<scales pt_clust_5="13000.00000" pt_clust_6="13000.00000" pt_clust_7="13000.00000" pt_clust_8="13000.00000" pt_clust_9="30.80432"></scales>
<clustering>
<clus scale="   30.804">  2  9  1 -1</clus>
<clus scale="   80.384">  5  6 -1 -1</clus>
<clus scale="   90.068">  7  8 -1 -1</clus>
<clus scale="   97.570">  1  5  2 -1</clus>
<clus scale="   97.570">  1  5  2 -1</clus>
</clustering>
</event>
<event>
 9    2  0.5684583E-005  0.1526538E+03  0.7546771E-02  0.1225767E+00
          2   -1    0    0  502    0  0.00000000000E+00  0.00000000000E+00  0.11435889268E+04  0.11435889268E+04  0.00000000000E+00 0. -1.
         -1   -1    0    0    0  501 -0.00000000000E+00 -0.00000000000E+00 -0.12150851582E+03  0.12150851582E+03  0.00000000000E+00 0.  1.
         23    2    1    2    0    0 -0.11312217750E+03  0.62669046128E+02 -0.26406309609E+02  0.15818962650E+03  0.87193052247E+02 0.  0.
         24    2    1    2    0    0  0.17101286564E+02  0.60399822207E+01  0.94864216471E+03  0.95227962525E+03  0.81151664213E+02 0.  0.
        -11    1    4    4    0    0 -0.26641626166E+02  0.28032101771E+01  0.14582905949E+03  0.14826917692E+03  0.00000000000E+00 0.  1.
         12    1    4    4    0    0  0.43742912731E+02  0.32367720436E+01  0.80281310522E+03  0.80401044833E+03  0.00000000000E+00 0. -1.
        -11    1    3    3    0    0 -0.48418151189E+02  0.22171643255E+02  0.31953040790E+02  0.62103912477E+02  0.00000000000E+00 0. -1.
         11    1    3    3    0    0 -0.64704026306E+02  0.40497402873E+02 -0.58359350399E+02  0.96085714020E+02  0.00000000000E+00 0.  1.
         21    1    1    2  502  501  0.96020890931E+02 -0.68709028349E+02  0.99844555835E+02  0.15462819084E+03  0.00000000000E+00 0. -1.
<scales pt_clust_5="13000.00000" pt_clust_6="13000.00000" pt_clust_7="13000.00000" pt_clust_8="13000.00000" pt_clust_9="125.30188"></scales>
<clustering>
<clus scale="   81.152">  5  6 -1 -1</clus>
<clus scale="   83.154">  1  5  2 -1</clus>
<clus scale="   87.193">  7  8 -1 -1</clus>
<clus scale="  125.302">  1  9  2 -1</clus>
<clus scale="   83.154">  1  5  2 -1</clus>
</clustering>
</event>
<event>
 9    2  0.5684583E-005  0.9613539E+02  0.7546771E-02  0.1293086E+00
          2   -1    0    0  502    0  0.00000000000E+00  0.00000000000E+00  0.73984245537E+02  0.73984245537E+02  0.00000000000E+00 0. -1.
         -1   -1    0    0    0  501 -0.00000000000E+00 -0.00000000000E+00 -0.21323649766E+03  0.21323649766E+03  0.00000000000E+00 0.  1.
         24    2    1    2    0    0  0.11589083864E+02  0.19367636334E+02 -0.59193706293E+02  0.10278112083E+03  0.80936096592E+02 0.  0.
         23    2    1    2    0    0 -0.14990165220E+02 -0.41151991877E+02  0.20270607355E+01  0.99444491299E+02  0.89257528455E+02 0.  0.
        -13    1    3    3    0    0 -0.22314803276E+02 -0.68491516592E+00  0.89656715685E+01  0.24058321236E+02  0.00000000000E+00 0.  1.
         14    1    3    3    0    0  0.33903887140E+02  0.20052551500E+02 -0.68159377861E+02  0.78722799590E+02  0.00000000000E+00 0. -1.
        -13    1    4    4    0    0 -0.27368625106E+02 -0.85261924317E+01 -0.37186477480E+02  0.46952866844E+02  0.00000000000E+00 0.  1.
         13    1    4    4    0    0  0.12378459886E+02 -0.32625799445E+02  0.39213538215E+02  0.52491624455E+02  0.00000000000E+00 0. -1.
         21    1    1    2  502  501  0.34010813559E+01  0.21784355542E+02 -0.82085606570E+02  0.84995131077E+02  0.00000000000E+00 0.  1.
<scales pt_clust_5="13000.00000" pt_clust_6="13000.00000" pt_clust_7="13000.00000" pt_clust_8="13000.00000" pt_clust_9="22.04825"></scales>
<clustering>
<clus scale="   22.048">  2  9  1 -1</clus>
<clus scale="   80.936">  5  6 -1 -1</clus>
<clus scale="   88.463">  2  5  1 -1</clus>
<clus scale="   89.258">  7  8 -1 -1</clus>
<clus scale="   96.135">  1  5  2 -1</clus>
</clustering>
</event>
<event>
 9    2  0.5684583E-005  0.9374372E+02  0.7546771E-02  0.1302349E+00
         -1   -1    0    0    0  501 -0.00000000000E+00  0.00000000000E+00  0.36169445537E+02  0.36169445537E+02  0.00000000000E+00 0.  1.
          2   -1    0    0  502    0  0.00000000000E+00 -0.00000000000E+00 -0.90602697144E+03  0.90602697144E+03  0.00000000000E+00 0. -1.
         23    2    1    2    0    0 -0.20997501441E+02 -0.44879383736E+02 -0.11738408173E+03  0.15727451917E+03  0.92201939149E+02 0.  0.
         24    2    1    2    0    0  0.15963696306E+02 -0.55302210854E+00 -0.72925969596E+03  0.73365474653E+03  0.78577589128E+02 0.  0.
        -13    1    4    4    0    0 -0.69894068501E+01  0.24837229391E+02 -0.94094209538E+02  0.97567720280E+02  0.00000000000E+00 0.  1.
         14    1    4    4    0    0  0.22953103156E+02 -0.25390251500E+02 -0.63516548643E+03  0.63608702625E+03  0.00000000000E+00 0. -1.
        -11    1    3    3    0    0  0.85157773994E+01 -0.26090597339E+02  0.67843008909E+01  0.28271265851E+02  0.00000000000E+00 0.  1.
         11    1    3    3    0    0 -0.29513278840E+02 -0.18788786397E+02 -0.12416838262E+03  0.12900325331E+03  0.00000000000E+00 0. -1.
         21    1    1    2  502  501  0.50338051343E+01  0.45432405845E+02 -0.23213748205E+02  0.51267151283E+02  0.00000000000E+00 0. -1.
<scales pt_clust_5="13000.00000" pt_clust_6="13000.00000" pt_clust_7="13000.00000" pt_clust_8="13000.00000" pt_clust_9="45.71042"></scales>
<clustering>
<clus scale="   45.710">  1  9  2 -1</clus>
<clus scale="   78.578">  5  6 -1 -1</clus>
<clus scale="   80.381">  2  5  1 -1</clus>
<clus scale="   92.202">  7  8 -1 -1</clus>
<clus scale="   80.381">  2  5  1 -1</clus>
</clustering>
</event>
<event>
 9    2  0.5684583E-005  0.8810013E+02  0.7546771E-02  0.1310548E+00
         -1   -1    0    0    0  501 -0.00000000000E+00  0.00000000000E+00  0.63586694509E+02  0.63586694509E+02  0.00000000000E+00 0.  1.
          2   -1    0    0  502    0  0.00000000000E+00 -0.00000000000E+00 -0.90307484779E+03  0.90307484779E+03  0.00000000000E+00 0. -1.
         23    2    1    2    0    0 -0.46364010920E+01  0.27814564781E+02 -0.33592067278E+01  0.91782610488E+02  0.87278961320E+02 0.  0.
         24    2    1    2    0    0 -0.71726031175E+01 -0.91645408919E+01 -0.84642820555E+03  0.85052014064E+03  0.82512831984E+02 0.  0.
        -13    1    4    4    0    0  0.26738849776E+02 -0.27570913525E+01 -0.10831844716E+03  0.11160400367E+03  0.00000000000E+00 0.  1.
         14    1    4    4    0    0 -0.33911452894E+02 -0.64074495394E+01 -0.73810975839E+03  0.73891613697E+03  0.00000000000E+00 0. -1.
        -13    1    3    3    0    0 -0.34103421934E+02  0.20101702356E+02  0.27672302081E+02  0.48299877098E+02  0.00000000000E+00 0.  1.
         13    1    3    3    0    0  0.29467020842E+02  0.77128624246E+01 -0.31031508808E+02  0.43482733390E+02  0.00000000000E+00 0. -1.
         21    1    1    2  502  501  0.11809004210E+02 -0.18650023889E+02  0.10299258995E+02  0.24358791171E+02  0.00000000000E+00 0. -1.
<scales pt_clust_5="13000.00000" pt_clust_6="13000.00000" pt_clust_7="13000.00000" pt_clust_8="13000.00000" pt_clust_9="22.07433"></scales>
<clustering>
<clus scale="   22.074">  1  9  2 -1</clus>
<clus scale="   82.513">  5  6 -1 -1</clus>
<clus scale="   83.381">  2  5  1 -1</clus>
<clus scale="   87.279">  7  8 -1 -1</clus>
<clus scale="   83.381">  2  5  1 -1</clus>
</clustering>
</event>
<event>
 9    2  0.5684583E-005  0.1051727E+03  0.7546771E-02  0.1277268E+00
         -3   -1    0    0    0  501 -0.00000000000E+00  0.00000000000E+00  0.17363924217E+03  0.17363924217E+03  0.00000000000E+00 0.  1.
          4   -1    0    0  502    0  0.00000000000E+00 -0.00000000000E+00 -0.19091107831E+03  0.19091107831E+03  0.00000000000E+00 0. -1.
         23    2    1    2    0    0  0.22352978357E+02 -0.58270538271E+02  0.71232656820E+02  0.13537714806E+03  0.96735565060E+02 0.  0.
         24    2    1    2    0    0 -0.36295954110E+02  0.17659202688E+02 -0.13707598966E+03  0.16434356929E+03  0.81177201846E+02 0.  0.
        -13    1    4    4    0    0 -0.22896356305E+02 -0.31920514052E+02 -0.60986616987E+02  0.72543296044E+02  0.00000000000E+00 0.  1.
         14    1    4    4    0    0 -0.13399597804E+02  0.49579716740E+02 -0.76089372677E+02  0.91800273244E+02  0.00000000000E+00 0. -1.
        -11    1    3    3    0    0  0.42458603799E+02 -0.20657961517E+02  0.78991635752E+02  0.92028055122E+02  0.00000000000E+00 0.  1.
         11    1    3    3    0    0 -0.20105625442E+02 -0.37612576754E+02 -0.77589789323E+01  0.43349092938E+02  0.00000000000E+00 0. -1.
         21    1    1    2  502  501  0.13942975753E+02  0.40611335583E+02  0.48571496697E+02  0.64829603130E+02  0.00000000000E+00 0.  1.
<scales pt_clust_5="13000.00000" pt_clust_6="13000.00000" pt_clust_7="13000.00000" pt_clust_8="13000.00000" pt_clust_9="42.93818"></scales>
<clustering>
<clus scale="   42.938">  1  9  2 -1</clus>
<clus scale="   81.177">  5  6 -1 -1</clus>
<clus scale="   91.067">  2  5  1 -1</clus>
<clus scale="   96.736">  7  8 -1 -1</clus>
<clus scale="   91.067">  2  5  1 -1</clus>
</clustering>
</event>
<event>
 9    2  0.5684583E-005  0.9365085E+02  0.7546771E-02  0.1295823E+00
          4   -1    0    0  502    0  0.00000000000E+00  0.00000000000E+00  0.45997523862E+03  0.45997523862E+03  0.00000000000E+00 0. -1.
         -3   -1    0    0    0  501 -0.00000000000E+00 -0.00000000000E+00 -0.61643549722E+02  0.61643549722E+02  0.00000000000E+00 0.  1.
         24    2    1    2    0    0  0.43357527813E+01 -0.37346371291E+02  0.35063191180E+02  0.10252368218E+03  0.88702468014E+02 0.  0.
         23    2    1    2    0    0 -0.82022998733E+01  0.15417346277E+02  0.37999818839E+03  0.39124344778E+03  0.91475898248E+02 0.  0.
        -11    1    3    3    0    0  0.21610812223E+02  0.42776118910E+00 -0.22720698681E+02  0.31359852249E+02  0.00000000000E+00 0.  1.
         12    1    3    3    0    0 -0.17275059441E+02 -0.37774132481E+02  0.57783889861E+02  0.71163829933E+02  0.00000000000E+00 0. -1.
        -13    1    4    4    0    0 -0.41093748383E+02  0.32205176471E+02  0.16396179759E+03  0.17207364882E+03  0.00000000000E+00 0. -1.
         13    1    4    4    0    0  0.32891448509E+02 -0.16787830194E+02  0.21603639079E+03  0.21916979896E+03  0.00000000000E+00 0.  1.
         21    1    1    2  502  501  0.38665470920E+01  0.21929025015E+02 -0.16729690673E+02  0.27851658380E+02  0.00000000000E+00 0. -1.
<scales pt_clust_5="13000.00000" pt_clust_6="13000.00000" pt_clust_7="13000.00000" pt_clust_8="13000.00000" pt_clust_9="22.26729"></scales>
<clustering>
<clus scale="   22.267">  2  9  1 -1</clus>
<clus scale="   88.702">  5  6 -1 -1</clus>
<clus scale="   90.944">  2  5  1 -1</clus>
<clus scale="   91.476">  7  8 -1 -1</clus>
<clus scale="   93.651">  1  5  2 -1</clus>
</clustering>
</event>
<event>
 9    2  0.5684583E-005  0.1224501E+03  0.7546771E-02  0.1240133E+00
         -1   -1    0    0    0  501 -0.00000000000E+00  0.00000000000E+00  0.16015425921E+03  0.16015425921E+03  0.00000000000E+00 0.  1.
          2   -1    0    0  502    0  0.00000000000E+00 -0.00000000000E+00 -0.84318139292E+03  0.84318139292E+03  0.00000000000E+00 0. -1.
         23    2    1    2    0    0 -0.48907884288E+02 -0.68188843814E+02  0.10408986742E+01  0.12468196267E+03  0.92210676058E+02 0.  0.
         24    2    1    2    0    0 -0.10735950711E+02  0.77054165201E+02 -0.76660634490E+03  0.77643552078E+03  0.95468449625E+02 0.  0.
        -13    1    4    4    0    0  0.13543265719E+02  0.35481117593E+02 -0.84616387591E+02  0.92748384358E+02  0.00000000000E+00 0.  1.
         14    1    4    4    0    0 -0.24279216430E+02  0.41573047608E+02 -0.68198995731E+03  0.68368713642E+03  0.00000000000E+00 0. -1.
        -13    1    3    3    0    0 -0.19138667932E+02  0.20923412263E+02 -0.10031968274E+02  0.30078533515E+02  0.00000000000E+00 0. -1.
         13    1    3    3    0    0 -0.29769216356E+02 -0.89112256077E+02  0.11072866948E+02  0.94603429156E+02  0.00000000000E+00 0.  1.
         21    1    1    2  502  501  0.59643834999E+02 -0.88653213869E+01  0.82538312507E+02  0.10221816868E+03  0.00000000000E+00 0.  1.
<scales pt_clust_5="13000.00000" pt_clust_6="13000.00000" pt_clust_7="13000.00000" pt_clust_8="13000.00000" pt_clust_9="60.29910"></scales>
<clustering>
<clus scale="   60.299">  1  9  2 -1</clus>
<clus scale="   92.211">  7  8 -1 -1</clus>
<clus scale="   95.468">  5  6 -1 -1</clus>
<clus scale="  119.927">  1  7  2 -1</clus>
<clus scale="  122.450">  2  5  1 -1</clus>
</clustering>
</event>
<event>
 9    2  0.5684583E-005  0.1454601E+03  0.7546771E-02  0.1208295E+00
          2   -1    0    0  502    0  0.00000000000E+00  0.00000000000E+00  0.32497234073E+03  0.32497234073E+03  0.00000000000E+00 0. -1.
         -1   -1    0    0    0  501 -0.00000000000E+00 -0.00000000000E+00 -0.11002892022E+03  0.11002892022E+03  0.00000000000E+00 0.  1.
         24    2    1    2    0    0 -0.63816194615E+01 -0.12870433324E+03  0.13530681950E+03  0.20429290457E+03  0.82596156040E+02 0.  0.
         23    2    1    2    0    0  0.24213901849E+02  0.94420314262E+02  0.11585362857E+03  0.17774556437E+03  0.93112370891E+02 0.  0.
        -11    1    3    3    0    0 -0.32434386037E+01 -0.13418388415E+03  0.97338185911E+02  0.16580276565E+03  0.00000000000E+00 0.  1.
         12    1    3    3    0    0 -0.31381808578E+01  0.54795509158E+01  0.37968633592E+02  0.38490138921E+02  0.00000000000E+00 0. -1.
        -11    1    4    4    0    0  0.51565843659E+02  0.20525831677E+02  0.40374630686E+02  0.68632767694E+02  0.00000000000E+00 0.  1.
         11    1    4    4    0    0 -0.27351941810E+02  0.73894482585E+02  0.75478997884E+02  0.10911279668E+03  0.00000000000E+00 0. -1.
         21    1    1    2  502  501 -0.17832282388E+02  0.34284018973E+02 -0.36217027563E+02  0.52962792011E+02  0.00000000000E+00 0.  1.
<scales pt_clust_5="13000.00000" pt_clust_6="13000.00000" pt_clust_7="13000.00000" pt_clust_8="13000.00000" pt_clust_9="38.64433"></scales>
<clustering>
<clus scale="   38.644">  2  9  1 -1</clus>
<clus scale="   82.596">  5  6 -1 -1</clus>
<clus scale="   93.112">  7  8 -1 -1</clus>
<clus scale="  138.964">  2  5  1 -1</clus>
<clus scale="  145.460">  1  5  2 -1</clus>
</clustering>
</event>
<event>
 9    2  0.5684583E-005  0.9148454E+02  0.7546771E-02  0.1306106E+00
         -1   -1    0    0    0  501 -0.00000000000E+00  0.00000000000E+00  0.46292435233E+02  0.46292435233E+02  0.00000000000E+00 0.  1.
          2   -1    0    0  502    0  0.00000000000E+00 -0.00000000000E+00 -0.27347961715E+03  0.27347961715E+03  0.00000000000E+00 0. -1.
         23    2    1    2    0    0 -0.22181996154E+02 -0.83917006881E+01 -0.85285436791E+02  0.12690651909E+03  0.90935126687E+02 0.  0.
         24    2    1    2    0    0  0.40950296199E+01 -0.32619473196E+01 -0.14979100358E+03  0.16994859045E+03  0.80110979739E+02 0.  0.
        -11    1    4    4    0    0 -0.21746451232E+02 -0.33806828938E+02 -0.71396006092E+02  0.81934116886E+02  0.00000000000E+00 0.  1.
         12    1    4    4    0    0  0.25841480852E+02  0.30544881618E+02 -0.78394997485E+02  0.88014473562E+02  0.00000000000E+00 0. -1.
        -13    1    3    3    0    0  0.19056607208E+01 -0.29171215830E+02  0.63423199458E+01  0.29913481878E+02  0.00000000000E+00 0.  1.
         13    1    3    3    0    0 -0.24087656875E+02  0.20779515142E+02 -0.91627756737E+02  0.96993037214E+02  0.00000000000E+00 0. -1.
         21    1    1    2  502  501  0.18086966535E+02  0.11653648008E+02  0.78892584520E+01  0.22916942842E+02  0.00000000000E+00 0.  1.
<scales pt_clust_5="13000.00000" pt_clust_6="13000.00000" pt_clust_7="13000.00000" pt_clust_8="13000.00000" pt_clust_9="21.51618"></scales>
<clustering>
<clus scale="   21.516">  1  9  2 -1</clus>
<clus scale="   80.111">  5  6 -1 -1</clus>
<clus scale="   80.734">  2  5  1 -1</clus>
<clus scale="   90.935">  7  8 -1 -1</clus>
<clus scale="   80.734">  2  5  1 -1</clus>
</clustering>
</event>
<event>
 9    2  0.5684583E-005  0.1085844E+03  0.7546771E-02  0.1266552E+00
         -1   -1    0    0    0  501 -0.00000000000E+00  0.00000000000E+00  0.12211373992E+03  0.12211373992E+03  0.00000000000E+00 0.  1.
          2   -1    0    0  502    0  0.00000000000E+00 -0.00000000000E+00 -0.21842637035E+03  0.21842637035E+03  0.00000000000E+00 0. -1.
         24    2    1    2    0    0 -0.68810654946E+02 -0.20470240054E+02  0.35473010379E+02  0.11559353618E+03  0.83364226022E+02 0.  0.
         23    2    1    2    0    0 -0.75611139263E+00  0.45070794863E+02 -0.10500921034E+03  0.14645008051E+03  0.91590084448E+02 0.  0.
        -13    1    3    3    0    0 -0.76490904155E+02  0.24031223053E+01  0.45977197204E+02  0.89277858834E+02  0.00000000000E+00 0.  1.
         14    1    3    3    0    0  0.76802492093E+01 -0.22873362359E+02 -0.10504186825E+02  0.26315677350E+02  0.00000000000E+00 0. -1.
        -11    1    4    4    0    0 -0.13517836653E+02 -0.26239914107E+02 -0.27218728340E+02  0.40151266139E+02  0.00000000000E+00 0.  1.
         11    1    4    4    0    0  0.12761725260E+02  0.71310708970E+02 -0.77790482004E+02  0.10629881437E+03  0.00000000000E+00 0. -1.
         21    1    1    2  502  501  0.69566766338E+02 -0.24600554809E+02 -0.26776430467E+02  0.78496493579E+02  0.00000000000E+00 0. -1.
<scales pt_clust_5="13000.00000" pt_clust_6="13000.00000" pt_clust_7="13000.00000" pt_clust_8="13000.00000" pt_clust_9="73.78836"></scales>
<clustering>
<clus scale="   73.788">  2  9  1 -1</clus>
<clus scale="   83.364">  5  6 -1 -1</clus>
<clus scale="   91.590">  7  8 -1 -1</clus>
<clus scale="  101.742">  1  5  2 -1</clus>
<clus scale="   73.788">  2  5  1 -1</clus>
</clustering>
</event>
<event>
 9    2  0.5684583E-005  0.1031258E+03  0.7546771E-02  0.1279168E+00
         -1   -1    0    0    0  501 -0.00000000000E+00  0.00000000000E+00  0.57427560281E+02  0.57427560281E+02  0.00000000000E+00 0.  1.
          2   -1    0    0  502    0  0.00000000000E+00 -0.00000000000E+00 -0.69967155747E+03  0.69967155747E+03  0.00000000000E+00 0. -1.
         23    2    1    2    0    0  0.40735322977E+02  0.55456111348E+02 -0.63936647187E+02  0.13146657245E+03  0.91982704865E+02 0.  0.
         24    2    1    2    0    0 -0.33073291277E+02 -0.29641549505E+02 -0.58937202253E+03  0.59652025733E+03  0.80650929353E+02 0.  0.
        -13    1    4    4    0    0 -0.15841500303E+02  0.27428193581E+02 -0.16905617577E+03  0.17199781830E+03  0.00000000000E+00 0.  1.
         14    1    4    4    0    0 -0.17231790974E+02 -0.57069743086E+02 -0.42031584676E+03  0.42452243902E+03  0.00000000000E+00 0. -1.
        -11    1    3    3    0    0  0.62216696305E+02  0.47729501735E+02 -0.72779133357E+02  0.10698516200E+03  0.00000000000E+00 0.  1.
         11    1    3    3    0    0 -0.21481373328E+02  0.77266096134E+01  0.88424861700E+01  0.24481410455E+02  0.00000000000E+00 0. -1.
         21    1    1    2  502  501 -0.76620317000E+01 -0.25814561843E+02  0.11064672529E+02  0.29112287974E+02  0.00000000000E+00 0. -1.
<scales pt_clust_5="13000.00000" pt_clust_6="13000.00000" pt_clust_7="13000.00000" pt_clust_8="13000.00000" pt_clust_9="26.92765"></scales>
<clustering>
<clus scale="   26.928">  1  9  2 -1</clus>
<clus scale="   80.651">  5  6 -1 -1</clus>
<clus scale="   91.983">  7  8 -1 -1</clus>
<clus scale="   93.159">  2  5  1 -1</clus>
<clus scale="   93.159">  2  5  1 -1</clus>
</clustering>
</event>
<event>
 9    2  0.5684583E-005  0.1633655E+03  0.7546771E-02  0.1185588E+00
          2   -1    0    0  502    0  0.00000000000E+00  0.00000000000E+00  0.86627532930E+03  0.86627532930E+03  0.00000000000E+00 0. -1.
         -1   -1    0    0    0  501 -0.00000000000E+00 -0.00000000000E+00 -0.98528908845E+02  0.98528908845E+02  0.00000000000E+00 0.  1.
         24    2    1    2    0    0  0.15279260930E+03 -0.22008801134E+02  0.48194309312E+02  0.18388119095E+03  0.87519324432E+02 0.  0.
         23    2    1    2    0    0 -0.13255011041E+03 -0.12973986235E+02  0.72252341788E+03  0.74039672442E+03  0.91702584801E+02 0.  0.
        -11    1    3    3    0    0  0.95082815602E+02 -0.52094438936E+00 -0.14289764635E+02  0.96152018071E+02  0.00000000000E+00 0.  1.
         12    1    3    3    0    0  0.57709793702E+02 -0.21487856744E+02  0.62484073947E+02  0.87729172876E+02  0.00000000000E+00 0. -1.
        -11    1    4    4    0    0 -0.11769166338E+00 -0.27378665695E+02  0.93716159726E+02  0.97633620133E+02  0.00000000000E+00 0.  1.
         11    1    4    4    0    0 -0.13243241875E+03  0.14404679460E+02  0.62880725816E+03  0.64276310429E+03  0.00000000000E+00 0. -1.
         21    1    1    2  502  501 -0.20242498891E+02  0.34982787369E+02 -0.29713067445E+01  0.40526322769E+02  0.00000000000E+00 0.  1.
<scales pt_clust_5="13000.00000" pt_clust_6="13000.00000" pt_clust_7="13000.00000" pt_clust_8="13000.00000" pt_clust_9="40.41725"></scales>
<clustering>
<clus scale="   40.417">  2  9  1 -1</clus>
<clus scale="   87.519">  5  6 -1 -1</clus>
<clus scale="   91.703">  7  8 -1 -1</clus>
<clus scale="  161.055">  2  5  1 -1</clus>
<clus scale="  163.366">  1  5  2 -1</clus>
</clustering>
</event>
<event>
 9    2  0.5684583E-005  0.1482264E+03  0.7546771E-02  0.1204531E+00
         -1   -1    0    0    0  501 -0.00000000000E+00  0.00000000000E+00  0.36356729082E+03  0.36356729082E+03  0.00000000000E+00 0.  1.
          2   -1    0    0  502    0  0.00000000000E+00 -0.00000000000E+00 -0.10328119719E+03  0.10328119719E+03  0.00000000000E+00 0. -1.
         23    2    1    2    0    0  0.13016245304E+03 -0.10302180894E+02  0.73277299920E+02  0.17498873252E+03  0.90570937461E+02 0.  0.
         24    2    1    2    0    0 -0.10787081750E+03  0.47806016961E+01  0.36535411331E+02  0.13964397557E+03  0.80663723010E+02 0.  0.
        -11    1    4    4    0    0 -0.21129587797E+02 -0.23789355747E+02  0.36363444987E+02  0.48318661598E+02  0.00000000000E+00 0.  1.
         12    1    4    4    0    0 -0.86741229706E+02  0.28569957443E+02  0.17196634408E+00  0.91325313969E+02  0.00000000000E+00 0. -1.
        -13    1    3    3    0    0  0.67039343526E+02  0.24368568204E+02 -0.12615557978E+01  0.71342078886E+02  0.00000000000E+00 0.  1.
         13    1    3    3    0    0  0.63123109514E+02 -0.34670749098E+02  0.74538855717E+02  0.10364665363E+03  0.00000000000E+00 0. -1.
         21    1    1    2  502  501 -0.22291635537E+02  0.55215791975E+01  0.15047338238E+03  0.15221577992E+03  0.00000000000E+00 0. -1.
<scales pt_clust_5="13000.00000" pt_clust_6="13000.00000" pt_clust_7="13000.00000" pt_clust_8="13000.00000" pt_clust_9="22.96530"></scales>
<clustering>
<clus scale="   22.965">  1  9  2 -1</clus>
<clus scale="   80.664">  5  6 -1 -1</clus>
<clus scale="   90.571">  7  8 -1 -1</clus>
<clus scale="  142.389">  2  5  1 -1</clus>
<clus scale="  142.389">  2  5  1 -1</clus>
</clustering>
</event>
<event>
 9    2  0.5684583E-005  0.9486171E+02  0.7546771E-02  0.1300812E+00
          2   -1    0    0  502    0  0.00000000000E+00  0.00000000000E+00  0.10212765832E+03  0.10212765832E+03  0.00000000000E+00 0. -1.
         -1   -1    0    0    0  501 -0.00000000000E+00 -0.00000000000E+00 -0.32607417131E+03  0.32607417131E+03  0.00000000000E+00 0.  1.
         23    2    1    2    0    0 -0.22293814820E+02  0.18351008710E+02 -0.15136486244E+03  0.17882436414E+03  0.90736199659E+02 0.  0.
         24    2    1    2    0    0  0.22906326573E+01 -0.28333383438E+02  0.69213399887E+02  0.10583091753E+03  0.74844243375E+02 0.  0.
        -13    1    4    4    0    0 -0.29189769938E+02  0.53832963924E+01  0.11226203994E+02  0.31734054345E+02  0.00000000000E+00 0.  1.
         14    1    4    4    0    0  0.31480402595E+02 -0.33716679830E+02  0.57987195893E+02  0.74096863185E+02  0.00000000000E+00 0. -1.
        -13    1    3    3    0    0  0.22701341980E+02  0.98173498119E+01 -0.47003831063E+01  0.25175879058E+02  0.00000000000E+00 0. -1.
         13    1    3    3    0    0 -0.44995156800E+02  0.85336588983E+01 -0.14666447933E+03  0.15364848508E+03  0.00000000000E+00 0.  1.
         21    1    1    2  502  501  0.20003182163E+02  0.99823747277E+01 -0.14179505043E+03  0.14354654795E+03  0.00000000000E+00 0.  1.
<scales pt_clust_5="13000.00000" pt_clust_6="13000.00000" pt_clust_7="13000.00000" pt_clust_8="13000.00000" pt_clust_9="22.35565"></scales>
<clustering>
<clus scale="   22.356">  2  9  1 -1</clus>
<clus scale="   74.844">  5  6 -1 -1</clus>
<clus scale="   79.796">  1  5  2 -1</clus>
<clus scale="   90.736">  7  8 -1 -1</clus>
<clus scale="   79.796">  1  5  2 -1</clus>
</clustering>
</event>
<event>
 9    2  0.5684583E-005  0.1177994E+03  0.7546771E-02  0.1252096E+00
         -1   -1    0    0    0  501 -0.00000000000E+00  0.00000000000E+00  0.12482388671E+03  0.12482388671E+03  0.00000000000E+00 0.  1.
          2   -1    0    0  502    0  0.00000000000E+00 -0.00000000000E+00 -0.19005358211E+03  0.19005358211E+03  0.00000000000E+00 0. -1.
         24    2    1    2    0    0 -0.71157085824E+02  0.53279763489E+02  0.28971560028E+02  0.12248140203E+03  0.79121921701E+02 0.  0.
         23    2    1    2    0    0  0.49008805307E+02 -0.42095720586E+02 -0.11333748471E+03  0.16106198923E+03  0.94454572378E+02 0.  0.
        -11    1    3    3    0    0  0.73372715803E+01  0.36189673029E+02  0.19012502473E+02  0.41533158301E+02  0.00000000000E+00 0.  1.
         12    1    3    3    0    0 -0.78494357404E+02  0.17090090460E+02  0.99590575541E+01  0.80948243733E+02  0.00000000000E+00 0. -1.
        -11    1    4    4    0    0  0.75715357144E+02 -0.37289884976E+02 -0.68709215726E+02  0.10883155404E+03  0.00000000000E+00 0. -1.
         11    1    4    4    0    0 -0.26706551838E+02 -0.48058356103E+01 -0.44628268987E+02  0.52230435186E+02  0.00000000000E+00 0.  1.
         21    1    1    2  502  501  0.22148280517E+02 -0.11184042903E+02  0.19136229284E+02  0.31334077563E+02  0.00000000000E+00 0. -1.
<scales pt_clust_5="13000.00000" pt_clust_6="13000.00000" pt_clust_7="13000.00000" pt_clust_8="13000.00000" pt_clust_9="24.81188"></scales>
<clustering>
<clus scale="   24.812">  1  9  2 -1</clus>
<clus scale="   79.122">  5  6 -1 -1</clus>
<clus scale="   94.455">  7  8 -1 -1</clus>
<clus scale="  105.902">  1  5  2 -1</clus>
<clus scale="  117.799">  2  5  1 -1</clus>
</clustering>
</event>
<event>
 9    2  0.5684583E-005  0.1105182E+03  0.7546771E-02  0.1263928E+00
          2   -1    0    0  502    0  0.00000000000E+00  0.00000000000E+00  0.95162638883E+03  0.95162638883E+03  0.00000000000E+00 0. -1.
         -1   -1    0    0    0  501 -0.00000000000E+00 -0.00000000000E+00 -0.28749113681E+02  0.28749113681E+02  0.00000000000E+00 0.  1.
         23    2    1    2    0    0  0.79636593345E+01  0.68023125940E+02  0.16216269033E+03  0.19841010417E+03  0.91538329512E+02 0.  0.
         24    2    1    2    0    0 -0.39899426695E+02 -0.48044206813E+02  0.71724618248E+03  0.72444538054E+03  0.80491074255E+02 0.  0.
        -13    1    4    4    0    0 -0.36968840696E+02  0.82101309865E+01  0.16287003021E+03  0.16721467691E+03  0.00000000000E+00 0.  1.
         14    1    4    4    0    0 -0.29305859992E+01 -0.56254337799E+02  0.55437615228E+03  0.55723070363E+03  0.00000000000E+00 0. -1.
        -11    1    3    3    0    0 -0.29045888427E+02  0.28181070294E+01  0.14020858539E+02  0.32375760005E+02  0.00000000000E+00 0. -1.
         11    1    3    3    0    0  0.37009547761E+02  0.65205018910E+02  0.14814183179E+03  0.16603434416E+03  0.00000000000E+00 0.  1.
         21    1    1    2  502  501  0.31935767360E+02 -0.19978919127E+02  0.43468402338E+02  0.57520017804E+02  0.00000000000E+00 0.  1.
<scales pt_clust_5="13000.00000" pt_clust_6="13000.00000" pt_clust_7="13000.00000" pt_clust_8="13000.00000" pt_clust_9="37.67029"></scales>
<clustering>
<clus scale="   37.670">  2  9  1 -1</clus>
<clus scale="   80.491">  5  6 -1 -1</clus>
<clus scale="   91.538">  7  8 -1 -1</clus>
<clus scale="  101.557">  1  5  2 -1</clus>
<clus scale="  101.557">  1  5  2 -1</clus>
</clustering>
</event>
<event>
 9    2  0.5684583E-005  0.9150508E+02  0.7546771E-02  0.1305089E+00
         -1   -1    0    0    0  501 -0.00000000000E+00  0.00000000000E+00  0.14209052984E+03  0.14209052984E+03  0.00000000000E+00 0.  1.
          2   -1    0    0  502    0  0.00000000000E+00 -0.00000000000E+00 -0.25254316250E+03  0.25254316250E+03  0.00000000000E+00 0. -1.
         23    2    1    2    0    0 -0.84808516474E+01 -0.22817986023E+02 -0.21000023460E+02  0.96925540862E+02  0.91438362601E+02 0.  0.
         24    2    1    2    0    0 -0.17005992670E+01 -0.99078134316E+00 -0.18302823519E+03  0.20061583909E+03  0.82118854917E+02 0.  0.
        -13    1    4    4    0    0  0.24080806580E+02 -0.72386333289E+01 -0.12581645895E+02  0.28117269986E+02  0.00000000000E+00 0.  1.
         14    1    4    4    0    0 -0.25781405847E+02  0.62478519857E+01 -0.17044658930E+03  0.17249856911E+03  0.00000000000E+00 0. -1.
        -11    1    3    3    0    0  0.91742110949E+00  0.35018271616E+02 -0.14711883520E+02  0.37994216997E+02  0.00000000000E+00 0. -1.
         11    1    3    3    0    0 -0.93982727569E+01 -0.57836257640E+02 -0.62881399397E+01  0.58931323865E+02  0.00000000000E+00 0.  1.
         21    1    1    2  502  501  0.10181450914E+02  0.23808767367E+02  0.93575625987E+02  0.97092312389E+02  0.00000000000E+00 0.  1.
<scales pt_clust_5="13000.00000" pt_clust_6="13000.00000" pt_clust_7="13000.00000" pt_clust_8="13000.00000" pt_clust_9="25.89439"></scales>
<clustering>
<clus scale="   25.894">  1  9  2 -1</clus>
<clus scale="   82.119">  5  6 -1 -1</clus>
<clus scale="   82.193">  2  5  1 -1</clus>
<clus scale="   91.438">  7  8 -1 -1</clus>
<clus scale="   82.193">  2  5  1 -1</clus>
</clustering>
</event>
<event>
 9    2  0.5684583E-005  0.9730910E+02  0.7546771E-02  0.1292488E+00
         -1   -1    0    0    0  501 -0.00000000000E+00  0.00000000000E+00  0.25333640167E+02  0.25333640167E+02  0.00000000000E+00 0.  1.
          2   -1    0    0  502    0  0.00000000000E+00 -0.00000000000E+00 -0.89259735152E+03  0.89259735152E+03  0.00000000000E+00 0. -1.
         23    2    1    2    0    0 -0.35845292127E+02  0.57212636736E+02 -0.35040221315E+03  0.36860036571E+03  0.92338225288E+02 0.  0.
         24    2    1    2    0    0  0.21203807292E+02 -0.70656038389E+00 -0.46120821172E+03  0.46867953771E+03  0.80606413143E+02 0.  0.
        -11    1    4    4    0    0  0.40797117995E+02 -0.27713849413E+02 -0.24538106596E+03  0.25028849318E+03  0.00000000000E+00 0.  1.
         12    1    4    4    0    0 -0.19593310703E+02  0.27007289029E+02 -0.21582714576E+03  0.21839104453E+03  0.00000000000E+00 0. -1.
        -11    1    3    3    0    0 -0.25901945144E+02 -0.22250388218E+02 -0.11381608955E+03  0.11882799661E+03  0.00000000000E+00 0.  1.
         11    1    3    3    0    0 -0.99433469832E+01  0.79463024954E+02 -0.23658612360E+03  0.24977236910E+03  0.00000000000E+00 0. -1.
         21    1    1    2  502  501  0.14641484836E+02 -0.56506076352E+02 -0.55653286486E+02  0.80651088273E+02  0.00000000000E+00 0.  1.
<scales pt_clust_5="13000.00000" pt_clust_6="13000.00000" pt_clust_7="13000.00000" pt_clust_8="13000.00000" pt_clust_9="58.37217"></scales>
<clustering>
<clus scale="   58.372">  1  9  2 -1</clus>
<clus scale="   80.606">  5  6 -1 -1</clus>
<clus scale="   86.256">  2  5  1 -1</clus>
<clus scale="   92.338">  7  8 -1 -1</clus>
<clus scale="   86.256">  2  5  1 -1</clus>
</clustering>
</event>
<event>
 9    2  0.5684583E-005  0.1410501E+03  0.7546771E-02  0.1218010E+00
          2   -1    0    0  502    0  0.00000000000E+00  0.00000000000E+00  0.62450844512E+02  0.62450844512E+02  0.00000000000E+00 0. -1.
         -1   -1    0    0    0  501 -0.00000000000E+00 -0.00000000000E+00 -0.92931173347E+03  0.92931173347E+03  0.00000000000E+00 0.  1.
         24    2    1    2    0    0  0.12715557959E+02  0.12835901794E+03 -0.17424321029E+03  0.22387720621E+03  0.55880087939E+02 0.  0.
         23    2    1    2    0    0 -0.10840021343E+03 -0.57255859273E+02 -0.15078216715E+03  0.21309087467E+03  0.87427794480E+02 0.  0.
        -13    1    3    3    0    0  0.33328792579E+02  0.93468195257E+02 -0.13422412748E+03  0.16692282150E+03  0.00000000000E+00 0.  1.
         14    1    3    3    0    0 -0.20613234620E+02  0.34890822680E+02 -0.40019082805E+02  0.56954384707E+02  0.00000000000E+00 0. -1.
        -13    1    4    4    0    0 -0.95308450485E+02 -0.30878350700E+02 -0.15373201673E+03  0.18349579353E+03  0.00000000000E+00 0. -1.
         13    1    4    4    0    0 -0.13091762943E+02 -0.26377508574E+02  0.29498495796E+01  0.29595081146E+02  0.00000000000E+00 0.  1.
         21    1    1    2  502  501  0.95684655469E+02 -0.71103158664E+02 -0.54183551153E+03  0.55479449710E+03  0.00000000000E+00 0.  1.
<scales pt_clust_5="13000.00000" pt_clust_6="13000.00000" pt_clust_7="13000.00000" pt_clust_8="13000.00000" pt_clust_9="119.21079"></scales>
<clustering>
<clus scale="   55.880">  5  6 -1 -1</clus>
<clus scale="   87.428">  7  8 -1 -1</clus>
<clus scale="  119.211">  2  9  1 -1</clus>
<clus scale="  123.992">  2  5  1 -1</clus>
<clus scale="  141.050">  1  5  2 -1</clus>
</clustering>
</event>
<event>
 9    2  0.5684583E-005  0.9155302E+02  0.7546771E-02  0.1306134E+00
         -1   -1    0    0    0  501 -0.00000000000E+00  0.00000000000E+00  0.23874510694E+02  0.23874510694E+02  0.00000000000E+00 0.  1.
          2   -1    0    0  502    0  0.00000000000E+00 -0.00000000000E+00 -0.52944104651E+03  0.52944104651E+03  0.00000000000E+00 0. -1.
         24    2    1    2    0    0 -0.83103901640E+01 -0.75586515982E-01 -0.12481572438E+03  0.14777953406E+03  0.78681365874E+02 0.  0.
         23    2    1    2    0    0 -0.29173149781E+02 -0.14438508878E+02 -0.30681116932E+03  0.32137697486E+03  0.89947335400E+02 0.  0.
        -13    1    3    3    0    0  0.18828665408E+02  0.18235874429E+02 -0.94580724079E+01  0.27866124432E+02  0.00000000000E+00 0.  1.
         14    1    3    3    0    0 -0.27139055572E+02 -0.18311460945E+02 -0.11535765198E+03  0.11991340963E+03  0.00000000000E+00 0. -1.
        -11    1    4    4    0    0 -0.29452122762E+02  0.29959467660E+02 -0.21884638678E+03  0.22284240675E+03  0.00000000000E+00 0. -1.
         11    1    4    4    0    0  0.27897298174E+00 -0.44397976538E+02 -0.87964782540E+02  0.98534568116E+02  0.00000000000E+00 0.  1.
         21    1    1    2  502  501  0.37483539945E+02  0.14514095394E+02 -0.73939642112E+02  0.84159048281E+02  0.00000000000E+00 0.  1.
<scales pt_clust_5="13000.00000" pt_clust_6="13000.00000" pt_clust_7="13000.00000" pt_clust_8="13000.00000" pt_clust_9="40.19546"></scales>
<clustering>
<clus scale="   40.195">  1  9  2 -1</clus>
<clus scale="   78.681">  5  6 -1 -1</clus>
<clus scale="   80.512">  1  5  2 -1</clus>
<clus scale="   89.947">  7  8 -1 -1</clus>
<clus scale="   91.553">  2  5  1 -1</clus>
</clustering>
</event>
<event>
 9    2  0.5684583E-005  0.9760627E+02  0.7546771E-02  0.1292634E+00
          2   -1    0    0  502    0  0.00000000000E+00  0.00000000000E+00  0.34355063242E+03  0.34355063242E+03  0.00000000000E+00 0. -1.
         -1   -1    0    0    0  501 -0.00000000000E+00 -0.00000000000E+00 -0.52849455550E+02  0.52849455550E+02  0.00000000000E+00 0.  1.
         24    2    1    2    0    0 -0.17643342185E+01 -0.28460055861E+02  0.53281345252E+02  0.10034186740E+03  0.80103064529E+02 0.  0.
         23    2    1    2    0    0  0.37871550493E+02  0.40515902035E+01  0.23104326324E+03  0.25201091774E+03  0.93154943239E+02 0.  0.
        -13    1    3    3    0    0 -0.99616405957E+01  0.24042096455E+02  0.13772118936E+01  0.26060571711E+02  0.00000000000E+00 0.  1.
         14    1    3    3    0    0  0.81973063771E+01 -0.52502152316E+02  0.51904133359E+02  0.74281295690E+02  0.00000000000E+00 0. -1.
        -13    1    4    4    0    0 -0.11866816367E+02 -0.23553235613E+02  0.19092437803E+02  0.32559137271E+02  0.00000000000E+00 0.  1.
         13    1    4    4    0    0  0.49738366860E+02  0.27604825817E+02  0.21195082544E+03  0.21945178047E+03  0.00000000000E+00 0. -1.
         21    1    1    2  502  501 -0.36107216274E+02  0.24408465657E+02  0.63765683808E+01  0.44047302836E+02  0.00000000000E+00 0.  1.
<scales pt_clust_5="13000.00000" pt_clust_6="13000.00000" pt_clust_7="13000.00000" pt_clust_8="13000.00000" pt_clust_9="43.58330"></scales>
<clustering>
<clus scale="   43.583">  2  9  1 -1</clus>
<clus scale="   80.103">  5  6 -1 -1</clus>
<clus scale="   85.239">  2  5  1 -1</clus>
<clus scale="   93.155">  7  8 -1 -1</clus>
<clus scale="   97.606">  1  5  2 -1</clus>
</clustering>
</event>
<event>
 9    2  0.5684583E-005  0.1021128E+03  0.7546771E-02  0.1284886E+00
         -1   -1    0    0    0  501 -0.00000000000E+00  0.00000000000E+00  0.33842796229E+02  0.33842796229E+02  0.00000000000E+00 0.  1.
          2   -1    0    0  502    0  0.00000000000E+00 -0.00000000000E+00 -0.17143552299E+04  0.17143552299E+04  0.00000000000E+00 0. -1.
         23    2    1    2    0    0  0.31293714616E+01 -0.11952127660E+02 -0.37708136338E+03  0.38946768837E+03  0.96654432670E+02 0.  0.
         24    2    1    2    0    0 -0.39607733462E+02 -0.10272634756E+02 -0.13120986353E+04  0.13151443579E+04  0.79545921527E+02 0.  0.
        -13    1    4    4    0    0 -0.15535101866E+02  0.22304856655E+02 -0.15699533225E+03  0.15933104019E+03  0.00000000000E+00 0.  1.
         14    1    4    4    0    0 -0.24072631595E+02 -0.32577491411E+02 -0.11551033031E+04  0.11558133177E+04  0.00000000000E+00 0. -1.
        -13    1    3    3    0    0  0.46379040696E+02  0.12061236410E+02 -0.19180096639E+03  0.19769698922E+03  0.00000000000E+00 0.  1.
         13    1    3    3    0    0 -0.43249669235E+02 -0.24013364070E+02 -0.18528039699E+03  0.19177069915E+03  0.00000000000E+00 0. -1.
         21    1    1    2  502  501  0.36478362000E+02  0.22224762416E+02  0.86675650422E+01  0.43585979884E+02  0.00000000000E+00 0.  1.
<scales pt_clust_5="13000.00000" pt_clust_6="13000.00000" pt_clust_7="13000.00000" pt_clust_8="13000.00000" pt_clust_9="42.71547"></scales>
<clustering>
<clus scale="   42.715">  1  9  2 -1</clus>
<clus scale="   79.546">  5  6 -1 -1</clus>
<clus scale="   86.096">  2  5  1 -1</clus>
<clus scale="   96.654">  7  8 -1 -1</clus>
<clus scale="   86.096">  2  5  1 -1</clus>
</clustering>
</event>
<event>
 9    2  0.5684583E-005  0.9803658E+02  0.7546771E-02  0.1291969E+00
          2   -1    0    0  502    0  0.00000000000E+00  0.00000000000E+00  0.10917476024E+04  0.10917476024E+04  0.00000000000E+00 0. -1.
         -1   -1    0    0    0  501 -0.00000000000E+00 -0.00000000000E+00 -0.22708088606E+02  0.22708088606E+02  0.00000000000E+00 0.  1.
         23    2    1    2    0    0 -0.45174154623E+01  0.24440625036E+02  0.18535555746E+03  0.20928804782E+03  0.93952397979E+02 0.  0.
         24    2    1    2    0    0 -0.77710518443E+02 -0.10533158675E+02  0.48205796491E+03  0.49497465480E+03  0.80437275232E+02 0.  0.
        -13    1    4    4    0    0 -0.86191518636E+02  0.48421307150E+01  0.30300090555E+03  0.31505868165E+03  0.00000000000E+00 0.  1.
         14    1    4    4    0    0  0.84810001927E+01 -0.15375289390E+02  0.17905705936E+03  0.17991597315E+03  0.00000000000E+00 0. -1.
        -13    1    3    3    0    0  0.32910547249E+02 -0.15047591721E+02  0.11368535993E+03  0.11930588921E+03  0.00000000000E+00 0. -1.
         13    1    3    3    0    0 -0.37427962711E+02  0.39488216757E+02  0.71670197525E+02  0.89982158613E+02  0.00000000000E+00 0.  1.
         21    1    1    2  502  501  0.82227933905E+02 -0.13907466361E+02  0.40162599141E+03  0.41019298838E+03  0.00000000000E+00 0. -1.
<scales pt_clust_5="13000.00000" pt_clust_6="13000.00000" pt_clust_7="13000.00000" pt_clust_8="13000.00000" pt_clust_9="83.39575"></scales>
<clustering>
<clus scale="   80.437">  5  6 -1 -1</clus>
<clus scale="   83.396">  1  9  2 -1</clus>
<clus scale="   85.172">  1  5  2 -1</clus>
<clus scale="   93.952">  7  8 -1 -1</clus>
<clus scale="   83.396">  1  5  2 -1</clus>
</clustering>
</event>
<event>
 9    2  0.5684583E-005  0.9583734E+02  0.7546771E-02  0.1295804E+00
          2   -1    0    0  502    0  0.00000000000E+00  0.00000000000E+00  0.29998234747E+03  0.29998234747E+03  0.00000000000E+00 0. -1.
         -1   -1    0    0    0  501 -0.00000000000E+00 -0.00000000000E+00 -0.11155585817E+03  0.11155585817E+03  0.00000000000E+00 0.  1.
         23    2    1    2    0    0  0.20266243796E+02 -0.22285982112E+02 -0.62919187882E+02  0.11501280955E+03  0.91442531244E+02 0.  0.
         24    2    1    2    0    0 -0.28127659443E+02 -0.10447893369E+02  0.24849319925E+03  0.26274011690E+03  0.79894776134E+02 0.  0.
        -13    1    4    4    0    0 -0.15758686599E+02 -0.20556949056E+02  0.17648051044E+02  0.31342910896E+02  0.00000000000E+00 0.  1.
         14    1    4    4    0    0 -0.12368972844E+02  0.10109055687E+02  0.23084514821E+03  0.23139720600E+03  0.00000000000E+00 0. -1.
        -13    1    3    3    0    0  0.48899184384E+02  0.81117550451E+01 -0.15739133750E+02  0.52006260533E+02  0.00000000000E+00 0.  1.
         13    1    3    3    0    0 -0.28632940588E+02 -0.30397737157E+02 -0.47180054132E+02  0.63006549016E+02  0.00000000000E+00 0. -1.
         21    1    1    2  502  501  0.78614156471E+01  0.32733875480E+02  0.28524779259E+01  0.33785279195E+02  0.00000000000E+00 0.  1.
<scales pt_clust_5="13000.00000" pt_clust_6="13000.00000" pt_clust_7="13000.00000" pt_clust_8="13000.00000" pt_clust_9="33.66465"></scales>
<clustering>
<clus scale="   33.665">  2  9  1 -1</clus>
<clus scale="   79.895">  5  6 -1 -1</clus>
<clus scale="   84.890">  1  5  2 -1</clus>
<clus scale="   91.443">  7  8 -1 -1</clus>
<clus scale="   84.890">  1  5  2 -1</clus>
</clustering>
</event>
<event>
 9    2  0.5684583E-005  0.2174449E+03  0.7546771E-02  0.1136444E+00
          2   -1    0    0  502    0  0.00000000000E+00  0.00000000000E+00  0.75135234810E+02  0.75135234810E+02  0.00000000000E+00 0. -1.
         -1   -1    0    0    0  501 -0.00000000000E+00 -0.00000000000E+00 -0.97303095553E+03  0.97303095553E+03  0.00000000000E+00 0.  1.
         23    2    1    2    0    0  0.19765158557E+03 -0.70325814695E+02 -0.63187522323E+03  0.67190282970E+03  0.90417063252E+02 0.  0.
         24    2    1    2    0    0 -0.18862568100E+03  0.46155297740E+02 -0.15334232188E+03  0.26066901778E+03  0.82003110373E+02 0.  0.
        -11    1    4    4    0    0 -0.87515644777E+02 -0.19587703575E+02 -0.56490641372E+02  0.10598989940E+03  0.00000000000E+00 0.  1.
         12    1    4    4    0    0 -0.10111003622E+03  0.65743001315E+02 -0.96851680508E+02  0.15467911838E+03  0.00000000000E+00 0. -1.
        -13    1    3    3    0    0  0.66447810334E+02 -0.24635985597E+02 -0.35638696635E+03  0.36336471082E+03  0.00000000000E+00 0. -1.
         13    1    3    3    0    0  0.13120377524E+03 -0.45689829099E+02 -0.27548825688E+03  0.30853811887E+03  0.00000000000E+00 0.  1.
         21    1    1    2  502  501 -0.90259045794E+01  0.24170516956E+02 -0.11267817561E+03  0.11559434286E+03  0.00000000000E+00 0. -1.
<scales pt_clust_5="13000.00000" pt_clust_6="13000.00000" pt_clust_7="13000.00000" pt_clust_8="13000.00000" pt_clust_9="25.80079"></scales>
<clustering>
<clus scale="   25.801">  2  9  1 -1</clus>
<clus scale="   82.003">  5  6 -1 -1</clus>
<clus scale="   90.417">  7  8 -1 -1</clus>
<clus scale="  214.083">  1  5  2 -1</clus>
<clus scale="  214.083">  1  5  2 -1</clus>
</clustering>
</event>
<event>
 9    2  0.5684583E-005  0.1523365E+03  0.7546771E-02  0.1199799E+00
         -1   -1    0    0    0  501 -0.00000000000E+00  0.00000000000E+00  0.22988021579E+03  0.22988021579E+03  0.00000000000E+00 0.  1.
          2   -1    0    0  502    0  0.00000000000E+00 -0.00000000000E+00 -0.24820807524E+03  0.24820807524E+03  0.00000000000E+00 0. -1.
         23    2    1    2    0    0  0.84577377691E+02 -0.34483093709E+01  0.71765897243E+02  0.14427572074E+03  0.92194988652E+02 0.  0.
         24    2    1    2    0    0 -0.13029347036E+03 -0.16161597644E+02 -0.17651042073E+03  0.23410123991E+03  0.80061702731E+02 0.  0.
        -13    1    4    4    0    0 -0.11503962370E+03 -0.72164536776E+01 -0.91212100819E+02  0.14698924982E+03  0.00000000000E+00 0.  1.
         14    1    4    4    0    0 -0.15253846656E+02 -0.89451439664E+01 -0.85298319914E+02  0.87111990096E+02  0.00000000000E+00 0. -1.
        -11    1    3    3    0    0  0.79532259756E+02  0.33377145925E+02  0.38735754861E+02  0.94550901195E+02  0.00000000000E+00 0.  1.
         11    1    3    3    0    0  0.50451179343E+01 -0.36825455296E+02  0.33030142382E+02  0.49724819542E+02  0.00000000000E+00 0. -1.
         21    1    1    2  502  501  0.45716092670E+02  0.19609907015E+02  0.86416664037E+02  0.99711330376E+02  0.00000000000E+00 0.  1.
<scales pt_clust_5="13000.00000" pt_clust_6="13000.00000" pt_clust_7="13000.00000" pt_clust_8="13000.00000" pt_clust_9="49.74444"></scales>
<clustering>
<clus scale="   49.744">  1  9  2 -1</clus>
<clus scale="   80.062">  5  6 -1 -1</clus>
<clus scale="   92.195">  7  8 -1 -1</clus>
<clus scale="  145.315">  2  5  1 -1</clus>
<clus scale="  145.315">  2  5  1 -1</clus>
</clustering>
</event>
<event>
 9    2  0.5684583E-005  0.1507626E+03  0.7546771E-02  0.1202155E+00
         -1   -1    0    0    0  501 -0.00000000000E+00  0.00000000000E+00  0.11852474846E+03  0.11852474846E+03  0.00000000000E+00 0.  1.
          2   -1    0    0  502    0  0.00000000000E+00 -0.00000000000E+00 -0.82766805196E+03  0.82766805196E+03  0.00000000000E+00 0. -1.
         23    2    1    2    0    0 -0.19071343420E+02  0.13246491219E+03 -0.41447054293E+01  0.16176333481E+03  0.90771850278E+02 0.  0.
         24    2    1    2    0    0  0.43715139987E+02 -0.11120848405E+03 -0.72985156832E+03  0.74348044149E+03  0.76167674968E+02 0.  0.
        -13    1    4    4    0    0  0.36041737955E+02 -0.31704975963E+02 -0.13479136847E+03  0.14308363076E+03  0.00000000000E+00 0.  1.
         14    1    4    4    0    0  0.76734020316E+01 -0.79503508089E+02 -0.59506019985E+03  0.60039681073E+03  0.00000000000E+00 0. -1.
        -11    1    3    3    0    0 -0.50439432242E+02  0.54924247889E+02 -0.18655216608E+02  0.76868891222E+02  0.00000000000E+00 0. -1.
         11    1    3    3    0    0  0.31368088822E+02  0.77540664304E+02  0.14510511179E+02  0.84894443585E+02  0.00000000000E+00 0.  1.
         21    1    1    2  502  501 -0.24643796566E+02 -0.21256428141E+02  0.24852970248E+02  0.40949024123E+02  0.00000000000E+00 0.  1.
<scales pt_clust_5="13000.00000" pt_clust_6="13000.00000" pt_clust_7="13000.00000" pt_clust_8="13000.00000" pt_clust_9="32.54462"></scales>
<clustering>
<clus scale="   32.545">  1  9  2 -1</clus>
<clus scale="   76.168">  5  6 -1 -1</clus>
<clus scale="   90.772">  7  8 -1 -1</clus>
<clus scale="  142.448">  2  5  1 -1</clus>
<clus scale="  142.448">  2  5  1 -1</clus>
</clustering>
</event>
<event>
 9    2  0.5684583E-005  0.1011764E+03  0.7546771E-02  0.1282540E+00
          4   -1    0    0  502    0  0.00000000000E+00  0.00000000000E+00  0.89310162664E+03  0.89310162664E+03  0.00000000000E+00 0. -1.
         -3   -1    0    0    0  501 -0.00000000000E+00 -0.00000000000E+00 -0.23329296388E+02  0.23329296388E+02  0.00000000000E+00 0.  1.
         23    2    1    2    0    0 -0.61140296050E+02  0.19003192761E+02  0.19818715145E+03  0.22682426057E+03  0.89843425171E+02 0.  0.
         24    2    1    2    0    0  0.43240899030E+02  0.43814405763E+01  0.63993209444E+03  0.64637302695E+03  0.79975196778E+02 0.  0.
        -13    1    4    4    0    0  0.20191377172E+02  0.89393762216E+01  0.37759679385E+02  0.43742399872E+02  0.00000000000E+00 0.  1.
         14    1    4    4    0    0  0.23049521859E+02 -0.45579356453E+01  0.60217241506E+03  0.60263062708E+03  0.00000000000E+00 0. -1.
        -11    1    3    3    0    0 -0.41472770127E+01  0.24929847894E+02  0.14953441057E+03  0.15165499387E+03  0.00000000000E+00 0. -1.
         11    1    3    3    0    0 -0.56993019037E+02 -0.59266551328E+01  0.48652740876E+02  0.75169266691E+02  0.00000000000E+00 0.  1.
         21    1    1    2  502  501  0.17899397020E+02 -0.23384633337E+02  0.31653084361E+02  0.43233635511E+02  0.00000000000E+00 0. -1.
<scales pt_clust_5="13000.00000" pt_clust_6="13000.00000" pt_clust_7="13000.00000" pt_clust_8="13000.00000" pt_clust_9="29.44876"></scales>
<clustering>
<clus scale="   29.449">  2  9  1 -1</clus>
<clus scale="   79.975">  5  6 -1 -1</clus>
<clus scale="   89.843">  7  8 -1 -1</clus>
<clus scale="   92.525">  1  5  2 -1</clus>
<clus scale="   92.525">  1  5  2 -1</clus>
</clustering>
</event>
<event>
 9    2  0.5684583E-005  0.9842454E+02  0.7546771E-02  0.1289721E+00
          2   -1    0    0  502    0  0.00000000000E+00  0.00000000000E+00  0.37371891579E+03  0.37371891579E+03  0.00000000000E+00 0. -1.
         -1   -1    0    0    0  501 -0.00000000000E+00 -0.00000000000E+00 -0.91894233381E+02  0.91894233381E+02  0.00000000000E+00 0.  1.
         24    2    1    2    0    0  0.13771403904E+02  0.59045240643E+01  0.22918460625E+02  0.86157194582E+02  0.81690215882E+02 0.  0.
         23    2    1    2    0    0 -0.30516234998E+02 -0.19952524261E+02  0.30902550623E+03  0.32477800336E+03  0.93030339894E+02 0.  0.
        -13    1    3    3    0    0  0.42525464508E+02  0.22171181262E+02  0.40902424321E+01  0.48132177318E+02  0.00000000000E+00 0.  1.
         14    1    3    3    0    0 -0.28754060604E+02 -0.16266657198E+02  0.18828218193E+02  0.38025017264E+02  0.00000000000E+00 0. -1.
        -11    1    4    4    0    0 -0.50202141685E+02 -0.39218744792E+02  0.26725683516E+03  0.27474457395E+03  0.00000000000E+00 0. -1.
         11    1    4    4    0    0  0.19685906687E+02  0.19266220530E+02  0.41768671065E+02  0.50033429406E+02  0.00000000000E+00 0.  1.
         21    1    1    2  502  501  0.16744831094E+02  0.14048000197E+02 -0.50119284444E+02  0.54677951233E+02  0.00000000000E+00 0.  1.
<scales pt_clust_5="13000.00000" pt_clust_6="13000.00000" pt_clust_7="13000.00000" pt_clust_8="13000.00000" pt_clust_9="21.85717"></scales>
<clustering>
<clus scale="   21.857">  2  9  1 -1</clus>
<clus scale="   81.690">  5  6 -1 -1</clus>
<clus scale="   87.784">  2  5  1 -1</clus>
<clus scale="   93.030">  7  8 -1 -1</clus>
<clus scale="   98.425">  1  5  2 -1</clus>
</clustering>
</event>
<event>
 9    2  0.5684583E-005  0.1384098E+03  0.7546771E-02  0.1218290E+00
         -1   -1    0    0    0  501 -0.00000000000E+00  0.00000000000E+00  0.46384316108E+02  0.46384316108E+02  0.00000000000E+00 0.  1.
          2   -1    0    0  502    0  0.00000000000E+00 -0.00000000000E+00 -0.97461488523E+03  0.97461488523E+03  0.00000000000E+00 0. -1.
         23    2    1    2    0    0  0.38434888998E+02 -0.77433973707E+02 -0.89881201240E+02  0.15530994914E+03  0.92570454195E+02 0.  0.
         24    2    1    2    0    0 -0.37138476811E+02  0.98850649379E+02 -0.83312023048E+03  0.84360535400E+03  0.80187015905E+02 0.  0.
        -13    1    4    4    0    0  0.12489461777E+02  0.73759340830E+02 -0.40064590668E+03  0.40757032467E+03  0.00000000000E+00 0.  1.
         14    1    4    4    0    0 -0.49627938589E+02  0.25091308549E+02 -0.43247432380E+03  0.43603502933E+03  0.00000000000E+00 0. -1.
        -13    1    3    3    0    0 -0.29920538624E+02 -0.17016574861E+02 -0.16200509005E+02  0.38042856670E+02  0.00000000000E+00 0. -1.
         13    1    3    3    0    0  0.68355427623E+02 -0.60417398845E+02 -0.73680692235E+02  0.11726709247E+03  0.00000000000E+00 0.  1.
         21    1    1    2  502  501 -0.12964121871E+01 -0.21416675672E+02 -0.52291373965E+01  0.22083898191E+02  0.00000000000E+00 0. -1.
<scales pt_clust_5="13000.00000" pt_clust_6="13000.00000" pt_clust_7="13000.00000" pt_clust_8="13000.00000" pt_clust_9="21.45588"></scales>
<clustering>
<clus scale="   21.456">  1  9  2 -1</clus>
<clus scale="   80.187">  5  6 -1 -1</clus>
<clus scale="   92.570">  7  8 -1 -1</clus>
<clus scale="  130.453">  2  5  1 -1</clus>
<clus scale="  130.453">  2  5  1 -1</clus>
</clustering>
</event>
<event>
 9    2  0.5684583E-005  0.1132183E+03  0.7546771E-02  0.1260425E+00
         -1   -1    0    0    0  501 -0.00000000000E+00  0.00000000000E+00  0.55174201081E+03  0.55174201081E+03  0.00000000000E+00 0.  1.
          2   -1    0    0  502    0  0.00000000000E+00 -0.00000000000E+00 -0.32885682358E+02  0.32885682358E+02  0.00000000000E+00 0. -1.
         24    2    1    2    0    0  0.90659256808E+01  0.55375231587E+02  0.23762540541E+03  0.25717953407E+03  0.80789059709E+02 0.  0.
         23    2    1    2    0    0 -0.40852990361E+02 -0.52884448903E+02  0.13751817384E+03  0.18024090464E+03  0.95445292253E+02 0.  0.
        -13    1    3    3    0    0 -0.20496667409E+02  0.81725299296E+01  0.12697136847E+02  0.25458218800E+02  0.00000000000E+00 0.  1.
         14    1    3    3    0    0  0.29562593090E+02  0.47202701657E+02  0.22492826856E+03  0.23172131527E+03  0.00000000000E+00 0. -1.
        -11    1    4    4    0    0  0.29882171900E+02 -0.10150855764E+02  0.23151908661E+02  0.39140707005E+02  0.00000000000E+00 0. -1.
         11    1    4    4    0    0 -0.70735162261E+02 -0.42733593139E+02  0.11436626518E+03  0.14110019764E+03  0.00000000000E+00 0.  1.
         21    1    1    2  502  501  0.31787064680E+02 -0.24907826838E+01  0.14371274921E+03  0.14720725446E+03  0.00000000000E+00 0.  1.
<scales pt_clust_5="13000.00000" pt_clust_6="13000.00000" pt_clust_7="13000.00000" pt_clust_8="13000.00000" pt_clust_9="31.88450"></scales>
<clustering>
<clus scale="   31.885">  1  9  2 -1</clus>
<clus scale="   80.789">  5  6 -1 -1</clus>
<clus scale="   95.445">  7  8 -1 -1</clus>
<clus scale="  101.170">  1  5  2 -1</clus>
<clus scale="  113.218">  2  5  1 -1</clus>
</clustering>
</event>
<event>
 9    2  0.5684583E-005  0.8953077E+02  0.7546771E-02  0.1308859E+00
         -1   -1    0    0    0  501 -0.00000000000E+00  0.00000000000E+00  0.19896565814E+03  0.19896565814E+03  0.00000000000E+00 0.  1.
          2   -1    0    0  502    0  0.00000000000E+00 -0.00000000000E+00 -0.97649217251E+02  0.97649217251E+02  0.00000000000E+00 0. -1.
         24    2    1    2    0    0  0.40408524614E+01  0.27309469201E+02  0.71708065300E+02  0.11207052669E+03  0.81581987755E+02 0.  0.
         23    2    1    2    0    0  0.10145065620E+01  0.18555642963E+02 -0.41209743623E+02  0.10001996656E+03  0.89221127719E+02 0.  0.
        -11    1    3    3    0    0  0.65702514667E+00 -0.29192217222E+02  0.19886443044E+02  0.35328286759E+02  0.00000000000E+00 0.  1.
         12    1    3    3    0    0  0.33838273147E+01  0.56501686422E+02  0.51821622255E+02  0.76742239927E+02  0.00000000000E+00 0. -1.
        -11    1    4    4    0    0 -0.38933524995E+01 -0.35843952028E+02 -0.11512420253E+02  0.37848155976E+02  0.00000000000E+00 0.  1.
         11    1    4    4    0    0  0.49078590615E+01  0.54399594991E+02 -0.29697323369E+02  0.62171810582E+02  0.00000000000E+00 0. -1.
         21    1    1    2  502  501 -0.50553590235E+01 -0.45865112164E+02  0.70818119213E+02  0.84524382148E+02  0.00000000000E+00 0.  1.
<scales pt_clust_5="13000.00000" pt_clust_6="13000.00000" pt_clust_7="13000.00000" pt_clust_8="13000.00000" pt_clust_9="46.14288"></scales>
<clustering>
<clus scale="   46.143">  1  9  2 -1</clus>
<clus scale="   81.582">  5  6 -1 -1</clus>
<clus scale="   81.921">  1  5  2 -1</clus>
<clus scale="   89.221">  7  8 -1 -1</clus>
<clus scale="   89.531">  2  5  1 -1</clus>
</clustering>
</event>
<event>
 9    2  0.5684583E-005  0.9284025E+02  0.7546771E-02  0.1303406E+00
          2   -1    0    0  502    0  0.00000000000E+00  0.00000000000E+00  0.37556367558E+03  0.37556367558E+03  0.00000000000E+00 0. -1.
         -1   -1    0    0    0  501 -0.00000000000E+00 -0.00000000000E+00 -0.37971424862E+02  0.37971424862E+02  0.00000000000E+00 0.  1.
         23    2    1    2    0    0 -0.25500117347E+02  0.31095391057E+02  0.12758892746E+03  0.16141074771E+03  0.90317859450E+02 0.  0.
         24    2    1    2    0    0  0.36391038843E+01 -0.13650923105E+02  0.20957068833E+03  0.22415292902E+03  0.78262835363E+02 0.  0.
        -11    1    4    4    0    0  0.27860759851E+02  0.81992788852E+01  0.30423313814E+02  0.42059816181E+02  0.00000000000E+00 0.  1.
         12    1    4    4    0    0 -0.24221655967E+02 -0.21850201990E+02  0.17914737452E+03  0.18209311283E+03  0.00000000000E+00 0. -1.
        -11    1    3    3    0    0 -0.12837927946E+02 -0.31918091462E+02  0.49322427877E+02  0.60135504057E+02  0.00000000000E+00 0. -1.
         11    1    3    3    0    0 -0.12662189401E+02  0.63013482519E+02  0.78266499580E+02  0.10127524365E+03  0.00000000000E+00 0.  1.
         21    1    1    2  502  501  0.21861013462E+02 -0.17444467952E+02  0.43263492366E+00  0.27971423716E+02  0.00000000000E+00 0.  1.
<scales pt_clust_5="13000.00000" pt_clust_6="13000.00000" pt_clust_7="13000.00000" pt_clust_8="13000.00000" pt_clust_9="27.96808"></scales>
<clustering>
<clus scale="   27.968">  2  9  1 -1</clus>
<clus scale="   78.263">  5  6 -1 -1</clus>
<clus scale="   81.161">  1  5  2 -1</clus>
<clus scale="   90.318">  7  8 -1 -1</clus>
<clus scale="   81.161">  1  5  2 -1</clus>
</clustering>
</event>
<event>
 9    2  0.5684583E-005  0.9820323E+02  0.7546771E-02  0.1292782E+00
         -1   -1    0    0    0  501 -0.00000000000E+00  0.00000000000E+00  0.38024236070E+02  0.38024236070E+02  0.00000000000E+00 0.  1.
          2   -1    0    0  502    0  0.00000000000E+00 -0.00000000000E+00 -0.57242779386E+03  0.57242779386E+03  0.00000000000E+00 0. -1.
         23    2    1    2    0    0 -0.13020808714E+02  0.14600464641E+02 -0.54667080973E+02  0.10899473340E+03  0.92242328350E+02 0.  0.
         24    2    1    2    0    0  0.35749883071E+02  0.10977517885E+02 -0.44366144845E+03  0.45173555397E+03  0.76360787348E+02 0.  0.
        -11    1    4    4    0    0  0.20930858173E+02  0.40544820380E+02 -0.16760437819E+03  0.17370437782E+03  0.00000000000E+00 0.  1.
         12    1    4    4    0    0  0.14819024898E+02 -0.29567302495E+02 -0.27605707026E+03  0.27803117616E+03  0.00000000000E+00 0. -1.
        -13    1    3    3    0    0 -0.44438298408E+02  0.32994153028E+02 -0.20367806800E+02  0.58976470336E+02  0.00000000000E+00 0.  1.
         13    1    3    3    0    0  0.31417489694E+02 -0.18393688388E+02 -0.34299274173E+02  0.50018263064E+02  0.00000000000E+00 0. -1.
         21    1    1    2  502  501 -0.22729074358E+02 -0.25577982526E+02 -0.36075028371E+02  0.49721742560E+02  0.00000000000E+00 0. -1.
<scales pt_clust_5="13000.00000" pt_clust_6="13000.00000" pt_clust_7="13000.00000" pt_clust_8="13000.00000" pt_clust_9="34.21760"></scales>
<clustering>
<clus scale="   34.218">  1  9  2 -1</clus>
<clus scale="   76.361">  5  6 -1 -1</clus>
<clus scale="   83.464">  2  5  1 -1</clus>
<clus scale="   92.242">  7  8 -1 -1</clus>
<clus scale="   83.464">  2  5  1 -1</clus>
</clustering>
</event>
<event>
 9    2  0.5684583E-005  0.2056964E+03  0.7546771E-02  0.1185925E+00
         -1   -1    0    0    0  501 -0.00000000000E+00  0.00000000000E+00  0.68518344724E+02  0.68518344724E+02  0.00000000000E+00 0.  1.
          2   -1    0    0  502    0  0.00000000000E+00 -0.00000000000E+00 -0.16676053285E+04  0.16676053285E+04  0.00000000000E+00 0. -1.
         24    2    1    2    0    0 -0.10504196880E+01  0.91315994696E+01 -0.17845073897E+03  0.19559504606E+03  0.79550401101E+02 0.  0.
         23    2    1    2    0    0 -0.17902011886E+03  0.19142258272E+02 -0.14093022041E+03  0.24790636263E+03  0.95820710709E+02 0.  0.
        -13    1    3    3    0    0 -0.61716465413E+01  0.43659064661E+02 -0.11523619277E+03  0.12338388579E+03  0.00000000000E+00 0.  1.
         14    1    3    3    0    0  0.51212268533E+01 -0.34527465191E+02 -0.63214546195E+02  0.72211160271E+02  0.00000000000E+00 0. -1.
        -11    1    4    4    0    0 -0.15539296117E+03 -0.15785646077E+02 -0.13267734412E+03  0.20493764087E+03  0.00000000000E+00 0.  1.
         11    1    4    4    0    0 -0.23627157687E+02  0.34927904350E+02 -0.82528762914E+01  0.42968721760E+02  0.00000000000E+00 0. -1.
         21    1    1    2  502  501  0.18007053854E+03 -0.28273857742E+02 -0.12797060244E+04  0.12926222645E+04  0.00000000000E+00 0. -1.
<scales pt_clust_5="13000.00000" pt_clust_6="13000.00000" pt_clust_7="13000.00000" pt_clust_8="13000.00000" pt_clust_9="182.01485"></scales>
<clustering>
<clus scale="   79.550">  5  6 -1 -1</clus>
<clus scale="   80.080">  1  5  2 -1</clus>
<clus scale="   95.821">  7  8 -1 -1</clus>
<clus scale="  182.015">  2  9  1 -1</clus>
<clus scale="  182.015">  2  5  1 -1</clus>
</clustering>
</event>
<event>
 9    2  0.5684583E-005  0.1031213E+03  0.7546771E-02  0.1278894E+00
         -1   -1    0    0    0  501 -0.00000000000E+00  0.00000000000E+00  0.31625678725E+03  0.31625678725E+03  0.00000000000E+00 0.  1.
          2   -1    0    0  502    0  0.00000000000E+00 -0.00000000000E+00 -0.18898478047E+03  0.18898478047E+03  0.00000000000E+00 0. -1.
         23    2    1    2    0    0  0.42914650743E+01  0.64445428062E+02  0.22031949572E+03  0.24697486045E+03  0.91017974205E+02 0.  0.
         24    2    1    2    0    0  0.29496800480E+02 -0.38396186507E+02 -0.15616490780E+03  0.18208259844E+03  0.80139040744E+02 0.  0.
        -13    1    4    4    0    0  0.92648750966E+01  0.23963699058E+02 -0.27232207286E+02  0.37439149253E+02  0.00000000000E+00 0.  1.
         14    1    4    4    0    0  0.20231925384E+02 -0.62359885565E+02 -0.12893270051E+03  0.14464344919E+03  0.00000000000E+00 0. -1.
        -11    1    3    3    0    0  0.26278647907E+02  0.79447045641E+02  0.18202501608E+03  0.20033848077E+03  0.00000000000E+00 0.  1.
         11    1    3    3    0    0 -0.21987182833E+02 -0.15001617579E+02  0.38294479638E+02  0.46636379680E+02  0.00000000000E+00 0. -1.
         21    1    1    2  502  501 -0.33788265554E+02 -0.26049241555E+02  0.63117418858E+02  0.76184108829E+02  0.00000000000E+00 0.  1.
<scales pt_clust_5="13000.00000" pt_clust_6="13000.00000" pt_clust_7="13000.00000" pt_clust_8="13000.00000" pt_clust_9="42.66392"></scales>
<clustering>
<clus scale="   42.664">  1  9  2 -1</clus>
<clus scale="   80.139">  5  6 -1 -1</clus>
<clus scale="   91.018">  7  8 -1 -1</clus>
<clus scale="   93.659">  2  5  1 -1</clus>
<clus scale="   93.659">  2  5  1 -1</clus>
</clustering>
</event>
<event>
 9    2  0.5684583E-005  0.1465158E+03  0.7546771E-02  0.1211600E+00
         -3   -1    0    0    0  501 -0.00000000000E+00  0.00000000000E+00  0.50708206008E+03  0.50708206008E+03  0.00000000000E+00 0.  1.
          4   -1    0    0  502    0  0.00000000000E+00 -0.00000000000E+00 -0.71437028998E+02  0.71437028998E+02  0.00000000000E+00 0. -1.
         24    2    1    2    0    0 -0.10311500107E+03  0.39820756761E+02  0.33885981936E+03  0.36462301328E+03  0.76847696949E+02 0.  0.
         23    2    1    2    0    0  0.97376233831E+02 -0.15703532476E+02  0.37797979532E+02  0.14991117509E+03  0.10637641333E+03 0.  0.
        -11    1    3    3    0    0 -0.88879385253E+02  0.56518560422E+02  0.31530160453E+03  0.33242893167E+03  0.00000000000E+00 0.  1.
         12    1    3    3    0    0 -0.14235615817E+02 -0.16697803661E+02  0.23558214828E+02  0.32194081609E+02  0.00000000000E+00 0. -1.
        -13    1    4    4    0    0  0.53988753740E+02 -0.41954286634E+02 -0.21700049917E+02  0.71734509574E+02  0.00000000000E+00 0. -1.
         13    1    4    4    0    0  0.43387480091E+02  0.26250754158E+02  0.59498029449E+02  0.78176665514E+02  0.00000000000E+00 0.  1.
         21    1    1    2  502  501  0.57387672396E+01 -0.24117224285E+02  0.58987232198E+02  0.63984900712E+02  0.00000000000E+00 0. -1.
<scales pt_clust_5="13000.00000" pt_clust_6="13000.00000" pt_clust_7="13000.00000" pt_clust_8="13000.00000" pt_clust_9="24.79060"></scales>
<clustering>
<clus scale="   24.791">  1  9  2 -1</clus>
<clus scale="   76.848">  5  6 -1 -1</clus>
<clus scale="  106.376">  7  8 -1 -1</clus>
<clus scale="  126.714">  1  5  2 -1</clus>
<clus scale="  146.516">  2  5  1 -1</clus>
</clustering>
</event>
<event>
 9    2  0.5684583E-005  0.1045289E+03  0.7546771E-02  0.1273814E+00
          2   -1    0    0  502    0  0.00000000000E+00  0.00000000000E+00  0.89518765471E+02  0.89518765471E+02  0.00000000000E+00 0. -1.
         -1   -1    0    0    0  501 -0.00000000000E+00 -0.00000000000E+00 -0.21398186265E+03  0.21398186265E+03  0.00000000000E+00 0.  1.
         23    2    1    2    0    0  0.13060878238E+02 -0.37791607416E+02 -0.10839716726E+03  0.14562240595E+03  0.88640550046E+02 0.  0.
         24    2    1    2    0    0 -0.32803077307E+02  0.50627598557E+02  0.29892952473E+02  0.10623777327E+03  0.82180777828E+02 0.  0.
        -11    1    4    4    0    0 -0.47914566966E+02  0.26518809699E+02  0.47739583442E+02  0.72650676683E+02  0.00000000000E+00 0.  1.
         12    1    4    4    0    0  0.15111489659E+02  0.24108788858E+02 -0.17846630969E+02  0.33587096582E+02  0.00000000000E+00 0. -1.
        -11    1    3    3    0    0  0.36884099345E+02 -0.55226302950E+02 -0.85501158367E+02  0.10826277940E+03  0.00000000000E+00 0. -1.
         11    1    3    3    0    0 -0.23823221107E+02  0.17434695534E+02 -0.22896008894E+02  0.37359626545E+02  0.00000000000E+00 0.  1.
         21    1    1    2  502  501  0.19742199069E+02 -0.12835991141E+02 -0.45958882394E+02  0.51640448909E+02  0.00000000000E+00 0.  1.
<scales pt_clust_5="13000.00000" pt_clust_6="13000.00000" pt_clust_7="13000.00000" pt_clust_8="13000.00000" pt_clust_9="23.54819"></scales>
<clustering>
<clus scale="   23.548">  2  9  1 -1</clus>
<clus scale="   82.181">  5  6 -1 -1</clus>
<clus scale="   88.641">  7  8 -1 -1</clus>
<clus scale="   99.110">  1  5  2 -1</clus>
<clus scale="   99.110">  1  5  2 -1</clus>
</clustering>
</event>
<event>
 9    2  0.5684583E-005  0.1042259E+03  0.7546771E-02  0.1277485E+00
          2   -1    0    0  502    0  0.00000000000E+00  0.00000000000E+00  0.32538573395E+03  0.32538573395E+03  0.00000000000E+00 0. -1.
         -1   -1    0    0    0  501 -0.00000000000E+00 -0.00000000000E+00 -0.56894097341E+03  0.56894097341E+03  0.00000000000E+00 0.  1.
         23    2    1    2    0    0  0.35862103160E+02 -0.64232103942E+02 -0.36684618507E+03  0.38525174538E+03  0.91820096909E+02 0.  0.
         24    2    1    2    0    0 -0.27610815640E+02  0.40334974054E+02  0.30847339399E+03  0.32217473259E+03  0.79066151077E+02 0.  0.
        -11    1    4    4    0    0  0.58638734030E+01  0.55762123319E+02  0.18227953635E+03  0.19070822945E+03  0.00000000000E+00 0.  1.
         12    1    4    4    0    0 -0.33474689043E+02 -0.15427149266E+02  0.12619385764E+03  0.13146650314E+03  0.00000000000E+00 0. -1.
        -11    1    3    3    0    0  0.12027944580E+02 -0.75220606047E+02 -0.33702311314E+03  0.34552480348E+03  0.00000000000E+00 0.  1.
         11    1    3    3    0    0  0.23834158581E+02  0.10988502105E+02 -0.29823071933E+02  0.39726941907E+02  0.00000000000E+00 0. -1.
         21    1    1    2  502  501 -0.82512875204E+01  0.23897129888E+02 -0.18518244837E+03  0.18690022939E+03  0.00000000000E+00 0.  1.
<scales pt_clust_5="13000.00000" pt_clust_6="13000.00000" pt_clust_7="13000.00000" pt_clust_8="13000.00000" pt_clust_9="25.28155"></scales>
<clustering>
<clus scale="   25.282">  2  9  1 -1</clus>
<clus scale="   79.066">  5  6 -1 -1</clus>
<clus scale="   91.820">  7  8 -1 -1</clus>
<clus scale="   93.186">  1  5  2 -1</clus>
<clus scale="   93.186">  1  5  2 -1</clus>
</clustering>
</event>
<event>
 9    2  0.5684583E-005  0.1203826E+03  0.7546771E-02  0.1245581E+00
         -1   -1    0    0    0  501 -0.00000000000E+00  0.00000000000E+00  0.21305028937E+03  0.21305028937E+03  0.00000000000E+00 0.  1.
          2   -1    0    0  502    0  0.00000000000E+00 -0.00000000000E+00 -0.12793153588E+03  0.12793153588E+03  0.00000000000E+00 0. -1.
         23    2    1    2    0    0 -0.50082753142E+02  0.38070039299E+02  0.84903279415E+02  0.13951992661E+03  0.91102321659E+02 0.  0.
         24    2    1    2    0    0  0.64892588592E+02 -0.52571890603E+02 -0.64762671115E+02  0.13325783520E+03  0.81170162848E+02 0.  0.
        -13    1    4    4    0    0 -0.62950237400E+01 -0.27638161520E+02  0.69446163101E+01  0.29184293581E+02  0.00000000000E+00 0.  1.
         14    1    4    4    0    0  0.71187612332E+02 -0.24933729083E+02 -0.71707287425E+02  0.10407354162E+03  0.00000000000E+00 0. -1.
        -11    1    3    3    0    0 -0.64207000088E+01  0.41029371775E+02  0.86260495257E+02  0.95736658490E+02  0.00000000000E+00 0.  1.
         11    1    3    3    0    0 -0.43662053133E+02 -0.29593324760E+01 -0.13572158417E+01  0.43783268121E+02  0.00000000000E+00 0. -1.
         21    1    1    2  502  501 -0.14809835450E+02  0.14501851303E+02  0.64978145190E+02  0.68204063439E+02  0.00000000000E+00 0.  1.
<scales pt_clust_5="13000.00000" pt_clust_6="13000.00000" pt_clust_7="13000.00000" pt_clust_8="13000.00000" pt_clust_9="20.72764"></scales>
<clustering>
<clus scale="   20.728">  1  9  2 -1</clus>
<clus scale="   81.170">  5  6 -1 -1</clus>
<clus scale="   91.102">  7  8 -1 -1</clus>
<clus scale="  113.053">  2  5  1 -1</clus>
<clus scale="  113.053">  2  5  1 -1</clus>
</clustering>
</event>
<event>
 9    2  0.5684583E-005  0.1263290E+03  0.7546771E-02  0.1240993E+00
          2   -1    0    0  502    0  0.00000000000E+00  0.00000000000E+00  0.15395175113E+03  0.15395175113E+03  0.00000000000E+00 0. -1.
         -1   -1    0    0    0  501 -0.00000000000E+00 -0.00000000000E+00 -0.19886827144E+03  0.19886827144E+03  0.00000000000E+00 0.  1.
         23    2    1    2    0    0 -0.25224095715E+02 -0.78665257431E+02 -0.11160976501E+03  0.17249716404E+03  0.10234282693E+03 0.  0.
         24    2    1    2    0    0 -0.58818336857E+01  0.73247169246E+02  0.91052645127E+02  0.14044410589E+03  0.77680235099E+02 0.  0.
        -11    1    4    4    0    0 -0.26775945279E+02  0.21458805045E+02  0.81401353991E+00  0.34323376547E+02  0.00000000000E+00 0.  1.
         12    1    4    4    0    0  0.20894111593E+02  0.51788364201E+02  0.90238631588E+02  0.10612072935E+03  0.00000000000E+00 0. -1.
        -11    1    3    3    0    0 -0.93489847584E+01  0.21397732444E+02 -0.23123810549E+01  0.23465156635E+02  0.00000000000E+00 0. -1.
         11    1    3    3    0    0 -0.15875110957E+02 -0.10006298988E+03 -0.10929738396E+03  0.14903200740E+03  0.00000000000E+00 0.  1.
         21    1    1    2  502  501  0.31105929401E+02  0.54180881849E+01 -0.24359400422E+02  0.39878752643E+02  0.00000000000E+00 0.  1.
<scales pt_clust_5="13000.00000" pt_clust_6="13000.00000" pt_clust_7="13000.00000" pt_clust_8="13000.00000" pt_clust_9="31.57427"></scales>
<clustering>
<clus scale="   31.574">  2  9  1 -1</clus>
<clus scale="   77.680">  5  6 -1 -1</clus>
<clus scale="  102.343">  7  8 -1 -1</clus>
<clus scale="  107.327">  1  5  2 -1</clus>
<clus scale="  107.327">  1  5  2 -1</clus>
</clustering>
</event>
<event>
 9    2  0.5684583E-005  0.1002323E+03  0.7546771E-02  0.1285050E+00
         -3   -1    0    0    0  501 -0.00000000000E+00  0.00000000000E+00  0.14380895224E+03  0.14380895224E+03  0.00000000000E+00 0.  1.
          4   -1    0    0  502    0  0.00000000000E+00 -0.00000000000E+00 -0.21504459699E+03  0.21504459699E+03  0.00000000000E+00 0. -1.
         23    2    1    2    0    0 -0.47250359020E+02 -0.10428081454E+02 -0.37749854578E+01  0.10235601303E+03  0.90117487639E+02 0.  0.
         24    2    1    2    0    0 -0.11933484283E+02 -0.17382512514E+02 -0.13057946870E+03  0.16561222084E+03  0.99658668745E+02 0.  0.
        -11    1    4    4    0    0  0.53461417830E+01 -0.28051554104E+02 -0.14024402854E+03  0.14312183084E+03  0.00000000000E+00 0.  1.
         12    1    4    4    0    0 -0.17279626066E+02  0.10669041590E+02  0.96645598429E+01  0.22490390001E+02  0.00000000000E+00 0. -1.
        -13    1    3    3    0    0 -0.50531603127E+02  0.23785945487E+02  0.21338804674E+02  0.59787613284E+02  0.00000000000E+00 0.  1.
         13    1    3    3    0    0  0.32812441064E+01 -0.34214026941E+02 -0.25113790132E+02  0.42568399749E+02  0.00000000000E+00 0. -1.
         21    1    1    2  502  501  0.59183843304E+02  0.27810593968E+02  0.63118809410E+02  0.90885315350E+02  0.00000000000E+00 0.  1.
<scales pt_clust_5="13000.00000" pt_clust_6="13000.00000" pt_clust_7="13000.00000" pt_clust_8="13000.00000" pt_clust_9="65.39233"></scales>
<clustering>
<clus scale="   65.392">  1  9  2 -1</clus>
<clus scale="   90.117">  7  8 -1 -1</clus>
<clus scale="   90.751">  1  7  2 -1</clus>
<clus scale="   99.659">  5  6 -1 -1</clus>
<clus scale="  100.232">  2  5  1 -1</clus>
</clustering>
</event>
<event>
 9    2  0.5684583E-005  0.2107669E+03  0.7546771E-02  0.1142527E+00
         -1   -1    0    0    0  501 -0.00000000000E+00  0.00000000000E+00  0.45599004404E+03  0.45599004404E+03  0.00000000000E+00 0.  1.
          2   -1    0    0  502    0  0.00000000000E+00 -0.00000000000E+00 -0.19078593403E+03  0.19078593403E+03  0.00000000000E+00 0. -1.
         23    2    1    2    0    0  0.12334618840E+03  0.86525987192E+02  0.23893017314E+03  0.29946507800E+03  0.99451881094E+02 0.  0.
         24    2    1    2    0    0 -0.80415182594E+02 -0.18833443385E+03 -0.31378573457E+02  0.22268408507E+03  0.81652472754E+02 0.  0.
        -13    1    4    4    0    0 -0.55611826700E+02 -0.75928283919E+02  0.20661542319E+02  0.96357038657E+02  0.00000000000E+00 0.  1.
         14    1    4    4    0    0 -0.24803355894E+02 -0.11240614993E+03 -0.52040115775E+02  0.12632704642E+03  0.00000000000E+00 0. -1.
        -13    1    3    3    0    0  0.38913041132E+02  0.17016156509E+02  0.70008933639E+01  0.43044010738E+02  0.00000000000E+00 0. -1.
         13    1    3    3    0    0  0.84433147271E+02  0.69509830682E+02  0.23192927978E+03  0.25642106727E+03  0.00000000000E+00 0.  1.
         21    1    1    2  502  501 -0.42931005810E+02  0.10180844666E+03  0.57652510325E+02  0.12462681500E+03  0.00000000000E+00 0.  1.
<scales pt_clust_5="13000.00000" pt_clust_6="13000.00000" pt_clust_7="13000.00000" pt_clust_8="13000.00000" pt_clust_9="110.48996"></scales>
<clustering>
<clus scale="   81.652">  5  6 -1 -1</clus>
<clus scale="   99.452">  7  8 -1 -1</clus>
<clus scale="  110.490">  1  9  2 -1</clus>
<clus scale="  202.976">  2  5  1 -1</clus>
<clus scale="  202.976">  2  5  1 -1</clus>
</clustering>
</event>
<event>
 9    2  0.5684583E-005  0.1036203E+03  0.7546771E-02  0.1277478E+00
         -1   -1    0    0    0  501 -0.00000000000E+00  0.00000000000E+00  0.15153959058E+03  0.15153959058E+03  0.00000000000E+00 0.  1.
          2   -1    0    0  502    0  0.00000000000E+00 -0.00000000000E+00 -0.17072434607E+03  0.17072434607E+03  0.00000000000E+00 0. -1.
         23    2    1    2    0    0  0.25939800470E+02  0.14075049201E+01  0.69511702742E+02  0.11848488636E+03  0.92368485747E+02 0.  0.
         24    2    1    2    0    0 -0.47198751368E+02 -0.19004450282E+02 -0.12503268733E+03  0.15815102137E+03  0.82399523044E+02 0.  0.
        -13    1    4    4    0    0 -0.17526091779E+02  0.29547487571E+02 -0.23057339865E+02  0.41374615846E+02  0.00000000000E+00 0.  1.
         14    1    4    4    0    0 -0.29672659589E+02 -0.48551937852E+02 -0.10197534746E+03  0.11677640552E+03  0.00000000000E+00 0. -1.
        -11    1    3    3    0    0  0.54341043343E+02 -0.17100104100E+02  0.61140098820E+02  0.83567183964E+02  0.00000000000E+00 0.  1.
         11    1    3    3    0    0 -0.28401242873E+02  0.18507609020E+02  0.83716039217E+01  0.34917702396E+02  0.00000000000E+00 0. -1.
         21    1    1    2  502  501  0.21258950898E+02  0.17596945362E+02  0.36336229088E+02  0.45628028926E+02  0.00000000000E+00 0.  1.
<scales pt_clust_5="13000.00000" pt_clust_6="13000.00000" pt_clust_7="13000.00000" pt_clust_8="13000.00000" pt_clust_9="27.59702"></scales>
<clustering>
<clus scale="   27.597">  1  9  2 -1</clus>
<clus scale="   82.400">  5  6 -1 -1</clus>
<clus scale="   92.368">  7  8 -1 -1</clus>
<clus scale="   94.841">  2  5  1 -1</clus>
<clus scale="   94.841">  2  5  1 -1</clus>
</clustering>
</event>
<event>
 9    2  0.5684583E-005  0.1620561E+03  0.7546771E-02  0.1188055E+00
          2   -1    0    0  502    0  0.00000000000E+00  0.00000000000E+00  0.19740400070E+03  0.19740400070E+03  0.00000000000E+00 0. -1.
         -1   -1    0    0    0  501 -0.00000000000E+00 -0.00000000000E+00 -0.28934314359E+03  0.28934314359E+03  0.00000000000E+00 0.  1.
         23    2    1    2    0    0 -0.34457434598E+02 -0.13881741204E+03 -0.21587709518E+03  0.27455826902E+03  0.91223539596E+02 0.  0.
         24    2    1    2    0    0  0.22761899116E+02  0.93219354828E+02  0.90699509617E+02  0.15456281830E+03  0.80344953728E+02 0.  0.
        -13    1    4    4    0    0 -0.20380899705E+02  0.86219449418E+01 -0.15313005646E+01  0.22182513130E+02  0.00000000000E+00 0.  1.
         14    1    4    4    0    0  0.43142798821E+02  0.84597409887E+02  0.92230810181E+02  0.13238030517E+03  0.00000000000E+00 0. -1.
        -13    1    3    3    0    0 -0.91383049029E+01 -0.14262346194E+03 -0.19348718066E+03  0.24054573285E+03  0.00000000000E+00 0.  1.
         13    1    3    3    0    0 -0.25319129695E+02  0.38060498971E+01 -0.22389914523E+02  0.34012536170E+02  0.00000000000E+00 0. -1.
         21    1    1    2  502  501  0.11695535482E+02  0.45598057213E+02  0.33238442672E+02  0.57626056980E+02  0.00000000000E+00 0. -1.
<scales pt_clust_5="13000.00000" pt_clust_6="13000.00000" pt_clust_7="13000.00000" pt_clust_8="13000.00000" pt_clust_9="47.07407"></scales>
<clustering>
<clus scale="   47.074">  1  9  2 -1</clus>
<clus scale="   80.345">  5  6 -1 -1</clus>
<clus scale="   91.224">  7  8 -1 -1</clus>
<clus scale="  156.191">  1  5  2 -1</clus>
<clus scale="   47.074">  1  5  2 -1</clus>
</clustering>
</event>
<event>
 9    2  0.5684583E-005  0.1326573E+03  0.7546771E-02  0.1224787E+00
         -1   -1    0    0    0  501 -0.00000000000E+00  0.00000000000E+00  0.57021406760E+03  0.57021406760E+03  0.00000000000E+00 0.  1.
          2   -1    0    0  502    0  0.00000000000E+00 -0.00000000000E+00 -0.65627015600E+02  0.65627015600E+02  0.00000000000E+00 0. -1.
         23    2    1    2    0    0 -0.53702503130E+02  0.62157056279E+02  0.25129249835E+03  0.27937466547E+03  0.90304072383E+02 0.  0.
         24    2    1    2    0    0  0.50482736674E+02 -0.89282272659E+02  0.37001573228E+02  0.13845541425E+03  0.85328508725E+02 0.  0.
        -11    1    4    4    0    0 -0.49014212768E+01 -0.22975342863E+02  0.45941546655E+02  0.51599573828E+02  0.00000000000E+00 0.  1.
         12    1    4    4    0    0  0.55384157951E+02 -0.66306929796E+02 -0.89399734273E+01  0.86855840424E+02  0.00000000000E+00 0. -1.
        -13    1    3    3    0    0 -0.23544280171E+02  0.35950638333E+02  0.25281037396E+02  0.49858924749E+02  0.00000000000E+00 0. -1.
         13    1    3    3    0    0 -0.30158222959E+02  0.26206417946E+02  0.22601146096E+03  0.22951574072E+03  0.00000000000E+00 0.  1.
         21    1    1    2  502  501  0.32197664562E+01  0.27125216380E+02  0.21629298042E+03  0.21801100348E+03  0.00000000000E+00 0.  1.
<scales pt_clust_5="13000.00000" pt_clust_6="13000.00000" pt_clust_7="13000.00000" pt_clust_8="13000.00000" pt_clust_9="27.31564"></scales>
<clustering>
<clus scale="   27.316">  1  9  2 -1</clus>
<clus scale="   85.329">  5  6 -1 -1</clus>
<clus scale="   90.304">  7  8 -1 -1</clus>
<clus scale="  129.322">  2  5  1 -1</clus>
<clus scale="  129.322">  2  5  1 -1</clus>
</clustering>
</event>
<event>
 9    2  0.5684583E-005  0.1029056E+03  0.7546771E-02  0.1278579E+00
         -1   -1    0    0    0  501 -0.00000000000E+00  0.00000000000E+00  0.34745868176E+02  0.34745868176E+02  0.00000000000E+00 0.  1.
          2   -1    0    0  502    0  0.00000000000E+00 -0.00000000000E+00 -0.43108797345E+03  0.43108797345E+03  0.00000000000E+00 0. -1.
         23    2    1    2    0    0 -0.46446449954E+02  0.46232825469E+02 -0.12078330195E+03  0.16475323139E+03  0.90886051503E+02 0.  0.
         24    2    1    2    0    0  0.33226222237E+02 -0.25530701473E+02 -0.24656835824E+03  0.26308326474E+03  0.81615258005E+02 0.  0.
        -13    1    4    4    0    0  0.11771012427E+02  0.27922260806E+02 -0.12410852917E+03  0.12775420304E+03  0.00000000000E+00 0.  1.
         14    1    4    4    0    0  0.21455209810E+02 -0.53452962278E+02 -0.12245982907E+03  0.13532906170E+03  0.00000000000E+00 0. -1.
        -11    1    3    3    0    0 -0.24761421257E+01  0.47990613535E+02 -0.15255623282E+02  0.50417896713E+02  0.00000000000E+00 0.  1.
         11    1    3    3    0    0 -0.43970307828E+02 -0.17577880656E+01 -0.10552767867E+03  0.11433533467E+03  0.00000000000E+00 0. -1.
         21    1    1    2  502  501  0.13220227717E+02 -0.20702123997E+02 -0.28990445074E+02  0.37997345492E+02  0.00000000000E+00 0. -1.
<scales pt_clust_5="13000.00000" pt_clust_6="13000.00000" pt_clust_7="13000.00000" pt_clust_8="13000.00000" pt_clust_9="24.56323"></scales>
<clustering>
<clus scale="   24.563">  1  9  2 -1</clus>
<clus scale="   81.615">  5  6 -1 -1</clus>
<clus scale="   90.886">  7  8 -1 -1</clus>
<clus scale="   94.817">  2  5  1 -1</clus>
<clus scale="   94.817">  2  5  1 -1</clus>
</clustering>
</event>
<event>
 9    2  0.5684583E-005  0.1576599E+03  0.7546771E-02  0.1191395E+00
         -1   -1    0    0    0  501 -0.00000000000E+00  0.00000000000E+00  0.12177462122E+03  0.12177462122E+03  0.00000000000E+00 0.  1.
          2   -1    0    0  502    0  0.00000000000E+00 -0.00000000000E+00 -0.50208300697E+03  0.50208300697E+03  0.00000000000E+00 0. -1.
         23    2    1    2    0    0 -0.15150554388E+03 -0.64702779762E+02 -0.27284301708E+02  0.19089592997E+03  0.92501045527E+02 0.  0.
         24    2    1    2    0    0  0.11026805787E+03  0.48580935540E+02 -0.35748055306E+03  0.38846108890E+03  0.92685057556E+02 0.  0.
        -13    1    4    4    0    0  0.68243918481E+02  0.71823265058E+02 -0.19065196570E+03  0.21485805975E+03  0.00000000000E+00 0.  1.
         14    1    4    4    0    0  0.42024139388E+02 -0.23242329518E+02 -0.16682858735E+03  0.17360302915E+03  0.00000000000E+00 0. -1.
        -13    1    3    3    0    0 -0.15734887058E+03 -0.41227232812E+02 -0.13911659981E+02  0.16325405380E+03  0.00000000000E+00 0.  1.
         13    1    3    3    0    0  0.58433266983E+01 -0.23475546950E+02 -0.13372641727E+02  0.27641876171E+02  0.00000000000E+00 0. -1.
         21    1    1    2  502  501  0.41237486015E+02  0.16121844221E+02  0.44564690135E+01  0.44500609322E+02  0.00000000000E+00 0.  1.
<scales pt_clust_5="13000.00000" pt_clust_6="13000.00000" pt_clust_7="13000.00000" pt_clust_8="13000.00000" pt_clust_9="44.27690"></scales>
<clustering>
<clus scale="   44.277">  1  9  2 -1</clus>
<clus scale="   92.501">  7  8 -1 -1</clus>
<clus scale="   92.685">  5  6 -1 -1</clus>
<clus scale="  157.552">  1  7  2 -1</clus>
<clus scale="  157.660">  2  5  1 -1</clus>
</clustering>
</event>
<event>
 9    2  0.5684583E-005  0.9750251E+02  0.7546771E-02  0.1291475E+00
         -1   -1    0    0    0  501 -0.00000000000E+00  0.00000000000E+00  0.23534623445E+02  0.23534623445E+02  0.00000000000E+00 0.  1.
          2   -1    0    0  502    0  0.00000000000E+00 -0.00000000000E+00 -0.11423910554E+04  0.11423910554E+04  0.00000000000E+00 0. -1.
         23    2    1    2    0    0  0.19435128258E+02  0.29082506905E+02 -0.10959585808E+03  0.14701481032E+03  0.91534616005E+02 0.  0.
         24    2    1    2    0    0 -0.42618482668E+02  0.23945683531E+01 -0.85157056435E+03  0.85644729324E+03  0.80668897433E+02 0.  0.
        -13    1    4    4    0    0  0.61239943839E+01  0.25719814767E+02 -0.11972203267E+03  0.12260659561E+03  0.00000000000E+00 0.  1.
         14    1    4    4    0    0 -0.48742477052E+02 -0.23325246414E+02 -0.73184853168E+03  0.73384069764E+03  0.00000000000E+00 0. -1.
        -13    1    3    3    0    0 -0.17130407157E+02 -0.24842810154E+02 -0.19877633873E+02  0.36134974666E+02  0.00000000000E+00 0. -1.
         13    1    3    3    0    0  0.36565535416E+02  0.53925317059E+02 -0.89718224204E+02  0.11087983565E+03  0.00000000000E+00 0.  1.
         21    1    1    2  502  501  0.23183354410E+02 -0.31477075258E+02 -0.15769000950E+03  0.16246357525E+03  0.00000000000E+00 0. -1.
<scales pt_clust_5="13000.00000" pt_clust_6="13000.00000" pt_clust_7="13000.00000" pt_clust_8="13000.00000" pt_clust_9="39.09315"></scales>
<clustering>
<clus scale="   39.093">  2  9  1 -1</clus>
<clus scale="   80.669">  5  6 -1 -1</clus>
<clus scale="   87.382">  2  5  1 -1</clus>
<clus scale="   91.535">  7  8 -1 -1</clus>
<clus scale="   39.093">  2  5  1 -1</clus>
</clustering>
</event>
<event>
 9    2  0.5684583E-005  0.1265771E+03  0.7546771E-02  0.1236317E+00
          4   -1    0    0  502    0  0.00000000000E+00  0.00000000000E+00  0.11025160561E+04  0.11025160561E+04  0.00000000000E+00 0. -1.
         -3   -1    0    0    0  501 -0.00000000000E+00 -0.00000000000E+00 -0.52105639398E+02  0.52105639398E+02  0.00000000000E+00 0.  1.
         23    2    1    2    0    0  0.10754456196E+03 -0.22962309635E+02  0.77377780006E+02  0.16343374639E+03  0.92898698317E+02 0.  0.
         24    2    1    2    0    0 -0.83966723893E+02  0.44448025892E+01  0.93772359904E+03  0.94486796795E+03  0.79873410327E+02 0.  0.
        -11    1    4    4    0    0  0.23335845385E+01  0.23931517026E+02  0.12097193555E+03  0.12333844621E+03  0.00000000000E+00 0.  1.
         12    1    4    4    0    0 -0.86300308431E+02 -0.19486714437E+02  0.81675166349E+03  0.82152952174E+03  0.00000000000E+00 0. -1.
        -11    1    3    3    0    0  0.87691277108E+02  0.13259423664E+02  0.83338683042E+02  0.12170007596E+03  0.00000000000E+00 0. -1.
         11    1    3    3    0    0  0.19853284852E+02 -0.36221733300E+02 -0.59609030362E+01  0.41733670431E+02  0.00000000000E+00 0.  1.
         21    1    1    2  502  501 -0.23577838068E+02  0.18517507046E+02  0.35309037705E+02  0.46319981205E+02  0.00000000000E+00 0.  1.
<scales pt_clust_5="13000.00000" pt_clust_6="13000.00000" pt_clust_7="13000.00000" pt_clust_8="13000.00000" pt_clust_9="29.98020"></scales>
<clustering>
<clus scale="   29.980">  2  9  1 -1</clus>
<clus scale="   79.873">  5  6 -1 -1</clus>
<clus scale="   92.899">  7  8 -1 -1</clus>
<clus scale="  117.351">  1  5  2 -1</clus>
<clus scale="  117.351">  1  5  2 -1</clus>
</clustering>
</event>
<event>
 9    2  0.5684583E-005  0.3123571E+03  0.7546771E-02  0.1079528E+00
          2   -1    0    0  502    0  0.00000000000E+00  0.00000000000E+00  0.16739971326E+04  0.16739971326E+04  0.00000000000E+00 0. -1.
         -1   -1    0    0    0  501 -0.00000000000E+00 -0.00000000000E+00 -0.15153385803E+03  0.15153385803E+03  0.00000000000E+00 0.  1.
         23    2    1    2    0    0  0.15450317500E+03  0.24498242330E+03  0.46008198494E+02  0.30694180658E+03  0.90602977266E+02 0.  0.
         24    2    1    2    0    0 -0.14252053453E+03 -0.26418386227E+03  0.14533305711E+04  0.14862314699E+04  0.81295864430E+02 0.  0.
        -11    1    4    4    0    0  0.81920576612E+01 -0.19380027920E+02  0.60826697113E+02  0.64362895930E+02  0.00000000000E+00 0.  1.
         12    1    4    4    0    0 -0.15071259219E+03 -0.24480383435E+03  0.13925038739E+04  0.14218685740E+04  0.00000000000E+00 0. -1.
        -11    1    3    3    0    0  0.15060195765E+03  0.19197536701E+03  0.12935252239E+02  0.24434158864E+03  0.00000000000E+00 0.  1.
         11    1    3    3    0    0  0.39012173521E+01  0.53007056286E+02  0.33072946255E+02  0.62600217946E+02  0.00000000000E+00 0. -1.
         21    1    1    2  502  501 -0.11982640476E+02  0.19201438971E+02  0.23124505035E+02  0.32357714142E+02  0.00000000000E+00 0.  1.
<scales pt_clust_5="13000.00000" pt_clust_6="13000.00000" pt_clust_7="13000.00000" pt_clust_8="13000.00000" pt_clust_9="22.63358"></scales>
<clustering>
<clus scale="   22.634">  2  9  1 -1</clus>
<clus scale="   81.296">  5  6 -1 -1</clus>
<clus scale="   90.603">  7  8 -1 -1</clus>
<clus scale="  309.786">  1  5  2 -1</clus>
<clus scale="  309.786">  1  5  2 -1</clus>
</clustering>
</event>
<event>
 9    2  0.5684583E-005  0.1292385E+03  0.7546771E-02  0.1231127E+00
          2   -1    0    0  502    0  0.00000000000E+00  0.00000000000E+00  0.90507898265E+03  0.90507898265E+03  0.00000000000E+00 0. -1.
         -1   -1    0    0    0  501 -0.00000000000E+00 -0.00000000000E+00 -0.34410880680E+02  0.34410880680E+02  0.00000000000E+00 0.  1.
         23    2    1    2    0    0 -0.69630311212E+02  0.58498204679E+01  0.13100682227E+03  0.17407104811E+03  0.90858910799E+02 0.  0.
         24    2    1    2    0    0  0.95145391154E+02  0.27682101033E+02  0.68242134549E+03  0.69434266498E+03  0.81202829111E+02 0.  0.
        -13    1    4    4    0    0  0.55263404244E+02 -0.23938568633E+02  0.25789503123E+03  0.26483380835E+03  0.00000000000E+00 0.  1.
         14    1    4    4    0    0  0.39881986910E+02  0.51620669666E+02  0.42452631426E+03  0.42950885663E+03  0.00000000000E+00 0. -1.
        -13    1    3    3    0    0 -0.48198555979E+02  0.34248531294E+02  0.28641777993E+02  0.65699422683E+02  0.00000000000E+00 0.  1.
         13    1    3    3    0    0 -0.21431755232E+02 -0.28398710826E+02  0.10236504428E+03  0.10837162543E+03  0.00000000000E+00 0. -1.
         21    1    1    2  502  501 -0.25515079942E+02 -0.33531921501E+02  0.57239934211E+02  0.71076150236E+02  0.00000000000E+00 0. -1.
<scales pt_clust_5="13000.00000" pt_clust_6="13000.00000" pt_clust_7="13000.00000" pt_clust_8="13000.00000" pt_clust_9="42.13560"></scales>
<clustering>
<clus scale="   42.136">  2  9  1 -1</clus>
<clus scale="   81.203">  5  6 -1 -1</clus>
<clus scale="   90.859">  7  8 -1 -1</clus>
<clus scale="  122.642">  1  5  2 -1</clus>
<clus scale="  122.642">  1  5  2 -1</clus>
</clustering>
</event>
<event>
 9    2  0.5684583E-005  0.1012085E+03  0.7546771E-02  0.1284496E+00
          2   -1    0    0  502    0  0.00000000000E+00  0.00000000000E+00  0.20704964650E+04  0.20704964650E+04  0.00000000000E+00 0. -1.
         -1   -1    0    0    0  501 -0.00000000000E+00 -0.00000000000E+00 -0.25371689585E+02  0.25371689585E+02  0.00000000000E+00 0.  1.
         23    2    1    2    0    0 -0.74035663768E+01 -0.21392954692E+02  0.45553991383E+03  0.46545733462E+03  0.92851741768E+02 0.  0.
         24    2    1    2    0    0  0.15021297913E+02  0.42299672360E+02  0.16022237789E+04  0.16048205307E+04  0.79454367309E+02 0.  0.
        -11    1    4    4    0    0  0.21453314040E+02  0.85940204243E+01  0.12031275945E+03  0.12251229309E+03  0.00000000000E+00 0.  1.
         12    1    4    4    0    0 -0.64320161262E+01  0.33705651935E+02  0.14819110194E+04  0.14823082376E+04  0.00000000000E+00 0. -1.
        -11    1    3    3    0    0 -0.88250390150E+01 -0.56829161243E+02  0.33130933047E+03  0.33626374669E+03  0.00000000000E+00 0.  1.
         11    1    3    3    0    0  0.14214726383E+01  0.35436206551E+02  0.12423058336E+03  0.12919358793E+03  0.00000000000E+00 0. -1.
         21    1    1    2  502  501 -0.76177315365E+01 -0.20906717668E+02 -0.12638917255E+02  0.25590289307E+02  0.00000000000E+00 0.  1.
<scales pt_clust_5="13000.00000" pt_clust_6="13000.00000" pt_clust_7="13000.00000" pt_clust_8="13000.00000" pt_clust_9="22.25131"></scales>
<clustering>
<clus scale="   22.251">  2  9  1 -1</clus>
<clus scale="   79.454">  5  6 -1 -1</clus>
<clus scale="   89.077">  1  5  2 -1</clus>
<clus scale="   92.852">  7  8 -1 -1</clus>
<clus scale="   89.077">  1  5  2 -1</clus>
</clustering>
</event>
<event>
 9    2  0.5684583E-005  0.1515900E+03  0.7546771E-02  0.1220328E+00
         -1   -1    0    0    0  501 -0.00000000000E+00  0.00000000000E+00  0.18474927234E+03  0.18474927234E+03  0.00000000000E+00 0.  1.
          2   -1    0    0  502    0  0.00000000000E+00 -0.00000000000E+00 -0.41350288585E+03  0.41350288585E+03  0.00000000000E+00 0. -1.
         23    2    1    2    0    0 -0.25911266764E+02 -0.11952481203E+02  0.57393366607E+02  0.11110666366E+03  0.90754815993E+02 0.  0.
         24    2    1    2    0    0  0.60999180535E+02 -0.10996911424E+03 -0.32141633496E+03  0.35546419548E+03  0.85042505711E+02 0.  0.
        -13    1    4    4    0    0 -0.23782690717E+01 -0.70384848872E+02 -0.20840813788E+03  0.21998553373E+03  0.00000000000E+00 0.  1.
         14    1    4    4    0    0  0.63377449607E+02 -0.39584265370E+02 -0.11300819707E+03  0.13547866175E+03  0.00000000000E+00 0. -1.
        -13    1    3    3    0    0  0.60239976369E+01 -0.21115935492E+02 -0.18208999898E+02  0.28526110084E+02  0.00000000000E+00 0. -1.
         13    1    3    3    0    0 -0.31935264401E+02  0.91634542895E+01  0.75602366505E+02  0.82580553571E+02  0.00000000000E+00 0.  1.
         21    1    1    2  502  501 -0.35087913772E+02  0.12192159544E+03  0.35269354841E+02  0.13168129905E+03  0.00000000000E+00 0. -1.
<scales pt_clust_5="13000.00000" pt_clust_6="13000.00000" pt_clust_7="13000.00000" pt_clust_8="13000.00000" pt_clust_9="125.48824"></scales>
<clustering>
<clus scale="   85.043">  5  6 -1 -1</clus>
<clus scale="   90.755">  7  8 -1 -1</clus>
<clus scale="   95.135">  1  7  2 -1</clus>
<clus scale="  125.488">  1  9  2 -1</clus>
<clus scale="  151.590">  2  5  1 -1</clus>
</clustering>
</event>
<event>
 9    2  0.5684583E-005  0.1145856E+03  0.7546771E-02  0.1255978E+00
          2   -1    0    0  502    0  0.00000000000E+00  0.00000000000E+00  0.55012259554E+02  0.55012259554E+02  0.00000000000E+00 0. -1.
         -1   -1    0    0    0  501 -0.00000000000E+00 -0.00000000000E+00 -0.32935957769E+03  0.32935957769E+03  0.00000000000E+00 0.  1.
         24    2    1    2    0    0 -0.85221839175E+02  0.30988367155E+02 -0.14235180183E+03  0.18488570585E+03  0.75469516826E+02 0.  0.
         23    2    1    2    0    0  0.66642781120E+02 -0.52369524908E+01 -0.69874283774E+02  0.12971963309E+03  0.86464337903E+02 0.  0.
        -11    1    3    3    0    0 -0.42412099762E+02 -0.16100706690E+02 -0.95922823305E+02  0.10610941048E+03  0.00000000000E+00 0.  1.
         12    1    3    3    0    0 -0.42809739413E+02  0.47089073845E+02 -0.46428978530E+02  0.78776295366E+02  0.00000000000E+00 0. -1.
        -13    1    4    4    0    0  0.46030442516E+02  0.21898552493E+02  0.11031195655E+01  0.50985930533E+02  0.00000000000E+00 0. -1.
         13    1    4    4    0    0  0.20612338605E+02 -0.27135504984E+02 -0.70977403340E+02  0.78733702557E+02  0.00000000000E+00 0.  1.
         21    1    1    2  502  501  0.18579058054E+02 -0.25751414664E+02 -0.62121232530E+02  0.69766498310E+02  0.00000000000E+00 0. -1.
<scales pt_clust_5="13000.00000" pt_clust_6="13000.00000" pt_clust_7="13000.00000" pt_clust_8="13000.00000" pt_clust_9="31.75400"></scales>
<clustering>
<clus scale="   31.754">  2  9  1 -1</clus>
<clus scale="   75.470">  5  6 -1 -1</clus>
<clus scale="   86.464">  7  8 -1 -1</clus>
<clus scale="  106.534">  2  5  1 -1</clus>
<clus scale="  114.586">  1  5  2 -1</clus>
</clustering>
</event>
<event>
 9    2  0.5684583E-005  0.9445114E+02  0.7546771E-02  0.1297829E+00
         -1   -1    0    0    0  501 -0.00000000000E+00  0.00000000000E+00  0.23908086086E+02  0.23908086086E+02  0.00000000000E+00 0.  1.
          2   -1    0    0  502    0  0.00000000000E+00 -0.00000000000E+00 -0.61452236695E+03  0.61452236695E+03  0.00000000000E+00 0. -1.
         23    2    1    2    0    0  0.23709052802E+02  0.19922112061E+01 -0.11055931917E+03  0.14488242703E+03  0.90561948509E+02 0.  0.
         24    2    1    2    0    0 -0.18548231232E+02 -0.22342640287E+02 -0.43970720798E+03  0.44806489426E+03  0.81095562541E+02 0.  0.
        -11    1    4    4    0    0  0.26054800026E+02 -0.10743892205E+02 -0.69451108773E+02  0.74951586600E+02  0.00000000000E+00 0.  1.
         12    1    4    4    0    0 -0.44603031258E+02 -0.11598748081E+02 -0.37025609921E+03  0.37311330766E+03  0.00000000000E+00 0. -1.
        -13    1    3    3    0    0 -0.84601053982E+00  0.44424163886E+02 -0.57036503654E+02  0.72300655736E+02  0.00000000000E+00 0.  1.
         13    1    3    3    0    0  0.24555063342E+02 -0.42431952680E+02 -0.53522815513E+02  0.72581771296E+02  0.00000000000E+00 0. -1.
         21    1    1    2  502  501 -0.51608215699E+01  0.20350429080E+02 -0.40347753720E+02  0.45483131744E+02  0.00000000000E+00 0.  1.
<scales pt_clust_5="13000.00000" pt_clust_6="13000.00000" pt_clust_7="13000.00000" pt_clust_8="13000.00000" pt_clust_9="20.99462"></scales>
<clustering>
<clus scale="   20.995">  1  9  2 -1</clus>
<clus scale="   81.096">  5  6 -1 -1</clus>
<clus scale="   85.417">  2  5  1 -1</clus>
<clus scale="   90.562">  7  8 -1 -1</clus>
<clus scale="   85.417">  2  5  1 -1</clus>
</clustering>
</event>
<event>
 9    2  0.5684583E-005  0.1087452E+03  0.7546771E-02  0.1264255E+00
         -1   -1    0    0    0  501 -0.00000000000E+00  0.00000000000E+00  0.80105680084E+02  0.80105680084E+02  0.00000000000E+00 0.  1.
          2   -1    0    0  502    0  0.00000000000E+00 -0.00000000000E+00 -0.21170193251E+03  0.21170193251E+03  0.00000000000E+00 0. -1.
         24    2    1    2    0    0  0.89847188520E+01  0.80952906819E+02 -0.51800568454E+02  0.12413788052E+03  0.78056493604E+02 0.  0.
         23    2    1    2    0    0 -0.40145292370E+02 -0.54852793885E+02 -0.63354122285E+02  0.12382315652E+03  0.81841039721E+02 0.  0.
        -11    1    3    3    0    0 -0.80235693402E+01  0.37878173395E+02  0.16112590423E+02  0.41937444544E+02  0.00000000000E+00 0.  1.
         12    1    3    3    0    0  0.17008288192E+02  0.43074733423E+02 -0.67913158877E+02  0.82200435981E+02  0.00000000000E+00 0. -1.
        -11    1    4    4    0    0  0.12954004705E+02 -0.50712618759E+02 -0.23890431657E+02  0.57535455712E+02  0.00000000000E+00 0. -1.
         11    1    4    4    0    0 -0.53099297075E+02 -0.41401751262E+01 -0.39463690628E+02  0.66287700804E+02  0.00000000000E+00 0.  1.
         21    1    1    2  502  501  0.31160573518E+02 -0.26100112934E+02 -0.16441561690E+02  0.43846575555E+02  0.00000000000E+00 0. -1.
<scales pt_clust_5="13000.00000" pt_clust_6="13000.00000" pt_clust_7="13000.00000" pt_clust_8="13000.00000" pt_clust_9="40.64723"></scales>
<clustering>
<clus scale="   40.647">  1  9  2 -1</clus>
<clus scale="   78.056">  5  6 -1 -1</clus>
<clus scale="   81.841">  7  8 -1 -1</clus>
<clus scale="  105.926">  1  5  2 -1</clus>
<clus scale="  108.745">  2  5  1 -1</clus>
</clustering>
</event>
<event>
 9    2  0.5684583E-005  0.1390806E+03  0.7546771E-02  0.1216922E+00
         -1   -1    0    0    0  501 -0.00000000000E+00  0.00000000000E+00  0.18748018510E+03  0.18748018510E+03  0.00000000000E+00 0.  1.
          2   -1    0    0  502    0  0.00000000000E+00 -0.00000000000E+00 -0.22284965904E+03  0.22284965904E+03  0.00000000000E+00 0. -1.
         23    2    1    2    0    0 -0.52525756472E+02  0.86538460281E+02  0.35095335062E+02  0.14083300355E+03  0.91402364005E+02 0.  0.
         24    2    1    2    0    0  0.20334311137E+02 -0.10553476491E+03 -0.13777714156E+03  0.19250269238E+03  0.80769270294E+02 0.  0.
        -11    1    4    4    0    0  0.38885604030E+02 -0.82270488264E+02 -0.59403269172E+02  0.10867047358E+03  0.00000000000E+00 0.  1.
         12    1    4    4    0    0 -0.18551292893E+02 -0.23264276644E+02 -0.78373872390E+02  0.83832218802E+02  0.00000000000E+00 0. -1.
        -13    1    3    3    0    0 -0.25646244076E+02 -0.92765854352E+00  0.41838098454E+02  0.49081736602E+02  0.00000000000E+00 0. -1.
         13    1    3    3    0    0 -0.26879512396E+02  0.87466118825E+02 -0.67427633924E+01  0.91751266951E+02  0.00000000000E+00 0.  1.
         21    1    1    2  502  501  0.32191445335E+02  0.18996304626E+02  0.67312332564E+02  0.76994148202E+02  0.00000000000E+00 0.  1.
<scales pt_clust_5="13000.00000" pt_clust_6="13000.00000" pt_clust_7="13000.00000" pt_clust_8="13000.00000" pt_clust_9="37.37845"></scales>
<clustering>
<clus scale="   37.378">  1  9  2 -1</clus>
<clus scale="   80.769">  5  6 -1 -1</clus>
<clus scale="   91.402">  7  8 -1 -1</clus>
<clus scale="  132.336">  2  5  1 -1</clus>
<clus scale="  132.336">  2  5  1 -1</clus>
</clustering>
</event>
<event>
 9    2  0.5684583E-005  0.1197552E+03  0.7546771E-02  0.1268011E+00
         -1   -1    0    0    0  501 -0.00000000000E+00  0.00000000000E+00  0.43312566421E+02  0.43312566421E+02  0.00000000000E+00 0.  1.
          2   -1    0    0  502    0  0.00000000000E+00 -0.00000000000E+00 -0.52091993092E+03  0.52091993092E+03  0.00000000000E+00 0. -1.
         24    2    1    2    0    0 -0.16301451179E+01  0.11815994746E+02 -0.96379731928E+02  0.12134401279E+03  0.72753292768E+02 0.  0.
         23    2    1    2    0    0 -0.50090552189E+02  0.51433955932E+02 -0.31948410979E+03  0.34047828293E+03  0.93278344186E+02 0.  0.
        -13    1    3    3    0    0 -0.26933142010E+02 -0.82011626314E+01 -0.11273076769E+02  0.30327140764E+02  0.00000000000E+00 0.  1.
         14    1    3    3    0    0  0.25302996893E+02  0.20017157378E+02 -0.85106655159E+02  0.91016872027E+02  0.00000000000E+00 0. -1.
        -13    1    4    4    0    0 -0.77434514716E+02  0.31495010114E+02 -0.21660869775E+03  0.23217960218E+03  0.00000000000E+00 0.  1.
         13    1    4    4    0    0  0.27343962527E+02  0.19938945818E+02 -0.10287541205E+03  0.10829868075E+03  0.00000000000E+00 0. -1.
         21    1    1    2  502  501  0.51720697307E+02 -0.63249950679E+02 -0.61743522773E+02  0.10241020162E+03  0.00000000000E+00 0. -1.
<scales pt_clust_5="13000.00000" pt_clust_6="13000.00000" pt_clust_7="13000.00000" pt_clust_8="13000.00000" pt_clust_9="75.10299"></scales>
<clustering>
<clus scale="   72.753">  5  6 -1 -1</clus>
<clus scale="   73.725">  1  5  2 -1</clus>
<clus scale="   75.103">  1  9  2 -1</clus>
<clus scale="   93.278">  7  8 -1 -1</clus>
<clus scale="  119.755">  2  5  1 -1</clus>
</clustering>
</event>
<event>
 9    2  0.5684583E-005  0.1015290E+03  0.7546771E-02  0.1283979E+00
         -1   -1    0    0    0  501 -0.00000000000E+00  0.00000000000E+00  0.31743629523E+02  0.31743629523E+02  0.00000000000E+00 0.  1.
          2   -1    0    0  502    0  0.00000000000E+00 -0.00000000000E+00 -0.40398361233E+03  0.40398361233E+03  0.00000000000E+00 0. -1.
         23    2    1    2    0    0  0.46228893420E+02 -0.20990087645E+02 -0.13118287481E+03  0.16786821938E+03  0.91613853033E+02 0.  0.
         24    2    1    2    0    0 -0.19916916738E+02  0.34337611707E+02 -0.17499283240E+03  0.19550596431E+03  0.77616593197E+02 0.  0.
        -11    1    4    4    0    0  0.20212404320E+02 -0.12578701765E+02 -0.33178688183E+02  0.40836140562E+02  0.00000000000E+00 0.  1.
         12    1    4    4    0    0 -0.40129321058E+02  0.46916313472E+02 -0.14181414421E+03  0.15466982374E+03  0.00000000000E+00 0. -1.
        -11    1    3    3    0    0  0.34574748419E+02 -0.48161937590E+02 -0.12399707909E+03  0.13744184619E+03  0.00000000000E+00 0.  1.
         11    1    3    3    0    0  0.11654145001E+02  0.27171849945E+02 -0.71857957132E+01  0.30426373184E+02  0.00000000000E+00 0. -1.
         21    1    1    2  502  501 -0.26311976682E+02 -0.13347524062E+02 -0.66064275605E+02  0.72353058171E+02  0.00000000000E+00 0. -1.
<scales pt_clust_5="13000.00000" pt_clust_6="13000.00000" pt_clust_7="13000.00000" pt_clust_8="13000.00000" pt_clust_9="29.50384"></scales>
<clustering>
<clus scale="   29.504">  2  9  1 -1</clus>
<clus scale="   77.617">  5  6 -1 -1</clus>
<clus scale="   89.103">  2  5  1 -1</clus>
<clus scale="   91.614">  7  8 -1 -1</clus>
<clus scale="   29.504">  2  5  1 -1</clus>
</clustering>
</event>
<event>
 9    2  0.5684583E-005  0.1219609E+03  0.7546771E-02  0.1244155E+00
         -3   -1    0    0    0  501 -0.00000000000E+00  0.00000000000E+00  0.64227708060E+03  0.64227708060E+03  0.00000000000E+00 0.  1.
          4   -1    0    0  502    0  0.00000000000E+00 -0.00000000000E+00 -0.78025479546E+02  0.78025479546E+02  0.00000000000E+00 0. -1.
         24    2    1    2    0    0 -0.93427340275E+02  0.33243649076E+02  0.10416617929E+03  0.16305099859E+03  0.76819444925E+02 0.  0.
         23    2    1    2    0    0  0.42341421375E+02 -0.65620329072E+02  0.30776934524E+02  0.12370364294E+03  0.90865549174E+02 0.  0.
        -13    1    3    3    0    0 -0.75217735537E+02  0.57067931302E+02  0.87587505582E+02  0.12878675264E+03  0.00000000000E+00 0.  1.
         14    1    3    3    0    0 -0.18209604738E+02 -0.23824282226E+02  0.16578673705E+02  0.34264245945E+02  0.00000000000E+00 0. -1.
        -13    1    4    4    0    0  0.17593785364E+02 -0.82336207292E+02  0.51517151067E+01  0.84352430215E+02  0.00000000000E+00 0. -1.
         13    1    4    4    0    0  0.24747636011E+02  0.16715878221E+02  0.25625219417E+02  0.39351212726E+02  0.00000000000E+00 0.  1.
         21    1    1    2  502  501  0.51085918900E+02  0.32376679996E+02  0.42930848725E+03  0.43354791862E+03  0.00000000000E+00 0.  1.
<scales pt_clust_5="13000.00000" pt_clust_6="13000.00000" pt_clust_7="13000.00000" pt_clust_8="13000.00000" pt_clust_9="60.48157"></scales>
<clustering>
<clus scale="   60.482">  1  9  2 -1</clus>
<clus scale="   76.819">  5  6 -1 -1</clus>
<clus scale="   90.866">  7  8 -1 -1</clus>
<clus scale="  111.889">  1  5  2 -1</clus>
<clus scale="  121.961">  2  5  1 -1</clus>
</clustering>
</event>
<event>
 9    2  0.5684583E-005  0.1002887E+03  0.7546771E-02  0.1282852E+00
         -1   -1    0    0    0  501 -0.00000000000E+00  0.00000000000E+00  0.15427848025E+03  0.15427848025E+03  0.00000000000E+00 0.  1.
          2   -1    0    0  502    0  0.00000000000E+00 -0.00000000000E+00 -0.12241261124E+03  0.12241261124E+03  0.00000000000E+00 0. -1.
         23    2    1    2    0    0 -0.29455655379E+01 -0.29423245690E+01  0.54248100326E+02  0.10616803572E+03  0.91167218836E+02 0.  0.
         24    2    1    2    0    0  0.57719817622E+02  0.65129121120E+01 -0.43737590504E+02  0.11162467589E+03  0.84694132460E+02 0.  0.
        -11    1    4    4    0    0 -0.11529737897E+02  0.24502521785E+02  0.12497258852E+01  0.27108490267E+02  0.00000000000E+00 0.  1.
         12    1    4    4    0    0  0.69249555519E+02 -0.17989609673E+02 -0.44987316389E+02  0.84516185619E+02  0.00000000000E+00 0. -1.
        -11    1    3    3    0    0 -0.25758049908E+02  0.37084373427E+02  0.25302153607E+02  0.51758350676E+02  0.00000000000E+00 0.  1.
         11    1    3    3    0    0  0.22812484370E+02 -0.40026697996E+02  0.28945946719E+02  0.54409685048E+02  0.00000000000E+00 0. -1.
         21    1    1    2  502  501 -0.54774252084E+02 -0.35705875431E+01  0.21355359184E+02  0.58898379881E+02  0.00000000000E+00 0.  1.
<scales pt_clust_5="13000.00000" pt_clust_6="13000.00000" pt_clust_7="13000.00000" pt_clust_8="13000.00000" pt_clust_9="54.89051"></scales>
<clustering>
<clus scale="   54.891">  1  9  2 -1</clus>
<clus scale="   84.694">  5  6 -1 -1</clus>
<clus scale="   91.167">  7  8 -1 -1</clus>
<clus scale="   94.443">  2  5  1 -1</clus>
<clus scale="   94.443">  2  5  1 -1</clus>
</clustering>
</event>
<event>
 9    2  0.5684583E-005  0.1015844E+03  0.7546771E-02  0.1286003E+00
         -1   -1    0    0    0  501 -0.00000000000E+00  0.00000000000E+00  0.26484131810E+02  0.26484131810E+02  0.00000000000E+00 0.  1.
          2   -1    0    0  502    0  0.00000000000E+00 -0.00000000000E+00 -0.52667740462E+03  0.52667740462E+03  0.00000000000E+00 0. -1.
         23    2    1    2    0    0  0.85640800604E+01 -0.42439218524E+02 -0.14829145690E+03  0.17891072955E+03  0.90245566226E+02 0.  0.
         24    2    1    2    0    0 -0.36276751343E+02  0.34736912332E+02 -0.31769367639E+03  0.32955724493E+03  0.71805639743E+02 0.  0.
        -13    1    4    4    0    0 -0.64046485696E+01  0.29535843163E+02 -0.39598443211E+02  0.49813876173E+02  0.00000000000E+00 0.  1.
         14    1    4    4    0    0 -0.29872102773E+02  0.52010691695E+01 -0.27809523318E+03  0.27974336876E+03  0.00000000000E+00 0. -1.
        -11    1    3    3    0    0  0.91786609226E+01 -0.63593419135E+02 -0.59291261808E+02  0.87428968313E+02  0.00000000000E+00 0.  1.
         11    1    3    3    0    0 -0.61458086224E+00  0.21154200611E+02 -0.89000195090E+02  0.91481761237E+02  0.00000000000E+00 0. -1.
         21    1    1    2  502  501  0.27712671283E+02  0.77023061917E+01 -0.34208139518E+02  0.44693561948E+02  0.00000000000E+00 0.  1.
<scales pt_clust_5="13000.00000" pt_clust_6="13000.00000" pt_clust_7="13000.00000" pt_clust_8="13000.00000" pt_clust_9="28.76313"></scales>
<clustering>
<clus scale="   28.763">  1  9  2 -1</clus>
<clus scale="   71.806">  5  6 -1 -1</clus>
<clus scale="   85.622">  2  5  1 -1</clus>
<clus scale="   90.246">  7  8 -1 -1</clus>
<clus scale="   85.622">  2  5  1 -1</clus>
</clustering>
</event>
<event>
 9    2  0.5684583E-005  0.1578674E+03  0.7546771E-02  0.1192270E+00
         -1   -1    0    0    0  501 -0.00000000000E+00  0.00000000000E+00  0.10578107865E+03  0.10578107865E+03  0.00000000000E+00 0.  1.
          2   -1    0    0  502    0  0.00000000000E+00 -0.00000000000E+00 -0.54649999684E+03  0.54649999684E+03  0.00000000000E+00 0. -1.
         24    2    1    2    0    0 -0.11078527667E+03 -0.47035758928E+02 -0.80534622198E+01  0.14656119256E+03  0.83244127519E+02 0.  0.
         23    2    1    2    0    0  0.15062295861E+03  0.92411565673E+02 -0.36151209223E+03  0.41239889969E+03  0.90303302870E+02 0.  0.
        -13    1    3    3    0    0 -0.11786625292E+03 -0.34350289238E+02  0.10245441587E+02  0.12319644890E+03  0.00000000000E+00 0.  1.
         14    1    3    3    0    0  0.70809762480E+01 -0.12685469690E+02 -0.18298903807E+02  0.23364743663E+02  0.00000000000E+00 0. -1.
        -13    1    4    4    0    0  0.21967025792E+02  0.29752092963E+02 -0.19839296305E+02  0.41968261051E+02  0.00000000000E+00 0.  1.
         13    1    4    4    0    0  0.12865593282E+03  0.62659472710E+02 -0.34167279592E+03  0.37043063864E+03  0.00000000000E+00 0. -1.
         21    1    1    2  502  501 -0.39837681937E+02 -0.45375806745E+02 -0.71153363748E+02  0.93320983238E+02  0.00000000000E+00 0. -1.
<scales pt_clust_5="13000.00000" pt_clust_6="13000.00000" pt_clust_7="13000.00000" pt_clust_8="13000.00000" pt_clust_9="60.38216"></scales>
<clustering>
<clus scale="   60.382">  2  9  1 -1</clus>
<clus scale="   83.244">  5  6 -1 -1</clus>
<clus scale="   90.303">  7  8 -1 -1</clus>
<clus scale="  153.938">  1  5  2 -1</clus>
<clus scale="   60.382">  2  5  1 -1</clus>
</clustering>
</event>
<event>
 9    2  0.5684583E-005  0.9151986E+02  0.7546771E-02  0.1306845E+00
          2   -1    0    0  502    0  0.00000000000E+00  0.00000000000E+00  0.12428732603E+03  0.12428732603E+03  0.00000000000E+00 0. -1.
         -1   -1    0    0    0  501 -0.00000000000E+00 -0.00000000000E+00 -0.13160727486E+03  0.13160727486E+03  0.00000000000E+00 0.  1.
         23    2    1    2    0    0  0.97708371700E+01  0.10961136054E+01 -0.78555308096E+02  0.12042479180E+03  0.90744274338E+02 0.  0.
         24    2    1    2    0    0  0.14371554915E+02  0.60713287272E+01  0.75241953059E+02  0.10996921853E+03  0.78666860242E+02 0.  0.
        -11    1    4    4    0    0 -0.57354061819E+01  0.36751392467E+02  0.16447746844E+02  0.40670482031E+02  0.00000000000E+00 0.  1.
         12    1    4    4    0    0  0.20106961097E+02 -0.30680063740E+02  0.58794206214E+02  0.69298736497E+02  0.00000000000E+00 0. -1.
        -11    1    3    3    0    0 -0.26760544275E+02  0.32492325247E+02 -0.27768141046E+02  0.50427647050E+02  0.00000000000E+00 0.  1.
         11    1    3    3    0    0  0.36531381445E+02 -0.31396211641E+02 -0.50787167050E+02  0.69997144747E+02  0.00000000000E+00 0. -1.
         21    1    1    2  502  501 -0.24142392085E+02 -0.71674423326E+01 -0.40065937950E+01  0.25500590562E+02  0.00000000000E+00 0.  1.
<scales pt_clust_5="13000.00000" pt_clust_6="13000.00000" pt_clust_7="13000.00000" pt_clust_8="13000.00000" pt_clust_9="25.18387"></scales>
<clustering>
<clus scale="   25.184">  2  9  1 -1</clus>
<clus scale="   78.667">  5  6 -1 -1</clus>
<clus scale="   79.560">  1  5  2 -1</clus>
<clus scale="   90.744">  7  8 -1 -1</clus>
<clus scale="   79.560">  1  5  2 -1</clus>
</clustering>
</event>
<event>
 9    2  0.5684583E-005  0.9281553E+02  0.7546771E-02  0.1301688E+00
          4   -1    0    0  502    0  0.00000000000E+00  0.00000000000E+00  0.72597356724E+02  0.72597356724E+02  0.00000000000E+00 0. -1.
         -3   -1    0    0    0  501 -0.00000000000E+00 -0.00000000000E+00 -0.39301880728E+03  0.39301880728E+03  0.00000000000E+00 0.  1.
         23    2    1    2    0    0 -0.13053830846E+02 -0.17019920003E+02 -0.78982858533E+02  0.12169940179E+03  0.90068708649E+02 0.  0.
         24    2    1    2    0    0  0.21836062534E+02 -0.21705213779E+02  0.12100008155E+02  0.87287486096E+02  0.80776018096E+02 0.  0.
        -13    1    4    4    0    0 -0.34160705924E+01 -0.38859482937E+02 -0.19275026347E+02  0.43511557006E+02  0.00000000000E+00 0.  1.
         14    1    4    4    0    0  0.25252133126E+02  0.17154269158E+02  0.31375034501E+02  0.43775929091E+02  0.00000000000E+00 0. -1.
        -13    1    3    3    0    0  0.29379564069E+02  0.13152900352E+02 -0.56413611248E+02  0.64951159394E+02  0.00000000000E+00 0. -1.
         13    1    3    3    0    0 -0.42433394915E+02 -0.30172820355E+02 -0.22569247285E+02  0.56748242397E+02  0.00000000000E+00 0.  1.
         21    1    1    2  502  501 -0.87822316881E+01  0.38725133782E+02 -0.25353860018E+03  0.25662927612E+03  0.00000000000E+00 0.  1.
<scales pt_clust_5="13000.00000" pt_clust_6="13000.00000" pt_clust_7="13000.00000" pt_clust_8="13000.00000" pt_clust_9="39.70848"></scales>
<clustering>
<clus scale="   39.708">  2  9  1 -1</clus>
<clus scale="   80.776">  5  6 -1 -1</clus>
<clus scale="   83.828">  1  5  2 -1</clus>
<clus scale="   90.069">  7  8 -1 -1</clus>
<clus scale="   83.828">  1  5  2 -1</clus>
</clustering>
</event>
<event>
 9    2  0.5684583E-005  0.1147547E+03  0.7546771E-02  0.1261015E+00
          4   -1    0    0  502    0  0.00000000000E+00  0.00000000000E+00  0.57625642015E+03  0.57625642015E+03  0.00000000000E+00 0. -1.
         -3   -1    0    0    0  501 -0.00000000000E+00 -0.00000000000E+00 -0.36699779660E+02  0.36699779660E+02  0.00000000000E+00 0.  1.
         23    2    1    2    0    0  0.37516946201E+02  0.16481292264E+01  0.14245900259E+03  0.17921535228E+03  0.10204576175E+03 0.  0.
         24    2    1    2    0    0 -0.57075697636E+02 -0.58846986877E+01  0.40130757262E+03  0.41329049719E+03  0.80430108063E+02 0.  0.
        -11    1    4    4    0    0 -0.13136213502E+02  0.25036192390E+02  0.46372856417E+02  0.54312179544E+02  0.00000000000E+00 0.  1.
         12    1    4    4    0    0 -0.43939484134E+02 -0.30920891078E+02  0.35493471621E+03  0.35897831765E+03  0.00000000000E+00 0. -1.
        -11    1    3    3    0    0 -0.29042652601E+02  0.22049282257E+02  0.31296485005E+02  0.48053267234E+02  0.00000000000E+00 0.  1.
         11    1    3    3    0    0  0.66559598803E+02 -0.20401153031E+02  0.11116251758E+03  0.13116208504E+03  0.00000000000E+00 0. -1.
         21    1    1    2  502  501  0.19558751435E+02  0.42365694613E+01 -0.42099347260E+01  0.20450350337E+02  0.00000000000E+00 0.  1.
<scales pt_clust_5="13000.00000" pt_clust_6="13000.00000" pt_clust_7="13000.00000" pt_clust_8="13000.00000" pt_clust_9="20.01233"></scales>
<clustering>
<clus scale="   20.012">  2  9  1 -1</clus>
<clus scale="   80.430">  5  6 -1 -1</clus>
<clus scale="   96.043">  1  5  2 -1</clus>
<clus scale="  102.046">  7  8 -1 -1</clus>
<clus scale="   96.043">  1  5  2 -1</clus>
</clustering>
</event>
<event>
 9    2  0.5684583E-005  0.9607285E+02  0.7546771E-02  0.1296503E+00
         -1   -1    0    0    0  501 -0.00000000000E+00  0.00000000000E+00  0.31233619646E+03  0.31233619646E+03  0.00000000000E+00 0.  1.
          2   -1    0    0  502    0  0.00000000000E+00 -0.00000000000E+00 -0.44751929157E+02  0.44751929157E+02  0.00000000000E+00 0. -1.
         24    2    1    2    0    0  0.14264494331E+02 -0.40895682850E+01  0.16826510479E+03  0.18613246102E+03  0.78178943379E+02 0.  0.
         23    2    1    2    0    0 -0.33484152219E+02 -0.86394968878E+01  0.37536159655E+02  0.10501202357E+03  0.91775445828E+02 0.  0.
        -13    1    3    3    0    0  0.29501979312E+02 -0.13779157975E+02  0.16449369006E+03  0.16768543779E+03  0.00000000000E+00 0.  1.
         14    1    3    3    0    0 -0.15237484981E+02  0.96895896898E+01  0.37714147301E+01  0.18447023228E+02  0.00000000000E+00 0. -1.
        -11    1    4    4    0    0 -0.40756323295E+02 -0.30052911614E+02  0.56230365284E+02  0.75671060287E+02  0.00000000000E+00 0.  1.
         11    1    4    4    0    0  0.72721710754E+01  0.21413414727E+02 -0.18694205629E+02  0.29340963285E+02  0.00000000000E+00 0. -1.
         21    1    1    2  502  501  0.19219657888E+02  0.12729065173E+02  0.61783002855E+02  0.65943641023E+02  0.00000000000E+00 0.  1.
<scales pt_clust_5="13000.00000" pt_clust_6="13000.00000" pt_clust_7="13000.00000" pt_clust_8="13000.00000" pt_clust_9="23.05264"></scales>
<clustering>
<clus scale="   23.053">  1  9  2 -1</clus>
<clus scale="   78.179">  5  6 -1 -1</clus>
<clus scale="   83.182">  1  5  2 -1</clus>
<clus scale="   91.775">  7  8 -1 -1</clus>
<clus scale="   96.073">  2  5  1 -1</clus>
</clustering>
</event>
<event>
 9    2  0.5684583E-005  0.2845315E+03  0.7546771E-02  0.1093578E+00
          2   -1    0    0  502    0  0.00000000000E+00  0.00000000000E+00  0.18818318429E+03  0.18818318429E+03  0.00000000000E+00 0. -1.
         -1   -1    0    0    0  501 -0.00000000000E+00 -0.00000000000E+00 -0.66508516839E+03  0.66508516839E+03  0.00000000000E+00 0.  1.
         24    2    1    2    0    0  0.26914215536E+03  0.80099499956E+02 -0.13475211475E+03  0.32219303516E+03  0.82442645455E+02 0.  0.
         23    2    1    2    0    0 -0.23809989179E+03 -0.10638114405E+03 -0.11298121512E+03  0.29832519609E+03  0.90689918809E+02 0.  0.
        -11    1    3    3    0    0  0.16274547581E+03  0.57605947066E+02 -0.12472996635E+03  0.21298380112E+03  0.00000000000E+00 0.  1.
         12    1    3    3    0    0  0.10639667955E+03  0.22493552889E+02 -0.10022148402E+02  0.10920923404E+03  0.00000000000E+00 0. -1.
        -11    1    4    4    0    0 -0.19513096954E+03 -0.48886010693E+02 -0.10255229030E+03  0.22579395377E+03  0.00000000000E+00 0.  1.
         11    1    4    4    0    0 -0.42968922249E+02 -0.57495133359E+02 -0.10428924818E+02  0.72531242317E+02  0.00000000000E+00 0. -1.
         21    1    1    2  502  501 -0.31042263573E+02  0.26281644097E+02 -0.22916865424E+03  0.23275012144E+03  0.00000000000E+00 0.  1.
<scales pt_clust_5="13000.00000" pt_clust_6="13000.00000" pt_clust_7="13000.00000" pt_clust_8="13000.00000" pt_clust_9="40.67366"></scales>
<clustering>
<clus scale="   40.674">  2  9  1 -1</clus>
<clus scale="   82.443">  5  6 -1 -1</clus>
<clus scale="   90.690">  7  8 -1 -1</clus>
<clus scale="  282.011">  2  5  1 -1</clus>
<clus scale="  284.531">  1  5  2 -1</clus>
</clustering>
</event>
<event>
 9    2  0.5684583E-005  0.1047365E+03  0.7546771E-02  0.1274823E+00
         -3   -1    0    0    0  501 -0.00000000000E+00  0.00000000000E+00  0.42449664015E+03  0.42449664015E+03  0.00000000000E+00 0.  1.
          4   -1    0    0  502    0  0.00000000000E+00 -0.00000000000E+00 -0.50307100084E+02  0.50307100084E+02  0.00000000000E+00 0. -1.
         23    2    1    2    0    0 -0.38386274967E+02 -0.62482413652E+02  0.23119673141E+03  0.25952476094E+03  0.92323425022E+02 0.  0.
         24    2    1    2    0    0 -0.58967347906E+01  0.45357191070E+02  0.41974668076E+02  0.10365943383E+03  0.83014210828E+02 0.  0.
        -13    1    4    4    0    0  0.25085361211E+02 -0.12250900752E+02  0.21115270203E+02  0.35003064895E+02  0.00000000000E+00 0.  1.
         14    1    4    4    0    0 -0.30982096002E+02  0.57608091822E+02  0.20859397873E+02  0.68656368937E+02  0.00000000000E+00 0. -1.
        -13    1    3    3    0    0 -0.38502171875E+02  0.14276397223E+02  0.76053588687E+02  0.86431366465E+02  0.00000000000E+00 0. -1.
         13    1    3    3    0    0  0.11589690799E+00 -0.76758810875E+02  0.15514314272E+03  0.17309339448E+03  0.00000000000E+00 0.  1.
         21    1    1    2  502  501  0.44283009758E+02  0.17125222581E+02  0.10101814058E+03  0.11161954546E+03  0.00000000000E+00 0. -1.
<scales pt_clust_5="13000.00000" pt_clust_6="13000.00000" pt_clust_7="13000.00000" pt_clust_8="13000.00000" pt_clust_9="47.47903"></scales>
<clustering>
<clus scale="   47.479">  1  9  2 -1</clus>
<clus scale="   83.014">  5  6 -1 -1</clus>
<clus scale="   92.323">  7  8 -1 -1</clus>
<clus scale="   96.631">  2  5  1 -1</clus>
<clus scale="   96.631">  2  5  1 -1</clus>
</clustering>
</event>
<event>
 9    2  0.5684583E-005  0.1489202E+03  0.7546771E-02  0.1204672E+00
          2   -1    0    0  502    0  0.00000000000E+00  0.00000000000E+00  0.23553196806E+03  0.23553196806E+03  0.00000000000E+00 0. -1.
         -1   -1    0    0    0  501 -0.00000000000E+00 -0.00000000000E+00 -0.16819422399E+03  0.16819422399E+03  0.00000000000E+00 0.  1.
         23    2    1    2    0    0  0.54519247152E+02 -0.15634805365E+03  0.41404757517E+02  0.19522905548E+03  0.94778520607E+02 0.  0.
         24    2    1    2    0    0 -0.52708406955E+02  0.67857824541E+02  0.24727239771E+02  0.11998016862E+03  0.80005899540E+02 0.  0.
        -13    1    4    4    0    0 -0.68164749705E+02  0.68653989175E+02  0.33264198305E+02  0.10230498630E+03  0.00000000000E+00 0.  1.
         14    1    4    4    0    0  0.15456342750E+02 -0.79616463388E+00 -0.85369585348E+01  0.17675182329E+02  0.00000000000E+00 0. -1.
        -13    1    3    3    0    0 -0.24105409879E+02 -0.54351709727E+02  0.28091890025E+02  0.65759664087E+02  0.00000000000E+00 0.  1.
         13    1    3    3    0    0  0.78624657031E+02 -0.10199634392E+03  0.13312867492E+02  0.12946939139E+03  0.00000000000E+00 0. -1.
         21    1    1    2  502  501 -0.18108401972E+01  0.88490229108E+02  0.12057467819E+01  0.88516967951E+02  0.00000000000E+00 0.  1.
<scales pt_clust_5="13000.00000" pt_clust_6="13000.00000" pt_clust_7="13000.00000" pt_clust_8="13000.00000" pt_clust_9="88.50876"></scales>
<clustering>
<clus scale="   80.006">  5  6 -1 -1</clus>
<clus scale="   88.509">  2  9  1 -1</clus>
<clus scale="   94.779">  7  8 -1 -1</clus>
<clus scale="  139.983">  1  5  2 -1</clus>
<clus scale="  139.983">  1  5  2 -1</clus>
</clustering>
</event>
<event>
 9    2  0.5684583E-005  0.1073835E+03  0.7546771E-02  0.1270646E+00
         -1   -1    0    0    0  501 -0.00000000000E+00  0.00000000000E+00  0.33607994391E+03  0.33607994391E+03  0.00000000000E+00 0.  1.
          2   -1    0    0  502    0  0.00000000000E+00 -0.00000000000E+00 -0.44303149418E+02  0.44303149418E+02  0.00000000000E+00 0. -1.
         23    2    1    2    0    0  0.24414726283E+02  0.63872559220E+02  0.14236155244E+03  0.18276537177E+03  0.91981448263E+02 0.  0.
         24    2    1    2    0    0 -0.17805798134E+02 -0.44388995560E+02  0.72395371848E+02  0.11789728760E+03  0.79820117667E+02 0.  0.
        -13    1    4    4    0    0 -0.10970419729E+02 -0.35542008669E+02  0.89806993927E+02  0.97205352978E+02  0.00000000000E+00 0.  1.
         14    1    4    4    0    0 -0.68353784050E+01 -0.88469868910E+01 -0.17411622079E+02  0.20691934622E+02  0.00000000000E+00 0. -1.
        -13    1    3    3    0    0 -0.27584998756E+02  0.21056663744E+02  0.13264061268E+02  0.37151723589E+02  0.00000000000E+00 0. -1.
         13    1    3    3    0    0  0.51999725039E+02  0.42815895476E+02  0.12909749118E+03  0.14561364818E+03  0.00000000000E+00 0.  1.
         21    1    1    2  502  501 -0.66089281487E+01 -0.19483563660E+02  0.77019870197E+02  0.79720433951E+02  0.00000000000E+00 0.  1.
<scales pt_clust_5="13000.00000" pt_clust_6="13000.00000" pt_clust_7="13000.00000" pt_clust_8="13000.00000" pt_clust_9="20.57394"></scales>
<clustering>
<clus scale="   20.574">  1  9  2 -1</clus>
<clus scale="   79.820">  5  6 -1 -1</clus>
<clus scale="   91.981">  7  8 -1 -1</clus>
<clus scale="   97.169">  2  5  1 -1</clus>
<clus scale="   97.169">  2  5  1 -1</clus>
</clustering>
</event>
<event>
 9    2  0.5684583E-005  0.9128461E+02  0.7546771E-02  0.1305286E+00
         -1   -1    0    0    0  501 -0.00000000000E+00  0.00000000000E+00  0.70831508555E+02  0.70831508555E+02  0.00000000000E+00 0.  1.
          2   -1    0    0  502    0  0.00000000000E+00 -0.00000000000E+00 -0.63487516660E+03  0.63487516660E+03  0.00000000000E+00 0. -1.
         23    2    1    2    0    0 -0.39423277466E+01  0.20127339225E+02 -0.95355680495E+01  0.93764536444E+02  0.90995656513E+02 0.  0.
         24    2    1    2    0    0  0.74494642156E+01  0.21934657159E+01 -0.57532756674E+03  0.58121806100E+03  0.82172498847E+02 0.  0.
        -11    1    4    4    0    0  0.22479390018E+02  0.16771964128E+02 -0.69340079655E+02  0.74797516020E+02  0.00000000000E+00 0.  1.
         12    1    4    4    0    0 -0.15029925802E+02 -0.14578498412E+02 -0.50598748709E+03  0.50642054498E+03  0.00000000000E+00 0. -1.
        -11    1    3    3    0    0 -0.28673736052E+02 -0.23662703311E+02  0.11986989635E+02  0.39061420707E+02  0.00000000000E+00 0.  1.
         11    1    3    3    0    0  0.24731408306E+02  0.43790042536E+02 -0.21522557684E+02  0.54703115737E+02  0.00000000000E+00 0. -1.
         21    1    1    2  502  501 -0.35071364689E+01 -0.22320804941E+02  0.20819476746E+02  0.30724077715E+02  0.00000000000E+00 0.  1.
<scales pt_clust_5="13000.00000" pt_clust_6="13000.00000" pt_clust_7="13000.00000" pt_clust_8="13000.00000" pt_clust_9="22.59465"></scales>
<clustering>
<clus scale="   22.595">  1  9  2 -1</clus>
<clus scale="   82.172">  5  6 -1 -1</clus>
<clus scale="   82.492">  2  5  1 -1</clus>
<clus scale="   90.996">  7  8 -1 -1</clus>
<clus scale="   82.492">  2  5  1 -1</clus>
</clustering>
</event>
<event>
 9    2  0.5684583E-005  0.1124457E+03  0.7546771E-02  0.1260738E+00
         -1   -1    0    0    0  501 -0.00000000000E+00  0.00000000000E+00  0.11031093181E+03  0.11031093181E+03  0.00000000000E+00 0.  1.
          2   -1    0    0  502    0  0.00000000000E+00 -0.00000000000E+00 -0.37092605985E+03  0.37092605985E+03  0.00000000000E+00 0. -1.
         23    2    1    2    0    0 -0.18862619419E+02  0.18513578460E+01  0.56526032225E+02  0.11097713762E+03  0.93602920989E+02 0.  0.
         24    2    1    2    0    0  0.42994164106E+02 -0.52437027504E+02 -0.28837363280E+03  0.30726134565E+03  0.81560054173E+02 0.  0.
        -11    1    4    4    0    0 -0.75573561108E+01 -0.18603352703E+02 -0.10214154258E+02  0.22528366793E+02  0.00000000000E+00 0.  1.
         12    1    4    4    0    0  0.50551520216E+02 -0.33833674801E+02 -0.27815947854E+03  0.28473297886E+03  0.00000000000E+00 0. -1.
        -13    1    3    3    0    0 -0.51083020026E+02 -0.12603647802E+02  0.11679698990E+02  0.53895660692E+02  0.00000000000E+00 0. -1.
         13    1    3    3    0    0  0.32220400607E+02  0.14455005647E+02  0.44846333235E+02  0.57081476927E+02  0.00000000000E+00 0.  1.
         21    1    1    2  502  501 -0.24131544687E+02  0.50585669658E+02 -0.28767527460E+02  0.62998508394E+02  0.00000000000E+00 0. -1.
<scales pt_clust_5="13000.00000" pt_clust_6="13000.00000" pt_clust_7="13000.00000" pt_clust_8="13000.00000" pt_clust_9="56.04678"></scales>
<clustering>
<clus scale="   56.047">  1  9  2 -1</clus>
<clus scale="   81.560">  5  6 -1 -1</clus>
<clus scale="   93.603">  7  8 -1 -1</clus>
<clus scale="  102.638">  2  5  1 -1</clus>
<clus scale="  102.638">  2  5  1 -1</clus>
</clustering>
</event>
<event>
 9    2  0.5684583E-005  0.1090614E+03  0.7546771E-02  0.1266341E+00
         -1   -1    0    0    0  501 -0.00000000000E+00  0.00000000000E+00  0.38526780047E+02  0.38526780047E+02  0.00000000000E+00 0.  1.
          2   -1    0    0  502    0  0.00000000000E+00 -0.00000000000E+00 -0.12532766846E+04  0.12532766846E+04  0.00000000000E+00 0. -1.
         23    2    1    2    0    0 -0.21982963185E+02  0.45894116277E+02 -0.17625614802E+03  0.20565119504E+03  0.92933652276E+02 0.  0.
         24    2    1    2    0    0 -0.47190276971E+02 -0.43699684488E+02 -0.10027812770E+04  0.10082733002E+04  0.83115423883E+02 0.  0.
        -13    1    4    4    0    0  0.67496085237E+01 -0.20238492443E+02 -0.60382748581E+02  0.64040847260E+02  0.00000000000E+00 0.  1.
         14    1    4    4    0    0 -0.53939885495E+02 -0.23461192045E+02 -0.94239852839E+03  0.94423245289E+03  0.00000000000E+00 0. -1.
        -11    1    3    3    0    0 -0.53205833443E+02  0.50489304942E+02 -0.10930069780E+03  0.13163082149E+03  0.00000000000E+00 0. -1.
         11    1    3    3    0    0  0.31222870258E+02 -0.45951886659E+01 -0.66955450221E+02  0.74020373549E+02  0.00000000000E+00 0.  1.
         21    1    1    2  502  501  0.69173240156E+02 -0.21944317884E+01 -0.35712479523E+02  0.77878969422E+02  0.00000000000E+00 0.  1.
<scales pt_clust_5="13000.00000" pt_clust_6="13000.00000" pt_clust_7="13000.00000" pt_clust_8="13000.00000" pt_clust_9="69.20804"></scales>
<clustering>
<clus scale="   69.208">  1  9  2 -1</clus>
<clus scale="   83.115">  5  6 -1 -1</clus>
<clus scale="   92.934">  7  8 -1 -1</clus>
<clus scale="  100.826">  2  5  1 -1</clus>
<clus scale="  100.826">  2  5  1 -1</clus>
</clustering>
</event>
<event>
 9    2  0.5684583E-005  0.1963279E+03  0.7546771E-02  0.1153446E+00
         -1   -1    0    0    0  501 -0.00000000000E+00  0.00000000000E+00  0.14516217198E+04  0.14516217198E+04  0.00000000000E+00 0.  1.
          2   -1    0    0  502    0  0.00000000000E+00 -0.00000000000E+00 -0.79906099328E+02  0.79906099328E+02  0.00000000000E+00 0. -1.
         23    2    1    2    0    0  0.19312151624E+03  0.91256652688E+02  0.10310703011E+04  0.10564369149E+04  0.85611287751E+02 0.  0.
         24    2    1    2    0    0 -0.12808209764E+03 -0.31280078561E+02  0.35362803528E+03  0.38567129597E+03  0.79410919589E+02 0.  0.
        -11    1    4    4    0    0 -0.64715863226E+02  0.57943806590E+01  0.25236638326E+03  0.26059644894E+03  0.00000000000E+00 0.  1.
         12    1    4    4    0    0 -0.63366234411E+02 -0.37074459220E+02  0.10126165202E+03  0.12507484703E+03  0.00000000000E+00 0. -1.
        -11    1    3    3    0    0  0.77429335737E+02  0.21191094763E+02  0.22047815459E+03  0.23463797899E+03  0.00000000000E+00 0.  1.
         11    1    3    3    0    0  0.11569218050E+03  0.70065557925E+02  0.81059214655E+03  0.82179893593E+03  0.00000000000E+00 0. -1.
         21    1    1    2  502  501 -0.65039418604E+02 -0.59976574127E+02 -0.12982715996E+02  0.89419608202E+02  0.00000000000E+00 0. -1.
<scales pt_clust_5="13000.00000" pt_clust_6="13000.00000" pt_clust_7="13000.00000" pt_clust_8="13000.00000" pt_clust_9="88.47212"></scales>
<clustering>
<clus scale="   79.411">  5  6 -1 -1</clus>
<clus scale="   85.611">  7  8 -1 -1</clus>
<clus scale="   88.472">  2  9  1 -1</clus>
<clus scale="  193.705">  2  5  1 -1</clus>
<clus scale="   88.472">  2  5  1 -1</clus>
</clustering>
</event>
<event>
 9    2  0.5684583E-005  0.9241594E+02  0.7546771E-02  0.1302903E+00
         -1   -1    0    0    0  501 -0.00000000000E+00  0.00000000000E+00  0.19807579721E+03  0.19807579721E+03  0.00000000000E+00 0.  1.
          2   -1    0    0  502    0  0.00000000000E+00 -0.00000000000E+00 -0.12102311478E+03  0.12102311478E+03  0.00000000000E+00 0. -1.
         23    2    1    2    0    0  0.45066724954E+02 -0.57842133621E+01  0.12066768589E+03  0.15722357830E+03  0.89967195868E+02 0.  0.
         24    2    1    2    0    0 -0.18147614352E+02  0.79015741270E-01 -0.80969892034E+02  0.11547947724E+03  0.80312166559E+02 0.  0.
        -11    1    4    4    0    0 -0.66759809962E+01 -0.37604490104E+02 -0.20596778408E+02  0.43392322812E+02  0.00000000000E+00 0.  1.
         12    1    4    4    0    0 -0.11471633355E+02  0.37683505845E+02 -0.60373113626E+02  0.72087154428E+02  0.00000000000E+00 0. -1.
        -13    1    3    3    0    0  0.18201533453E+02  0.19535216074E+02  0.11713389564E+03  0.12013854500E+03  0.00000000000E+00 0.  1.
         13    1    3    3    0    0  0.26865191501E+02 -0.25319429436E+02  0.35337902541E+01  0.37085033301E+02  0.00000000000E+00 0. -1.
         21    1    1    2  502  501 -0.26919110603E+02  0.57051976209E+01  0.37354888569E+02  0.46395856448E+02  0.00000000000E+00 0.  1.
<scales pt_clust_5="13000.00000" pt_clust_6="13000.00000" pt_clust_7="13000.00000" pt_clust_8="13000.00000" pt_clust_9="27.51705"></scales>
<clustering>
<clus scale="   27.517">  1  9  2 -1</clus>
<clus scale="   80.312">  5  6 -1 -1</clus>
<clus scale="   83.046">  2  5  1 -1</clus>
<clus scale="   89.967">  7  8 -1 -1</clus>
<clus scale="   83.046">  2  5  1 -1</clus>
</clustering>
</event>
<event>
 9    2  0.5684583E-005  0.1822590E+03  0.7546771E-02  0.1166833E+00
          2   -1    0    0  502    0  0.00000000000E+00  0.00000000000E+00  0.69507283128E+03  0.69507283128E+03  0.00000000000E+00 0. -1.
         -1   -1    0    0    0  501 -0.00000000000E+00 -0.00000000000E+00 -0.12998245369E+03  0.12998245369E+03  0.00000000000E+00 0.  1.
         23    2    1    2    0    0  0.17380524678E+03  0.33285362916E+02  0.40964008621E+01  0.19927838161E+03  0.91536406341E+02 0.  0.
         24    2    1    2    0    0 -0.14700776469E+03 -0.49690126670E+02  0.56730764641E+03  0.59372875607E+03  0.81212551592E+02 0.  0.
        -11    1    4    4    0    0 -0.64050677947E+02 -0.26531824853E+02  0.12338832563E+03  0.14153128975E+03  0.00000000000E+00 0.  1.
         12    1    4    4    0    0 -0.82957086746E+02 -0.23158301817E+02  0.44391932078E+03  0.45219746632E+03  0.00000000000E+00 0. -1.
        -11    1    3    3    0    0  0.82378049704E+02  0.22783892551E+01 -0.41774540475E+02  0.92392891299E+02  0.00000000000E+00 0.  1.
         11    1    3    3    0    0  0.91427197073E+02  0.31006973661E+02  0.45870941337E+02  0.10688549031E+03  0.00000000000E+00 0. -1.
         21    1    1    2  502  501 -0.26797482084E+02  0.16404763754E+02 -0.63136696856E+01  0.32048147290E+02  0.00000000000E+00 0.  1.
<scales pt_clust_5="13000.00000" pt_clust_6="13000.00000" pt_clust_7="13000.00000" pt_clust_8="13000.00000" pt_clust_9="31.42008"></scales>
<clustering>
<clus scale="   31.420">  2  9  1 -1</clus>
<clus scale="   81.213">  5  6 -1 -1</clus>
<clus scale="   91.536">  7  8 -1 -1</clus>
<clus scale="  177.299">  1  5  2 -1</clus>
<clus scale="  177.299">  1  5  2 -1</clus>
</clustering>
</event>
<event>
 9    2  0.5684583E-005  0.1111226E+03  0.7546771E-02  0.1261595E+00
          2   -1    0    0  502    0  0.00000000000E+00  0.00000000000E+00  0.27695942655E+03  0.27695942655E+03  0.00000000000E+00 0. -1.
         -1   -1    0    0    0  501 -0.00000000000E+00 -0.00000000000E+00 -0.27945230905E+03  0.27945230905E+03  0.00000000000E+00 0.  1.
         23    2    1    2    0    0 -0.61583693867E+02 -0.73796568505E+01  0.12260580129E+02  0.11038151862E+03  0.90480645121E+02 0.  0.
         24    2    1    2    0    0  0.56285718534E+02  0.35304571912E+02  0.20168130048E+03  0.22773712020E+03  0.82306464163E+02 0.  0.
        -13    1    4    4    0    0  0.27483603642E+02  0.43158195158E+02  0.44697866388E+02  0.67940249764E+02  0.00000000000E+00 0.  1.
         14    1    4    4    0    0  0.28802114892E+02 -0.78536232454E+01  0.15698343409E+03  0.15979687043E+03  0.00000000000E+00 0. -1.
        -13    1    3    3    0    0 -0.40847280125E+01  0.21034299569E+02  0.36081483859E+02  0.41964273362E+02  0.00000000000E+00 0. -1.
         13    1    3    3    0    0 -0.57498965854E+02 -0.28413956420E+02 -0.23820903731E+02  0.68417245255E+02  0.00000000000E+00 0.  1.
         21    1    1    2  502  501  0.52979753331E+01 -0.27924915062E+02 -0.21643476310E+03  0.21829309678E+03  0.00000000000E+00 0.  1.
<scales pt_clust_5="13000.00000" pt_clust_6="13000.00000" pt_clust_7="13000.00000" pt_clust_8="13000.00000" pt_clust_9="28.42304"></scales>
<clustering>
<clus scale="   28.423">  2  9  1 -1</clus>
<clus scale="   82.306">  5  6 -1 -1</clus>
<clus scale="   90.481">  7  8 -1 -1</clus>
<clus scale="  104.575">  1  5  2 -1</clus>
<clus scale="  104.575">  1  5  2 -1</clus>
</clustering>
</event>
<event>
 9    2  0.5684583E-005  0.9569572E+02  0.7546771E-02  0.1296091E+00
         -1   -1    0    0    0  501 -0.00000000000E+00  0.00000000000E+00  0.32400147699E+03  0.32400147699E+03  0.00000000000E+00 0.  1.
          2   -1    0    0  502    0  0.00000000000E+00 -0.00000000000E+00 -0.64303173569E+02  0.64303173569E+02  0.00000000000E+00 0. -1.
         23    2    1    2    0    0  0.29525337589E+02 -0.22899628116E+02  0.20540168555E+03  0.22951456815E+03  0.95346452674E+02 0.  0.
         24    2    1    2    0    0  0.18527059640E+01  0.50469898737E+01 -0.98696551493E+01  0.85165297843E+02  0.84420455091E+02 0.  0.
        -11    1    4    4    0    0  0.33370015528E+02 -0.24114395996E+02 -0.93691995455E+01  0.42223736579E+02  0.00000000000E+00 0.  1.
         12    1    4    4    0    0 -0.31517309564E+02  0.29161385869E+02 -0.50045560377E+00  0.42941561264E+02  0.00000000000E+00 0. -1.
        -13    1    3    3    0    0  0.63283992347E+02 -0.11354814382E+02  0.15459658179E+03  0.16743326611E+03  0.00000000000E+00 0.  1.
         13    1    3    3    0    0 -0.33758654759E+02 -0.11544813734E+02  0.50805103754E+02  0.62081302038E+02  0.00000000000E+00 0. -1.
         21    1    1    2  502  501 -0.31378043553E+02  0.17852638242E+02  0.64166273023E+02  0.73624784571E+02  0.00000000000E+00 0.  1.
<scales pt_clust_5="13000.00000" pt_clust_6="13000.00000" pt_clust_7="13000.00000" pt_clust_8="13000.00000" pt_clust_9="36.10122"></scales>
<clustering>
<clus scale="   36.101">  1  9  2 -1</clus>
<clus scale="   84.420">  5  6 -1 -1</clus>
<clus scale="   84.815">  2  5  1 -1</clus>
<clus scale="   95.346">  7  8 -1 -1</clus>
<clus scale="   84.815">  2  5  1 -1</clus>
</clustering>
</event>
<event>
 9    2  0.5684583E-005  0.9708439E+02  0.7546771E-02  0.1292229E+00
          2   -1    0    0  502    0  0.00000000000E+00  0.00000000000E+00  0.43441364451E+03  0.43441364451E+03  0.00000000000E+00 0. -1.
         -1   -1    0    0    0  501 -0.00000000000E+00 -0.00000000000E+00 -0.35228212565E+02  0.35228212565E+02  0.00000000000E+00 0.  1.
         23    2    1    2    0    0 -0.30923869687E+02 -0.13860512681E+02  0.72207736425E+02  0.12088883393E+03  0.90839162491E+02 0.  0.
         24    2    1    2    0    0  0.17943072523E+02  0.38995489147E+02  0.27354729645E+03  0.28829580123E+03  0.80272931829E+02 0.  0.
        -11    1    4    4    0    0  0.22036303494E+02  0.44672386536E+02  0.77524345287E+02  0.92147951158E+02  0.00000000000E+00 0.  1.
         12    1    4    4    0    0 -0.40932309704E+01 -0.56768973891E+01  0.19602295117E+03  0.19614785007E+03  0.00000000000E+00 0. -1.
        -13    1    3    3    0    0  0.14930147757E+01  0.26399550550E+02  0.63083456610E+02  0.68400934645E+02  0.00000000000E+00 0.  1.
         13    1    3    3    0    0 -0.32416884463E+02 -0.40260063232E+02  0.91242798149E+01  0.52487899290E+02  0.00000000000E+00 0. -1.
         21    1    1    2  502  501  0.12980797164E+02 -0.25134976465E+02  0.53430399069E+02  0.60457221914E+02  0.00000000000E+00 0. -1.
<scales pt_clust_5="13000.00000" pt_clust_6="13000.00000" pt_clust_7="13000.00000" pt_clust_8="13000.00000" pt_clust_9="28.28901"></scales>
<clustering>
<clus scale="   28.289">  1  9  2 -1</clus>
<clus scale="   80.273">  5  6 -1 -1</clus>
<clus scale="   87.278">  1  5  2 -1</clus>
<clus scale="   90.839">  7  8 -1 -1</clus>
<clus scale="   28.289">  1  5  2 -1</clus>
</clustering>
</event>
<event>
 9    2  0.5684583E-005  0.9221185E+02  0.7546771E-02  0.1304046E+00
         -3   -1    0    0    0  501 -0.00000000000E+00  0.00000000000E+00  0.20194490501E+03  0.20194490501E+03  0.00000000000E+00 0.  1.
          4   -1    0    0  502    0  0.00000000000E+00 -0.00000000000E+00 -0.38062141515E+03  0.38062141515E+03  0.00000000000E+00 0. -1.
         23    2    1    2    0    0 -0.17740429324E+02 -0.54984060820E+01  0.51197038123E+02  0.10601878412E+03  0.90960928821E+02 0.  0.
         24    2    1    2    0    0  0.50666108491E+01 -0.15169391723E+02 -0.34719183635E+03  0.35675035635E+03  0.80454114449E+02 0.  0.
        -11    1    4    4    0    0 -0.24383909206E+02 -0.33873509956E+01 -0.34110766408E+02  0.42066537293E+02  0.00000000000E+00 0.  1.
         12    1    4    4    0    0  0.29450520055E+02 -0.11782040727E+02 -0.31308106995E+03  0.31468381905E+03  0.00000000000E+00 0. -1.
        -13    1    3    3    0    0  0.27414777280E+01  0.41317929574E+02  0.27365294404E+02  0.49634124776E+02  0.00000000000E+00 0.  1.
         13    1    3    3    0    0 -0.20481907052E+02 -0.46816335656E+02  0.23831743719E+02  0.56384659345E+02  0.00000000000E+00 0. -1.
         21    1    1    2  502  501  0.12673818475E+02  0.20667797805E+02  0.11731828809E+03  0.11979717969E+03  0.00000000000E+00 0.  1.
<scales pt_clust_5="13000.00000" pt_clust_6="13000.00000" pt_clust_7="13000.00000" pt_clust_8="13000.00000" pt_clust_9="24.24425"></scales>
<clustering>
<clus scale="   24.244">  1  9  2 -1</clus>
<clus scale="   80.454">  5  6 -1 -1</clus>
<clus scale="   81.866">  2  5  1 -1</clus>
<clus scale="   90.961">  7  8 -1 -1</clus>
<clus scale="   81.866">  2  5  1 -1</clus>
</clustering>
</event>
<event>
 9    2  0.5684583E-005  0.9621275E+02  0.7546771E-02  0.1297933E+00
         -1   -1    0    0    0  501 -0.00000000000E+00  0.00000000000E+00  0.24677831628E+03  0.24677831628E+03  0.00000000000E+00 0.  1.
          2   -1    0    0  502    0  0.00000000000E+00 -0.00000000000E+00 -0.49797940246E+02  0.49797940246E+02  0.00000000000E+00 0. -1.
         23    2    1    2    0    0  0.62531502159E+01  0.19571623538E+02  0.13900220084E+03  0.17026403622E+03  0.96156538292E+02 0.  0.
         24    2    1    2    0    0 -0.98133997644E+00  0.36308368273E+01  0.22785892675E+02  0.83831131584E+02  0.80587317323E+02 0.  0.
        -13    1    4    4    0    0  0.38480561787E+02  0.10041057217E+02  0.17698988248E+02  0.43529652543E+02  0.00000000000E+00 0.  1.
         14    1    4    4    0    0 -0.39461901764E+02 -0.64102203899E+01  0.50869044273E+01  0.40301479041E+02  0.00000000000E+00 0. -1.
        -13    1    3    3    0    0 -0.97835924471E+00 -0.34872050622E+02  0.22630557212E+02  0.41583160307E+02  0.00000000000E+00 0. -1.
         13    1    3    3    0    0  0.72315094606E+01  0.54443674160E+02  0.11637164363E+03  0.12868087592E+03  0.00000000000E+00 0.  1.
         21    1    1    2  502  501 -0.52718102395E+01 -0.23202460365E+02  0.35192282521E+02  0.42481088725E+02  0.00000000000E+00 0. -1.
<scales pt_clust_5="13000.00000" pt_clust_6="13000.00000" pt_clust_7="13000.00000" pt_clust_8="13000.00000" pt_clust_9="23.79383"></scales>
<clustering>
<clus scale="   23.794">  1  9  2 -1</clus>
<clus scale="   80.587">  5  6 -1 -1</clus>
<clus scale="   80.654">  2  5  1 -1</clus>
<clus scale="   96.157">  7  8 -1 -1</clus>
<clus scale="   80.654">  2  5  1 -1</clus>
</clustering>
</event>
<event>
 9    2  0.5684583E-005  0.1049359E+03  0.7546771E-02  0.1273836E+00
          2   -1    0    0  502    0  0.00000000000E+00  0.00000000000E+00  0.13275718496E+03  0.13275718496E+03  0.00000000000E+00 0. -1.
         -1   -1    0    0    0  501 -0.00000000000E+00 -0.00000000000E+00 -0.17772585906E+03  0.17772585906E+03  0.00000000000E+00 0.  1.
         23    2    1    2    0    0  0.29782000597E+02 -0.36553633496E+02 -0.90401192914E+02  0.13616250486E+03  0.90248082349E+02 0.  0.
         24    2    1    2    0    0 -0.36140548911E+00  0.56850914969E+02  0.77475779104E+02  0.12631718947E+03  0.81984015889E+02 0.  0.
        -11    1    4    4    0    0  0.31157077396E+02  0.19196092637E+02  0.24857758894E+01  0.36680138033E+02  0.00000000000E+00 0.  1.
         12    1    4    4    0    0 -0.31518482885E+02  0.37654822332E+02  0.74990003215E+02  0.89637051438E+02  0.00000000000E+00 0. -1.
        -13    1    3    3    0    0  0.56441629651E+02 -0.24332438187E+02 -0.28674238099E+02  0.67822835655E+02  0.00000000000E+00 0. -1.
         13    1    3    3    0    0 -0.26659629054E+02 -0.12221195309E+02 -0.61726954815E+02  0.68339669203E+02  0.00000000000E+00 0.  1.
         21    1    1    2  502  501 -0.29420595108E+02 -0.20297281473E+02 -0.32043260294E+02  0.48003349695E+02  0.00000000000E+00 0.  1.
<scales pt_clust_5="13000.00000" pt_clust_6="13000.00000" pt_clust_7="13000.00000" pt_clust_8="13000.00000" pt_clust_9="35.74285"></scales>
<clustering>
<clus scale="   35.743">  2  9  1 -1</clus>
<clus scale="   81.984">  5  6 -1 -1</clus>
<clus scale="   90.248">  7  8 -1 -1</clus>
<clus scale="   97.919">  1  5  2 -1</clus>
<clus scale="   97.919">  1  5  2 -1</clus>
</clustering>
</event>
<event>
 9    2  0.5684583E-005  0.8987708E+02  0.7546771E-02  0.1308863E+00
         -1   -1    0    0    0  501 -0.00000000000E+00  0.00000000000E+00  0.31614338550E+03  0.31614338550E+03  0.00000000000E+00 0.  1.
          2   -1    0    0  502    0  0.00000000000E+00 -0.00000000000E+00 -0.52748789162E+02  0.52748789162E+02  0.00000000000E+00 0. -1.
         23    2    1    2    0    0  0.97891540290E+01 -0.41568818456E+01  0.21879826939E+03  0.23638574726E+03  0.88839358484E+02 0.  0.
         24    2    1    2    0    0 -0.66124612689E+01  0.35182396430E+02  0.13588259953E+02  0.88527180583E+02  0.79817887912E+02 0.  0.
        -11    1    4    4    0    0 -0.97687548022E+01 -0.22404177813E+02  0.18488492706E+02  0.30646371994E+02  0.00000000000E+00 0.  1.
         12    1    4    4    0    0  0.31562935333E+01  0.57586574243E+02 -0.49002327525E+01  0.57880808589E+02  0.00000000000E+00 0. -1.
        -13    1    3    3    0    0 -0.29384586346E+02 -0.29678120967E+02  0.86161067399E+02  0.95749539499E+02  0.00000000000E+00 0.  1.
         13    1    3    3    0    0  0.39173740375E+02  0.25521239121E+02  0.13263720199E+03  0.14063620776E+03  0.00000000000E+00 0. -1.
         21    1    1    2  502  501 -0.31766927601E+01 -0.31025514585E+02  0.31008066995E+02  0.43979246820E+02  0.00000000000E+00 0.  1.
<scales pt_clust_5="13000.00000" pt_clust_6="13000.00000" pt_clust_7="13000.00000" pt_clust_8="13000.00000" pt_clust_9="31.18772"></scales>
<clustering>
<clus scale="   31.188">  2  9  1 -1</clus>
<clus scale="   79.818">  5  6 -1 -1</clus>
<clus scale="   80.971">  2  5  1 -1</clus>
<clus scale="   88.839">  7  8 -1 -1</clus>
<clus scale="   31.188">  2  5  1 -1</clus>
</clustering>
</event>
<event>
 9    2  0.5684583E-005  0.1318593E+03  0.7546771E-02  0.1229083E+00
          2   -1    0    0  502    0  0.00000000000E+00  0.00000000000E+00  0.10427600316E+04  0.10427600316E+04  0.00000000000E+00 0. -1.
         -1   -1    0    0    0  501 -0.00000000000E+00 -0.00000000000E+00 -0.22511817979E+02  0.22511817979E+02  0.00000000000E+00 0.  1.
         24    2    1    2    0    0 -0.79583838055E+02  0.29385878651E+02  0.37986653949E+03  0.39570659730E+03  0.71330261334E+02 0.  0.
         23    2    1    2    0    0  0.10043918036E+03 -0.43049532366E+02  0.62395155077E+03  0.63970575312E+03  0.89255933599E+02 0.  0.
        -11    1    3    3    0    0 -0.45401589828E+02  0.72858656791E+01  0.73854494540E+02  0.86999279085E+02  0.00000000000E+00 0.  1.
         12    1    3    3    0    0 -0.34182248227E+02  0.22100012972E+02  0.30601204495E+03  0.30870731822E+03  0.00000000000E+00 0. -1.
        -13    1    4    4    0    0  0.75640707318E+02 -0.58902993839E+02  0.57214969840E+03  0.58012615582E+03  0.00000000000E+00 0.  1.
         13    1    4    4    0    0  0.24798473043E+02  0.15853461473E+02  0.51801852369E+02  0.59579597303E+02  0.00000000000E+00 0. -1.
         21    1    1    2  502  501 -0.20855342306E+02  0.13663653715E+02  0.16430123347E+02  0.29859499138E+02  0.00000000000E+00 0.  1.
<scales pt_clust_5="13000.00000" pt_clust_6="13000.00000" pt_clust_7="13000.00000" pt_clust_8="13000.00000" pt_clust_9="24.93272"></scales>
<clustering>
<clus scale="   24.933">  2  9  1 -1</clus>
<clus scale="   71.330">  5  6 -1 -1</clus>
<clus scale="   89.256">  7  8 -1 -1</clus>
<clus scale="  120.450">  2  5  1 -1</clus>
<clus scale="  131.859">  1  5  2 -1</clus>
</clustering>
</event>
<event>
 9    2  0.5684583E-005  0.9759813E+02  0.7546771E-02  0.1290927E+00
         -1   -1    0    0    0  501 -0.00000000000E+00  0.00000000000E+00  0.13002133092E+03  0.13002133092E+03  0.00000000000E+00 0.  1.
          2   -1    0    0  502    0  0.00000000000E+00 -0.00000000000E+00 -0.23620918463E+03  0.23620918463E+03  0.00000000000E+00 0. -1.
         24    2    1    2    0    0 -0.14215934996E+02 -0.56161910119E+01  0.62310064415E+02  0.10243150434E+03  0.79850075422E+02 0.  0.
         23    2    1    2    0    0  0.37575375499E+02 -0.15708920589E+02 -0.19745985077E+03  0.22091291336E+03  0.90296420709E+02 0.  0.
        -11    1    3    3    0    0  0.28243351325E+02 -0.71686886521E+01  0.27477539373E+01  0.29268193363E+02  0.00000000000E+00 0.  1.
         12    1    3    3    0    0 -0.42459286321E+02  0.15524976402E+01  0.59562310477E+02  0.73163310978E+02  0.00000000000E+00 0. -1.
        -11    1    4    4    0    0  0.65747918728E+02 -0.23304840865E+02 -0.13413422297E+03  0.15118827401E+03  0.00000000000E+00 0.  1.
         11    1    4    4    0    0 -0.28172543229E+02  0.75959202759E+01 -0.63325627801E+02  0.69724639356E+02  0.00000000000E+00 0. -1.
         21    1    1    2  502  501 -0.23359440503E+02  0.21325111601E+02  0.28961932649E+02  0.42886097843E+02  0.00000000000E+00 0. -1.
<scales pt_clust_5="13000.00000" pt_clust_6="13000.00000" pt_clust_7="13000.00000" pt_clust_8="13000.00000" pt_clust_9="31.62948"></scales>
<clustering>
<clus scale="   31.629">  1  9  2 -1</clus>
<clus scale="   79.850">  5  6 -1 -1</clus>
<clus scale="   88.023">  1  5  2 -1</clus>
<clus scale="   90.296">  7  8 -1 -1</clus>
<clus scale="   97.598">  2  5  1 -1</clus>
</clustering>
</event>
<event>
 9    2  0.5684583E-005  0.1748734E+03  0.7546771E-02  0.1174000E+00
         -1   -1    0    0    0  501 -0.00000000000E+00  0.00000000000E+00  0.73180337235E+02  0.73180337235E+02  0.00000000000E+00 0.  1.
          2   -1    0    0  502    0  0.00000000000E+00 -0.00000000000E+00 -0.99577192254E+03  0.99577192254E+03  0.00000000000E+00 0. -1.
         23    2    1    2    0    0 -0.11983097415E+03  0.10753675230E+03 -0.87327037852E+02  0.20444281376E+03  0.90814300061E+02 0.  0.
         24    2    1    2    0    0  0.12130393379E+03 -0.84602929874E+02 -0.81923075699E+03  0.83648780692E+03  0.81856690803E+02 0.  0.
        -13    1    4    4    0    0  0.99698525748E+02 -0.91887995787E+02 -0.77453125336E+03  0.78630901193E+03  0.00000000000E+00 0.  1.
         14    1    4    4    0    0  0.21605408044E+02  0.72850659128E+01 -0.44699503630E+02  0.50178794992E+02  0.00000000000E+00 0. -1.
        -13    1    3    3    0    0 -0.29290555246E+02 -0.93679242015E+01  0.34351320002E+01  0.30943412260E+02  0.00000000000E+00 0.  1.
         13    1    3    3    0    0 -0.90540418906E+02  0.11690467650E+03 -0.90762169852E+02  0.17349940150E+03  0.00000000000E+00 0. -1.
         21    1    1    2  502  501 -0.14729596405E+01 -0.22933822424E+02 -0.16033790458E+02  0.28021639094E+02  0.00000000000E+00 0.  1.
<scales pt_clust_5="13000.00000" pt_clust_6="13000.00000" pt_clust_7="13000.00000" pt_clust_8="13000.00000" pt_clust_9="22.98108"></scales>
<clustering>
<clus scale="   22.981">  1  9  2 -1</clus>
<clus scale="   81.857">  5  6 -1 -1</clus>
<clus scale="   90.814">  7  8 -1 -1</clus>
<clus scale="  170.394">  2  5  1 -1</clus>
<clus scale="  170.394">  2  5  1 -1</clus>
</clustering>
</event>
<event>
 9    2  0.5684583E-005  0.2171018E+03  0.7546771E-02  0.1172578E+00
         -1   -1    0    0    0  501 -0.00000000000E+00  0.00000000000E+00  0.11102781963E+03  0.11102781963E+03  0.00000000000E+00 0.  1.
          2   -1    0    0  502    0  0.00000000000E+00 -0.00000000000E+00 -0.10043438282E+04  0.10043438282E+04  0.00000000000E+00 0. -1.
         24    2    1    2    0    0 -0.16446820711E+01 -0.39442186393E+02  0.23125516160E+02  0.94840934046E+02  0.83076002711E+02 0.  0.
         23    2    1    2    0    0  0.17728479776E+03  0.11634418407E+03 -0.32379049217E+03  0.39763536633E+03  0.91146766562E+02 0.  0.
        -11    1    3    3    0    0 -0.31739758033E+02 -0.86933883473E+01  0.37109926726E+02  0.49599736921E+02  0.00000000000E+00 0.  1.
         12    1    3    3    0    0  0.30095075962E+02 -0.30748798045E+02 -0.13984410566E+02  0.45241197125E+02  0.00000000000E+00 0. -1.
        -11    1    4    4    0    0  0.11182487870E+03  0.11776877164E+03 -0.20033980637E+03  0.25789595787E+03  0.00000000000E+00 0.  1.
         11    1    4    4    0    0  0.65459919055E+02 -0.14245875657E+01 -0.12345068580E+03  0.13973940846E+03  0.00000000000E+00 0. -1.
         21    1    1    2  502  501 -0.17564011569E+03 -0.76901997682E+02 -0.59265103259E+03  0.62289534749E+03  0.00000000000E+00 0. -1.
<scales pt_clust_5="13000.00000" pt_clust_6="13000.00000" pt_clust_7="13000.00000" pt_clust_8="13000.00000" pt_clust_9="197.04177"></scales>
<clustering>
<clus scale="   83.076">  5  6 -1 -1</clus>
<clus scale="   91.147">  7  8 -1 -1</clus>
<clus scale="   91.978">  1  5  2 -1</clus>
<clus scale="  197.042">  2  9  1 -1</clus>
<clus scale="  197.042">  2  5  1 -1</clus>
</clustering>
</event>
<event>
 9    2  0.5684583E-005  0.9677974E+02  0.7546771E-02  0.1294428E+00
         -1   -1    0    0    0  501 -0.00000000000E+00  0.00000000000E+00  0.44919877171E+02  0.44919877171E+02  0.00000000000E+00 0.  1.
          2   -1    0    0  502    0  0.00000000000E+00 -0.00000000000E+00 -0.37741538438E+03  0.37741538438E+03  0.00000000000E+00 0. -1.
         23    2    1    2    0    0 -0.36514346234E+02  0.72017569113E+01 -0.51679451986E+02  0.11377723732E+03  0.94283249793E+02 0.  0.
         24    2    1    2    0    0  0.16361619383E+02 -0.97703938510E+01 -0.27487392038E+03  0.28739108629E+03  0.81699456464E+02 0.  0.
        -13    1    4    4    0    0  0.24756609515E+02  0.27997220165E+02 -0.19609287142E+03  0.19962251444E+03  0.00000000000E+00 0.  1.
         14    1    4    4    0    0 -0.83949901319E+01 -0.37767614016E+02 -0.78781048965E+02  0.87768571845E+02  0.00000000000E+00 0. -1.
        -13    1    3    3    0    0 -0.15354336867E+02  0.46834553335E+02 -0.59073810921E+01  0.49639985879E+02  0.00000000000E+00 0.  1.
         13    1    3    3    0    0 -0.21160009368E+02 -0.39632796424E+02 -0.45772070894E+02  0.64137251443E+02  0.00000000000E+00 0. -1.
         21    1    1    2  502  501  0.20152726852E+02  0.25686369396E+01 -0.59421348397E+01  0.21166937940E+02  0.00000000000E+00 0. -1.
<scales pt_clust_5="13000.00000" pt_clust_6="13000.00000" pt_clust_7="13000.00000" pt_clust_8="13000.00000" pt_clust_9="20.31576"></scales>
<clustering>
<clus scale="   20.316">  1  9  2 -1</clus>
<clus scale="   81.699">  5  6 -1 -1</clus>
<clus scale="   84.568">  2  5  1 -1</clus>
<clus scale="   94.283">  7  8 -1 -1</clus>
<clus scale="   84.568">  2  5  1 -1</clus>
</clustering>
</event>
<event>
 9    2  0.5684583E-005  0.1039999E+03  0.7546771E-02  0.1276851E+00
          2   -1    0    0  502    0  0.00000000000E+00  0.00000000000E+00  0.48522101700E+03  0.48522101700E+03  0.00000000000E+00 0. -1.
         -1   -1    0    0    0  501 -0.00000000000E+00 -0.00000000000E+00 -0.45585169638E+03  0.45585169638E+03  0.00000000000E+00 0.  1.
         23    2    1    2    0    0 -0.14507752789E+02  0.48889272548E+02 -0.40179529102E+03  0.41486680366E+03  0.89857515185E+02 0.  0.
         24    2    1    2    0    0  0.40102030269E+02 -0.33841376110E+02  0.46876617620E+03  0.47829574498E+03  0.79193940097E+02 0.  0.
        -13    1    4    4    0    0  0.66812382809E+01 -0.48709660367E+02  0.16035598853E+03  0.16772391903E+03  0.00000000000E+00 0.  1.
         14    1    4    4    0    0  0.33420791988E+02  0.14868284257E+02  0.30841018768E+03  0.31057182596E+03  0.00000000000E+00 0. -1.
        -11    1    3    3    0    0 -0.43014820090E+02  0.19327529657E+01 -0.11367556493E+03  0.12155716492E+03  0.00000000000E+00 0.  1.
         11    1    3    3    0    0  0.28507067302E+02  0.46956519583E+02 -0.28811972609E+03  0.29330963874E+03  0.00000000000E+00 0. -1.
         21    1    1    2  502  501 -0.25594277480E+02 -0.15047896438E+02 -0.37601564564E+02  0.47910164731E+02  0.00000000000E+00 0.  1.
<scales pt_clust_5="13000.00000" pt_clust_6="13000.00000" pt_clust_7="13000.00000" pt_clust_8="13000.00000" pt_clust_9="29.69017"></scales>
<clustering>
<clus scale="   29.690">  2  9  1 -1</clus>
<clus scale="   79.194">  5  6 -1 -1</clus>
<clus scale="   89.858">  7  8 -1 -1</clus>
<clus scale="   94.938">  1  5  2 -1</clus>
<clus scale="   94.938">  1  5  2 -1</clus>
</clustering>
</event>
<event>
 9    2  0.5684583E-005  0.9554861E+02  0.7546771E-02  0.1292955E+00
          4   -1    0    0  502    0  0.00000000000E+00  0.00000000000E+00  0.45972971517E+02  0.45972971517E+02  0.00000000000E+00 0. -1.
         -3   -1    0    0    0  501 -0.00000000000E+00 -0.00000000000E+00 -0.34350958567E+03  0.34350958567E+03  0.00000000000E+00 0.  1.
         23    2    1    2    0    0  0.14152634762E+01 -0.16935966773E+02 -0.14718176697E+03  0.17349893753E+03  0.90280556349E+02 0.  0.
         24    2    1    2    0    0 -0.44235548279E+02  0.59596370509E+01 -0.53929029850E+02  0.10990819907E+03  0.84729988531E+02 0.  0.
        -13    1    4    4    0    0 -0.93986161151E+01 -0.29725323915E+02 -0.51223451445E+02  0.59964746682E+02  0.00000000000E+00 0.  1.
         14    1    4    4    0    0 -0.34836932164E+02  0.35684960966E+02 -0.27055784055E+01  0.49943452386E+02  0.00000000000E+00 0. -1.
        -11    1    3    3    0    0  0.28861740750E+02  0.16447058767E+02 -0.11476235791E+03  0.11947344732E+03  0.00000000000E+00 0.  1.
         11    1    3    3    0    0 -0.27446477274E+02 -0.33383025540E+02 -0.32419409063E+02  0.54025490215E+02  0.00000000000E+00 0. -1.
         21    1    1    2  502  501  0.42820284803E+02  0.10976329722E+02 -0.96425817333E+02  0.10607542059E+03  0.00000000000E+00 0.  1.
<scales pt_clust_5="13000.00000" pt_clust_6="13000.00000" pt_clust_7="13000.00000" pt_clust_8="13000.00000" pt_clust_9="44.20471"></scales>
<clustering>
<clus scale="   44.205">  2  9  1 -1</clus>
<clus scale="   84.730">  5  6 -1 -1</clus>
<clus scale="   90.281">  7  8 -1 -1</clus>
<clus scale="   90.322">  1  5  2 -1</clus>
<clus scale="   90.322">  1  5  2 -1</clus>
</clustering>
</event>
<event>
 9    2  0.5684583E-005  0.9125270E+02  0.7546771E-02  0.1304174E+00
         -1   -1    0    0    0  501 -0.00000000000E+00  0.00000000000E+00  0.45102937711E+02  0.45102937711E+02  0.00000000000E+00 0.  1.
          2   -1    0    0  502    0  0.00000000000E+00 -0.00000000000E+00 -0.83841196455E+03  0.83841196455E+03  0.00000000000E+00 0. -1.
         23    2    1    2    0    0 -0.29223036291E+02 -0.11686647122E+02 -0.28273901202E+02  0.98308329567E+02  0.88738664639E+02 0.  0.
         24    2    1    2    0    0  0.24753184625E+01  0.21480827287E+02 -0.74643367197E+03  0.75118627798E+03  0.81547804595E+02 0.  0.
        -11    1    4    4    0    0 -0.33192488944E+02  0.92619678200E+01 -0.16652228846E+03  0.17005057461E+03  0.00000000000E+00 0.  1.
         12    1    4    4    0    0  0.35667807407E+02  0.12218859467E+02 -0.57991138351E+03  0.58113570337E+03  0.00000000000E+00 0. -1.
        -13    1    3    3    0    0  0.79856496614E+01 -0.40031581671E+02 -0.31294282068E+02  0.51435690155E+02  0.00000000000E+00 0.  1.
         13    1    3    3    0    0 -0.37208685952E+02  0.28344934548E+02  0.30203808664E+01  0.46872639411E+02  0.00000000000E+00 0. -1.
         21    1    1    2  502  501  0.26747717828E+02 -0.97941801646E+01 -0.18601453675E+02  0.34020294722E+02  0.00000000000E+00 0.  1.
<scales pt_clust_5="13000.00000" pt_clust_6="13000.00000" pt_clust_7="13000.00000" pt_clust_8="13000.00000" pt_clust_9="28.48449"></scales>
<clustering>
<clus scale="   28.484">  1  9  2 -1</clus>
<clus scale="   81.548">  5  6 -1 -1</clus>
<clus scale="   84.277">  2  5  1 -1</clus>
<clus scale="   88.739">  7  8 -1 -1</clus>
<clus scale="   84.277">  2  5  1 -1</clus>
</clustering>
</event>
<event>
 9    2  0.7654280E-005  0.9671160E+02  0.7546771E-02  0.1294206E+00
          2   -1    0    0  502    0  0.00000000000E+00  0.00000000000E+00  0.34263734763E+03  0.34263734763E+03  0.00000000000E+00 0. -1.
         -1   -1    0    0    0  501 -0.00000000000E+00 -0.00000000000E+00 -0.22583448759E+03  0.22583448759E+03  0.00000000000E+00 0.  1.
         24    2    1    2    0    0  0.11759902675E+02 -0.71112878447E+02 -0.14290560748E+03  0.17931892412E+03  0.80857449310E+02 0.  0.
         23    2    1    2    0    0  0.25124882439E+02  0.96164417849E+01  0.29409792239E+03  0.30962345931E+03  0.93001951221E+02 0.  0.
        -13    1    3    3    0    0  0.12283687255E+02 -0.87872673576E+02 -0.10247649133E+03  0.13555045928E+03  0.00000000000E+00 0.  1.
         14    1    3    3    0    0 -0.52378458040E+00  0.16759795129E+02 -0.40429116143E+02  0.43768464848E+02  0.00000000000E+00 0. -1.
        -13    1    4    4    0    0  0.15468326910E+02 -0.39426130785E+02  0.18238902851E+03  0.18724167978E+03  0.00000000000E+00 0. -1.
         13    1    4    4    0    0  0.96565555287E+01  0.49042572570E+02  0.11170889388E+03  0.12238177953E+03  0.00000000000E+00 0.  1.
         21    1    1    2  502  501 -0.36884785114E+02  0.61496436662E+02 -0.34389454870E+02  0.79529451785E+02  0.00000000000E+00 0.  1.
<scales pt_clust_5="13000.00000" pt_clust_6="13000.00000" pt_clust_7="13000.00000" pt_clust_8="13000.00000" pt_clust_9="71.70983"></scales>
<clustering>
<clus scale="   71.710">  2  9  1 -1</clus>
<clus scale="   80.857">  5  6 -1 -1</clus>
<clus scale="   85.098">  2  5  1 -1</clus>
<clus scale="   93.002">  7  8 -1 -1</clus>
<clus scale="   96.712">  1  5  2 -1</clus>
</clustering>
</event>
<event>
 9    2  0.5684583E-005  0.1258914E+03  0.7546771E-02  0.1236732E+00
         -1   -1    0    0    0  501 -0.00000000000E+00  0.00000000000E+00  0.38367101236E+03  0.38367101236E+03  0.00000000000E+00 0.  1.
          2   -1    0    0  502    0  0.00000000000E+00 -0.00000000000E+00 -0.46505068854E+02  0.46505068854E+02  0.00000000000E+00 0. -1.
         23    2    1    2    0    0  0.87259832012E+02  0.27495110307E+02  0.18122908658E+03  0.22243923014E+03  0.90911879919E+02 0.  0.
         24    2    1    2    0    0 -0.72479186142E+02 -0.41816819181E+02  0.14018640245E+03  0.18182053085E+03  0.80028739947E+02 0.  0.
        -13    1    4    4    0    0 -0.46416397208E+02 -0.63687461831E+02  0.11533319305E+03  0.13968650666E+03  0.00000000000E+00 0.  1.
         14    1    4    4    0    0 -0.26062788935E+02  0.21870642650E+02  0.24853209395E+02  0.42134024187E+02  0.00000000000E+00 0. -1.
        -13    1    3    3    0    0  0.35568445945E+02  0.23449571717E+02  0.16139908938E+03  0.16692711827E+03  0.00000000000E+00 0.  1.
         13    1    3    3    0    0  0.51691386067E+02  0.40455385898E+01  0.19829997203E+02  0.55512111877E+02  0.00000000000E+00 0. -1.
         21    1    1    2  502  501 -0.14780645870E+02  0.14321708874E+02  0.15750454475E+02  0.25916320217E+02  0.00000000000E+00 0.  1.
<scales pt_clust_5="13000.00000" pt_clust_6="13000.00000" pt_clust_7="13000.00000" pt_clust_8="13000.00000" pt_clust_9="20.58103"></scales>
<clustering>
<clus scale="   20.581">  2  9  1 -1</clus>
<clus scale="   80.029">  5  6 -1 -1</clus>
<clus scale="   90.912">  7  8 -1 -1</clus>
<clus scale="  118.272">  2  5  1 -1</clus>
<clus scale="   20.581">  2  5  1 -1</clus>
</clustering>
</event>
<event>
 9    2  0.5684583E-005  0.1121565E+03  0.7546771E-02  0.1260836E+00
         -1   -1    0    0    0  501 -0.00000000000E+00  0.00000000000E+00  0.54448752334E+02  0.54448752334E+02  0.00000000000E+00 0.  1.
          2   -1    0    0  502    0  0.00000000000E+00 -0.00000000000E+00 -0.48612419812E+03  0.48612419812E+03  0.00000000000E+00 0. -1.
         24    2    1    2    0    0 -0.74184651404E+02  0.38932162304E+02 -0.44561813303E+02  0.12453718666E+03  0.80651595717E+02 0.  0.
         23    2    1    2    0    0  0.52845267869E+02 -0.29672039555E+02 -0.37287717560E+03  0.38876314258E+03  0.91795101611E+02 0.  0.
        -13    1    3    3    0    0 -0.25018809883E+02  0.41207963406E+02  0.11879188360E+02  0.49650299215E+02  0.00000000000E+00 0.  1.
         14    1    3    3    0    0 -0.49165841521E+02 -0.22758011021E+01 -0.56441001663E+02  0.74886887449E+02  0.00000000000E+00 0. -1.
        -11    1    4    4    0    0 -0.12335421388E+02 -0.29436461100E+02 -0.49609109930E+02  0.58989250300E+02  0.00000000000E+00 0.  1.
         11    1    4    4    0    0  0.65180689257E+02 -0.23557845507E+00 -0.32326806567E+03  0.32977389228E+03  0.00000000000E+00 0. -1.
         21    1    1    2  502  501  0.21339383535E+02 -0.92601227486E+01 -0.14236456885E+02  0.27272621209E+02  0.00000000000E+00 0.  1.
<scales pt_clust_5="13000.00000" pt_clust_6="13000.00000" pt_clust_7="13000.00000" pt_clust_8="13000.00000" pt_clust_9="23.26197"></scales>
<clustering>
<clus scale="   23.262">  1  9  2 -1</clus>
<clus scale="   80.652">  5  6 -1 -1</clus>
<clus scale="   91.795">  7  8 -1 -1</clus>
<clus scale="  103.235">  1  5  2 -1</clus>
<clus scale="  112.156">  2  5  1 -1</clus>
</clustering>
</event>
<event>
 9    2  0.5684583E-005  0.1400934E+03  0.7546771E-02  0.1226498E+00
          2   -1    0    0  502    0  0.00000000000E+00  0.00000000000E+00  0.15340797123E+04  0.15340797123E+04  0.00000000000E+00 0. -1.
         -1   -1    0    0    0  501 -0.00000000000E+00 -0.00000000000E+00 -0.16156413703E+02  0.16156413703E+02  0.00000000000E+00 0.  1.
         23    2    1    2    0    0  0.53093354239E+02  0.40422684387E+02  0.43094948081E+03  0.45309710739E+03  0.12299039002E+03 0.  0.
         24    2    1    2    0    0 -0.30048387470E+02 -0.61767574643E+02  0.97468700961E+03  0.98054141090E+03  0.82027757053E+02 0.  0.
        -11    1    4    4    0    0  0.19958816015E+02 -0.26379549261E+02  0.15107275664E+03  0.15465190835E+03  0.00000000000E+00 0.  1.
         12    1    4    4    0    0 -0.50007203486E+02 -0.35388025382E+02  0.82361425296E+03  0.82588950255E+03  0.00000000000E+00 0. -1.
        -13    1    3    3    0    0  0.30495066852E+01  0.66056714392E+02  0.33844621643E+03  0.34484580673E+03  0.00000000000E+00 0.  1.
         13    1    3    3    0    0  0.50043847554E+02 -0.25634030005E+02  0.92503264385E+02  0.10825130066E+03  0.00000000000E+00 0. -1.
         21    1    1    2  502  501 -0.23044966769E+02  0.21344890256E+02  0.11228680818E+03  0.11659760772E+03  0.00000000000E+00 0.  1.
<scales pt_clust_5="13000.00000" pt_clust_6="13000.00000" pt_clust_7="13000.00000" pt_clust_8="13000.00000" pt_clust_9="31.41138"></scales>
<clustering>
<clus scale="   31.411">  2  9  1 -1</clus>
<clus scale="   82.028">  5  6 -1 -1</clus>
<clus scale="  105.963">  1  5  2 -1</clus>
<clus scale="  122.990">  7  8 -1 -1</clus>
<clus scale="  105.963">  1  5  2 -1</clus>
</clustering>
</event>
<event>
 9    2  0.5684583E-005  0.1009299E+03  0.7546771E-02  0.1286584E+00
         -1   -1    0    0    0  501 -0.00000000000E+00  0.00000000000E+00  0.64363729162E+03  0.64363729162E+03  0.00000000000E+00 0.  1.
          2   -1    0    0  502    0  0.00000000000E+00 -0.00000000000E+00 -0.27852680811E+02  0.27852680811E+02  0.00000000000E+00 0. -1.
         23    2    1    2    0    0 -0.40177052030E+02 -0.17805748966E+02  0.44658911777E+03  0.45899033243E+03  0.96431555755E+02 0.  0.
         24    2    1    2    0    0  0.23346658860E+01  0.78429380886E+01  0.14550974815E+03  0.16675777405E+03  0.81043852676E+02 0.  0.
        -13    1    4    4    0    0 -0.31195535397E+02  0.56937664594E+01  0.12121794599E+03  0.12529713019E+03  0.00000000000E+00 0.  1.
         14    1    4    4    0    0  0.33530201283E+02  0.21491716293E+01  0.24291802165E+02  0.41460643859E+02  0.00000000000E+00 0. -1.
        -13    1    3    3    0    0  0.46678370329E+01 -0.47667940533E+02  0.14732785220E+03  0.15491777591E+03  0.00000000000E+00 0.  1.
         13    1    3    3    0    0 -0.44844889063E+02  0.29862191567E+02  0.29926126557E+03  0.30407255653E+03  0.00000000000E+00 0. -1.
         21    1    1    2  502  501  0.37842386144E+02  0.99628108774E+01  0.23685744880E+02  0.45741865945E+02  0.00000000000E+00 0. -1.
<scales pt_clust_5="13000.00000" pt_clust_6="13000.00000" pt_clust_7="13000.00000" pt_clust_8="13000.00000" pt_clust_9="39.13188"></scales>
<clustering>
<clus scale="   39.132">  2  9  1 -1</clus>
<clus scale="   81.044">  5  6 -1 -1</clus>
<clus scale="   86.348">  2  5  1 -1</clus>
<clus scale="   96.432">  7  8 -1 -1</clus>
<clus scale="   39.132">  2  5  1 -1</clus>
</clustering>
</event>
<event>
 9    2  0.5684583E-005  0.2090652E+03  0.7546771E-02  0.1142804E+00
          2   -1    0    0  502    0  0.00000000000E+00  0.00000000000E+00  0.18494337866E+03  0.18494337866E+03  0.00000000000E+00 0. -1.
         -1   -1    0    0    0  501 -0.00000000000E+00 -0.00000000000E+00 -0.77284648110E+03  0.77284648110E+03  0.00000000000E+00 0.  1.
         24    2    1    2    0    0  0.13677230846E+03  0.33900777725E+02 -0.28264695568E+03  0.32736255529E+03  0.86145307218E+02 0.  0.
         23    2    1    2    0    0 -0.18680794071E+03 -0.70179490757E+02  0.84801713527E+02  0.23550345880E+03  0.91913986181E+02 0.  0.
        -11    1    3    3    0    0  0.86971863747E+02 -0.12121095449E+02 -0.21186057320E+03  0.22933802240E+03  0.00000000000E+00 0.  1.
         12    1    3    3    0    0  0.49800444715E+02  0.46021873174E+02 -0.70786382480E+02  0.98024532893E+02  0.00000000000E+00 0. -1.
        -13    1    4    4    0    0 -0.57216157055E+02  0.20988000098E+02  0.17969370833E+02  0.63538044229E+02  0.00000000000E+00 0.  1.
         13    1    4    4    0    0 -0.12959178366E+03 -0.91167490855E+02  0.66832342694E+02  0.17196541458E+03  0.00000000000E+00 0. -1.
         21    1    1    2  502  501  0.50035632249E+02  0.36278713033E+02 -0.39005786028E+03  0.39492384568E+03  0.00000000000E+00 0.  1.
<scales pt_clust_5="13000.00000" pt_clust_6="13000.00000" pt_clust_7="13000.00000" pt_clust_8="13000.00000" pt_clust_9="61.80380"></scales>
<clustering>
<clus scale="   61.804">  2  9  1 -1</clus>
<clus scale="   86.145">  5  6 -1 -1</clus>
<clus scale="   91.914">  7  8 -1 -1</clus>
<clus scale="  206.594">  2  5  1 -1</clus>
<clus scale="  209.065">  1  5  2 -1</clus>
</clustering>
</event>
<event>
 9    2  0.5684583E-005  0.9874375E+02  0.7546771E-02  0.1287777E+00
         -3   -1    0    0    0  501 -0.00000000000E+00  0.00000000000E+00  0.60307443641E+03  0.60307443641E+03  0.00000000000E+00 0.  1.
          4   -1    0    0  502    0  0.00000000000E+00 -0.00000000000E+00 -0.56096240485E+02  0.56096240485E+02  0.00000000000E+00 0. -1.
         23    2    1    2    0    0 -0.75229505713E+01 -0.62129305215E+02  0.22591607166E+03  0.25111259212E+03  0.90015649398E+02 0.  0.
         24    2    1    2    0    0  0.46087620601E+02  0.72037051350E-01  0.15715110866E+02  0.94091308029E+02  0.80511710795E+02 0.  0.
        -11    1    4    4    0    0 -0.19493979586E+02  0.74464300884E+01  0.18711676536E+02  0.28028403450E+02  0.00000000000E+00 0.  1.
         12    1    4    4    0    0  0.65581600186E+02 -0.73743930371E+01 -0.29965656707E+01  0.66062904579E+02  0.00000000000E+00 0. -1.
        -13    1    3    3    0    0  0.28187517690E+02 -0.77483544456E+01  0.20670357162E+02  0.35802748712E+02  0.00000000000E+00 0. -1.
         13    1    3    3    0    0 -0.35710468261E+02 -0.54380950769E+02  0.20524571449E+03  0.21530984341E+03  0.00000000000E+00 0.  1.
         21    1    1    2  502  501 -0.38564670029E+02  0.62057268164E+02  0.30534701340E+03  0.31396677674E+03  0.00000000000E+00 0.  1.
<scales pt_clust_5="13000.00000" pt_clust_6="13000.00000" pt_clust_7="13000.00000" pt_clust_8="13000.00000" pt_clust_9="73.06393"></scales>
<clustering>
<clus scale="   73.064">  1  9  2 -1</clus>
<clus scale="   80.512">  5  6 -1 -1</clus>
<clus scale="   90.016">  7  8 -1 -1</clus>
<clus scale="   90.165">  2  5  1 -1</clus>
<clus scale="   90.165">  2  5  1 -1</clus>
</clustering>
</event>
<event>
 9    2  0.5684583E-005  0.1427939E+03  0.7546771E-02  0.1211645E+00
         -1   -1    0    0    0  501 -0.00000000000E+00  0.00000000000E+00  0.14938552648E+03  0.14938552648E+03  0.00000000000E+00 0.  1.
          2   -1    0    0  502    0  0.00000000000E+00 -0.00000000000E+00 -0.73276479090E+03  0.73276479090E+03  0.00000000000E+00 0. -1.
         23    2    1    2    0    0 -0.41520659882E+02  0.12458240241E+03  0.65213293617E+02  0.17289921568E+03  0.91633099533E+02 0.  0.
         24    2    1    2    0    0  0.12846480469E+02 -0.10763018876E+03 -0.66015622863E+03  0.67399057718E+03  0.81900930002E+02 0.  0.
        -13    1    4    4    0    0 -0.10560527687E+02 -0.51023706474E+02 -0.12621713708E+03  0.13654929168E+03  0.00000000000E+00 0.  1.
         14    1    4    4    0    0  0.23407008156E+02 -0.56606482288E+02 -0.53393909155E+03  0.53744128549E+03  0.00000000000E+00 0. -1.
        -11    1    3    3    0    0 -0.78321167475E+01  0.12038224618E+03  0.68606522138E+02  0.13878069797E+03  0.00000000000E+00 0.  1.
         11    1    3    3    0    0 -0.33688543134E+02  0.42001562280E+01 -0.33932285209E+01  0.34118517709E+02  0.00000000000E+00 0. -1.
         21    1    1    2  502  501  0.28674179412E+02 -0.16952213651E+02  0.11563670590E+02  0.35260524530E+02  0.00000000000E+00 0.  1.
<scales pt_clust_5="13000.00000" pt_clust_6="13000.00000" pt_clust_7="13000.00000" pt_clust_8="13000.00000" pt_clust_9="33.31045"></scales>
<clustering>
<clus scale="   33.310">  1  9  2 -1</clus>
<clus scale="   81.901">  5  6 -1 -1</clus>
<clus scale="   91.633">  7  8 -1 -1</clus>
<clus scale="  136.752">  2  5  1 -1</clus>
<clus scale="  136.752">  2  5  1 -1</clus>
</clustering>
</event>
<event>
 9    2  0.5684583E-005  0.8959753E+02  0.7546771E-02  0.1308515E+00
         -1   -1    0    0    0  501 -0.00000000000E+00  0.00000000000E+00  0.59688642476E+03  0.59688642476E+03  0.00000000000E+00 0.  1.
          2   -1    0    0  502    0  0.00000000000E+00 -0.00000000000E+00 -0.25692682475E+02  0.25692682475E+02  0.00000000000E+00 0. -1.
         23    2    1    2    0    0 -0.53080876836E+02 -0.37351500918E+02  0.31819467301E+03  0.33267024319E+03  0.72172894261E+02 0.  0.
         24    2    1    2    0    0  0.32962750205E+02 -0.10354705043E+02  0.13315480521E+03  0.15935899336E+03  0.80444538640E+02 0.  0.
        -11    1    4    4    0    0 -0.16406368247E+02 -0.30144029477E+02  0.54682283945E+02  0.64559922628E+02  0.00000000000E+00 0.  1.
         12    1    4    4    0    0  0.49369118452E+02  0.19789324434E+02  0.78472521268E+02  0.94799070737E+02  0.00000000000E+00 0. -1.
        -13    1    3    3    0    0 -0.19808971395E+00 -0.21737938780E+02  0.20393045204E+02  0.29806937358E+02  0.00000000000E+00 0. -1.
         13    1    3    3    0    0 -0.52882787122E+02 -0.15613562138E+02  0.29780162780E+03  0.30286330583E+03  0.00000000000E+00 0.  1.
         21    1    1    2  502  501  0.20118126631E+02  0.47706205960E+02  0.11984426406E+03  0.13054987068E+03  0.00000000000E+00 0. -1.
<scales pt_clust_5="13000.00000" pt_clust_6="13000.00000" pt_clust_7="13000.00000" pt_clust_8="13000.00000" pt_clust_9="51.77471"></scales>
<clustering>
<clus scale="   51.775">  1  9  2 -1</clus>
<clus scale="   72.173">  7  8 -1 -1</clus>
<clus scale="   80.445">  5  6 -1 -1</clus>
<clus scale="   82.252">  1  7  2 -1</clus>
<clus scale="   89.598">  2  5  1 -1</clus>
</clustering>
</event>
<event>
 9    2  0.5684583E-005  0.2483179E+03  0.7546771E-02  0.1114971E+00
          2   -1    0    0  502    0  0.00000000000E+00  0.00000000000E+00  0.11354045019E+03  0.11354045019E+03  0.00000000000E+00 0. -1.
         -1   -1    0    0    0  501 -0.00000000000E+00 -0.00000000000E+00 -0.77332239122E+03  0.77332239122E+03  0.00000000000E+00 0.  1.
         24    2    1    2    0    0  0.76463374535E+02  0.21150545526E+03 -0.25720211404E+03  0.35096656846E+03  0.80270788339E+02 0.  0.
         23    2    1    2    0    0 -0.53097320404E+02 -0.23071073291E+03 -0.17936562766E+03  0.31064220759E+03  0.90993324144E+02 0.  0.
        -13    1    3    3    0    0  0.44737682598E+02  0.11418486042E+03 -0.80308819311E+02  0.14659177689E+03  0.00000000000E+00 0.  1.
         14    1    3    3    0    0  0.31725691937E+02  0.97320594843E+02 -0.17689329473E+03  0.20437479157E+03  0.00000000000E+00 0. -1.
        -11    1    4    4    0    0  0.41721664791E+01 -0.14401124675E+03 -0.13575486372E+03  0.19795461396E+03  0.00000000000E+00 0.  1.
         11    1    4    4    0    0 -0.57269486883E+02 -0.86699486155E+02 -0.43610763944E+02  0.11268759363E+03  0.00000000000E+00 0. -1.
         21    1    1    2  502  501 -0.23366054131E+02  0.19205277648E+02 -0.22321419933E+03  0.22525406535E+03  0.00000000000E+00 0.  1.
<scales pt_clust_5="13000.00000" pt_clust_6="13000.00000" pt_clust_7="13000.00000" pt_clust_8="13000.00000" pt_clust_9="30.24591"></scales>
<clustering>
<clus scale="   30.246">  2  9  1 -1</clus>
<clus scale="   80.271">  5  6 -1 -1</clus>
<clus scale="   90.993">  7  8 -1 -1</clus>
<clus scale="  244.592">  2  5  1 -1</clus>
<clus scale="  248.318">  1  5  2 -1</clus>
</clustering>
</event>
<event>
 9    2  0.5684583E-005  0.1400603E+03  0.7546771E-02  0.1215609E+00
         -1   -1    0    0    0  501 -0.00000000000E+00  0.00000000000E+00  0.22220795379E+03  0.22220795379E+03  0.00000000000E+00 0.  1.
          2   -1    0    0  502    0  0.00000000000E+00 -0.00000000000E+00 -0.40780685470E+03  0.40780685470E+03  0.00000000000E+00 0. -1.
         23    2    1    2    0    0  0.12615198699E+03  0.48817293723E+02 -0.28632145642E+01  0.16295777355E+03  0.90827231467E+02 0.  0.
         24    2    1    2    0    0 -0.92661146019E+02 -0.42630564885E+02 -0.30964583380E+03  0.33565651147E+03  0.79883028600E+02 0.  0.
        -13    1    4    4    0    0 -0.92291461059E+01 -0.29134278426E+02 -0.27459598066E+02  0.41085433468E+02  0.00000000000E+00 0.  1.
         14    1    4    4    0    0 -0.83431999913E+02 -0.13496286458E+02 -0.28218623573E+03  0.29457107800E+03  0.00000000000E+00 0. -1.
        -11    1    3    3    0    0  0.69306801307E+02  0.41160506809E+02  0.41295405515E+02  0.90570031163E+02  0.00000000000E+00 0.  1.
         11    1    3    3    0    0  0.56845185680E+02  0.76567869137E+01 -0.44158620079E+02  0.72387742389E+02  0.00000000000E+00 0. -1.
         21    1    1    2  502  501 -0.33490840968E+02 -0.61867288379E+01  0.12691014745E+03  0.13140052347E+03  0.00000000000E+00 0. -1.
<scales pt_clust_5="13000.00000" pt_clust_6="13000.00000" pt_clust_7="13000.00000" pt_clust_8="13000.00000" pt_clust_9="34.05748"></scales>
<clustering>
<clus scale="   34.057">  1  9  2 -1</clus>
<clus scale="   79.883">  5  6 -1 -1</clus>
<clus scale="   90.827">  7  8 -1 -1</clus>
<clus scale="  133.224">  2  5  1 -1</clus>
<clus scale="  133.224">  2  5  1 -1</clus>
</clustering>
</event>
<event>
 9    2  0.5684583E-005  0.1108829E+03  0.7546771E-02  0.1259366E+00
          2   -1    0    0  502    0  0.00000000000E+00  0.00000000000E+00  0.65584321564E+03  0.65584321564E+03  0.00000000000E+00 0. -1.
         -1   -1    0    0    0  501 -0.00000000000E+00 -0.00000000000E+00 -0.41492107508E+03  0.41492107508E+03  0.00000000000E+00 0.  1.
         23    2    1    2    0    0  0.16317770595E+02  0.74981654655E+02 -0.37288829329E+03  0.39174473037E+03  0.92356571645E+02 0.  0.
         24    2    1    2    0    0 -0.26856643292E+02 -0.53100389290E+02  0.63632819996E+03  0.64589996793E+03  0.93446561548E+02 0.  0.
        -13    1    4    4    0    0 -0.52761079541E+02 -0.46263137253E+02  0.28346954242E+03  0.29202566816E+03  0.00000000000E+00 0.  1.
         14    1    4    4    0    0  0.25904436249E+02 -0.68372520370E+01  0.35285865755E+03  0.35387429977E+03  0.00000000000E+00 0. -1.
        -13    1    3    3    0    0  0.46215527668E+02  0.23923298333E+02 -0.24993951595E+03  0.25529974703E+03  0.00000000000E+00 0.  1.
         13    1    3    3    0    0 -0.29897757073E+02  0.51058356322E+02 -0.12294877734E+03  0.13644498334E+03  0.00000000000E+00 0. -1.
         21    1    1    2  502  501  0.10538872697E+02 -0.21881265365E+02 -0.22517766108E+02  0.33119592422E+02  0.00000000000E+00 0.  1.
<scales pt_clust_5="13000.00000" pt_clust_6="13000.00000" pt_clust_7="13000.00000" pt_clust_8="13000.00000" pt_clust_9="24.28698"></scales>
<clustering>
<clus scale="   24.287">  2  9  1 -1</clus>
<clus scale="   92.357">  7  8 -1 -1</clus>
<clus scale="   93.447">  5  6 -1 -1</clus>
<clus scale="  109.966">  2  7  1 -1</clus>
<clus scale="  110.883">  1  5  2 -1</clus>
</clustering>
</event>
<event>
 9    2  0.5684583E-005  0.1245810E+03  0.7546771E-02  0.1237185E+00
         -1   -1    0    0    0  501 -0.00000000000E+00  0.00000000000E+00  0.11587969669E+03  0.11587969669E+03  0.00000000000E+00 0.  1.
          2   -1    0    0  502    0  0.00000000000E+00 -0.00000000000E+00 -0.27859917646E+03  0.27859917646E+03  0.00000000000E+00 0. -1.
         24    2    1    2    0    0  0.29555899521E+01  0.60785871595E+02 -0.15859039819E+02  0.10585222809E+03  0.85144156294E+02 0.  0.
         23    2    1    2    0    0  0.46344859526E+02 -0.90785083257E+02 -0.17716801994E+03  0.22344201172E+03  0.90266538451E+02 0.  0.
        -13    1    3    3    0    0  0.36816618712E+02  0.58614172140E+02 -0.18995898638E+02  0.71776937480E+02  0.00000000000E+00 0.  1.
         14    1    3    3    0    0 -0.33861028760E+02  0.21716994553E+01  0.31368588185E+01  0.34075290614E+02  0.00000000000E+00 0. -1.
        -13    1    4    4    0    0  0.69795533373E+01 -0.38963930123E+02 -0.14602801565E+03  0.15129799526E+03  0.00000000000E+00 0. -1.
         13    1    4    4    0    0  0.39365306188E+02 -0.51821153134E+02 -0.31140004296E+02  0.72144016460E+02  0.00000000000E+00 0.  1.
         21    1    1    2  502  501 -0.49300449478E+02  0.29999211662E+02  0.30307579990E+02  0.65184633342E+02  0.00000000000E+00 0.  1.
<scales pt_clust_5="13000.00000" pt_clust_6="13000.00000" pt_clust_7="13000.00000" pt_clust_8="13000.00000" pt_clust_9="57.71037"></scales>
<clustering>
<clus scale="   57.710">  1  9  2 -1</clus>
<clus scale="   85.144">  5  6 -1 -1</clus>
<clus scale="   90.267">  7  8 -1 -1</clus>
<clus scale="  120.921">  1  5  2 -1</clus>
<clus scale="  124.581">  2  5  1 -1</clus>
</clustering>
</event>
<event>
 9    2  0.5684583E-005  0.1128017E+03  0.7546771E-02  0.1259931E+00
         -1   -1    0    0    0  501 -0.00000000000E+00  0.00000000000E+00  0.27278455030E+03  0.27278455030E+03  0.00000000000E+00 0.  1.
          2   -1    0    0  502    0  0.00000000000E+00 -0.00000000000E+00 -0.50036508729E+03  0.50036508729E+03  0.00000000000E+00 0. -1.
         23    2    1    2    0    0 -0.54210975623E+02 -0.36089219684E+02  0.14174324264E+03  0.18122425771E+03  0.92248702394E+02 0.  0.
         24    2    1    2    0    0  0.30249857056E+02  0.57735100835E+02 -0.47256221572E+03  0.48375489380E+03  0.80345216598E+02 0.  0.
        -13    1    4    4    0    0  0.51520142007E+01  0.22219557339E+02 -0.24074900191E+02  0.33164028674E+02  0.00000000000E+00 0.  1.
         14    1    4    4    0    0  0.25097842855E+02  0.35515543496E+02 -0.44848731553E+03  0.45059086513E+03  0.00000000000E+00 0. -1.
        -13    1    3    3    0    0 -0.31548974901E+02 -0.23061666700E+02  0.14904567611E+03  0.15408371704E+03  0.00000000000E+00 0.  1.
         13    1    3    3    0    0 -0.22662000722E+02 -0.13027552985E+02 -0.73024334712E+01  0.27140540674E+02  0.00000000000E+00 0. -1.
         21    1    1    2  502  501  0.23961118567E+02 -0.21645881151E+02  0.10323843608E+03  0.10817048608E+03  0.00000000000E+00 0. -1.
<scales pt_clust_5="13000.00000" pt_clust_6="13000.00000" pt_clust_7="13000.00000" pt_clust_8="13000.00000" pt_clust_9="32.29055"></scales>
<clustering>
<clus scale="   32.291">  1  9  2 -1</clus>
<clus scale="   80.345">  5  6 -1 -1</clus>
<clus scale="   92.249">  7  8 -1 -1</clus>
<clus scale="  103.295">  2  5  1 -1</clus>
<clus scale="  103.295">  2  5  1 -1</clus>
</clustering>
</event>
<event>
 9    2  0.5684583E-005  0.1206466E+03  0.7546771E-02  0.1246473E+00
          2   -1    0    0  502    0  0.00000000000E+00  0.00000000000E+00  0.26599476896E+03  0.26599476896E+03  0.00000000000E+00 0. -1.
         -1   -1    0    0    0  501 -0.00000000000E+00 -0.00000000000E+00 -0.85801377618E+02  0.85801377618E+02  0.00000000000E+00 0.  1.
         23    2    1    2    0    0  0.69902655913E+02 -0.52197057157E+01  0.33840302917E+02  0.12022187024E+03  0.91621533231E+02 0.  0.
         24    2    1    2    0    0 -0.90834751900E+02 -0.42972860170E+02  0.10474044283E+03  0.16454974111E+03  0.77514115299E+02 0.  0.
        -11    1    4    4    0    0 -0.26352742202E+01 -0.35989351848E+02  0.16801784081E+02  0.39805502948E+02  0.00000000000E+00 0.  1.
         12    1    4    4    0    0 -0.88199477679E+02 -0.69835083219E+01  0.87938658753E+02  0.12474423816E+03  0.00000000000E+00 0. -1.
        -13    1    3    3    0    0  0.63699649615E+02 -0.41585472430E+02  0.11080762522E+02  0.76875094643E+02  0.00000000000E+00 0.  1.
         13    1    3    3    0    0  0.62030062976E+01  0.36365766714E+02  0.22759540395E+02  0.43346775599E+02  0.00000000000E+00 0. -1.
         21    1    1    2  502  501  0.20932095987E+02  0.48192565885E+02  0.41612645590E+02  0.67024535224E+02  0.00000000000E+00 0.  1.
<scales pt_clust_5="13000.00000" pt_clust_6="13000.00000" pt_clust_7="13000.00000" pt_clust_8="13000.00000" pt_clust_9="52.54214"></scales>
<clustering>
<clus scale="   52.542">  1  9  2 -1</clus>
<clus scale="   77.514">  5  6 -1 -1</clus>
<clus scale="   91.622">  7  8 -1 -1</clus>
<clus scale="  110.316">  1  5  2 -1</clus>
<clus scale="   52.542">  1  5  2 -1</clus>
</clustering>
</event>
<event>
 9    2  0.5684583E-005  0.1330581E+03  0.7546771E-02  0.1225140E+00
         -1   -1    0    0    0  501 -0.00000000000E+00  0.00000000000E+00  0.54685249818E+02  0.54685249818E+02  0.00000000000E+00 0.  1.
          2   -1    0    0  502    0  0.00000000000E+00 -0.00000000000E+00 -0.52067492970E+03  0.52067492970E+03  0.00000000000E+00 0. -1.
         23    2    1    2    0    0 -0.81576000994E+02  0.83880184343E+02 -0.22858602987E+03  0.27274234250E+03  0.91903661926E+02 0.  0.
         24    2    1    2    0    0  0.36131277173E+02 -0.76536325952E+02 -0.22587209086E+03  0.25516120381E+03  0.83221151873E+02 0.  0.
        -13    1    4    4    0    0  0.13279026322E+02 -0.65685646477E+02 -0.21888881496E+03  0.22891756160E+03  0.00000000000E+00 0.  1.
         14    1    4    4    0    0  0.22852250852E+02 -0.10850679475E+02 -0.69832758963E+01  0.26243642208E+02  0.00000000000E+00 0. -1.
        -11    1    3    3    0    0 -0.49218172831E+02  0.54049217869E+02 -0.21437272692E+03  0.22649373620E+03  0.00000000000E+00 0. -1.
         11    1    3    3    0    0 -0.32357828164E+02  0.29830966474E+02 -0.14213302955E+02  0.46248606304E+02  0.00000000000E+00 0.  1.
         21    1    1    2  502  501  0.45444723821E+02 -0.73438583904E+01 -0.11531559150E+02  0.47456633210E+02  0.00000000000E+00 0.  1.
<scales pt_clust_5="13000.00000" pt_clust_6="13000.00000" pt_clust_7="13000.00000" pt_clust_8="13000.00000" pt_clust_9="46.03428"></scales>
<clustering>
<clus scale="   46.034">  1  9  2 -1</clus>
<clus scale="   83.221">  5  6 -1 -1</clus>
<clus scale="   91.904">  7  8 -1 -1</clus>
<clus scale="  127.216">  2  5  1 -1</clus>
<clus scale="  127.216">  2  5  1 -1</clus>
</clustering>
</event>
<event>
 9    2  0.5684583E-005  0.9153662E+02  0.7546771E-02  0.1306413E+00
         -1   -1    0    0    0  501 -0.00000000000E+00  0.00000000000E+00  0.51548621146E+03  0.51548621146E+03  0.00000000000E+00 0.  1.
          2   -1    0    0  502    0  0.00000000000E+00 -0.00000000000E+00 -0.59373378561E+02  0.59373378561E+02  0.00000000000E+00 0. -1.
         24    2    1    2    0    0 -0.13888398925E+02  0.29598824015E+02  0.11824632303E+03  0.14624768970E+03  0.79606631779E+02 0.  0.
         23    2    1    2    0    0 -0.36067902389E+01  0.24375317679E+02  0.88673380523E+01  0.94756026226E+02  0.91065414809E+02 0.  0.
        -13    1    3    3    0    0  0.89875502294E+01  0.28818666482E+02  0.11956840177E+03  0.12332029151E+03  0.00000000000E+00 0.  1.
         14    1    3    3    0    0 -0.22875949154E+02  0.78015753346E+00 -0.13220787338E+01  0.22927398188E+02  0.00000000000E+00 0. -1.
        -13    1    4    4    0    0  0.32990101036E+02 -0.18404004102E+02  0.70543641738E+01  0.38429392231E+02  0.00000000000E+00 0.  1.
         13    1    4    4    0    0 -0.36596891274E+02  0.42779321781E+02  0.18129738785E+01  0.56326633996E+02  0.00000000000E+00 0. -1.
         21    1    1    2  502  501  0.17495189164E+02 -0.53974141695E+02  0.32899917181E+03  0.33385587409E+03  0.00000000000E+00 0.  1.
<scales pt_clust_5="13000.00000" pt_clust_6="13000.00000" pt_clust_7="13000.00000" pt_clust_8="13000.00000" pt_clust_9="56.73878"></scales>
<clustering>
<clus scale="   56.739">  1  9  2 -1</clus>
<clus scale="   79.607">  5  6 -1 -1</clus>
<clus scale="   80.145">  1  5  2 -1</clus>
<clus scale="   91.065">  7  8 -1 -1</clus>
<clus scale="   91.537">  2  5  1 -1</clus>
</clustering>
</event>
<event>
 9    2  0.5684583E-005  0.9574655E+02  0.7546771E-02  0.1299623E+00
         -1   -1    0    0    0  501 -0.00000000000E+00  0.00000000000E+00  0.17493644496E+03  0.17493644496E+03  0.00000000000E+00 0.  1.
          2   -1    0    0  502    0  0.00000000000E+00 -0.00000000000E+00 -0.41640224209E+03  0.41640224209E+03  0.00000000000E+00 0. -1.
         23    2    1    2    0    0  0.11690476606E+02 -0.11518912863E+02  0.13241234110E+03  0.16332038150E+03  0.94186869259E+02 0.  0.
         24    2    1    2    0    0  0.12114949740E+02  0.12850780525E+02 -0.39079503985E+03  0.39878384377E+03  0.77433044081E+02 0.  0.
        -13    1    4    4    0    0 -0.33116864194E+02  0.54186546929E+01 -0.17023482133E+03  0.17351075732E+03  0.00000000000E+00 0.  1.
         14    1    4    4    0    0  0.45231813934E+02  0.74321258321E+01 -0.22056021852E+03  0.22527308645E+03  0.00000000000E+00 0. -1.
        -13    1    3    3    0    0  0.25271502695E+01  0.40071944557E+02  0.78309886294E+02  0.88003326758E+02  0.00000000000E+00 0.  1.
         13    1    3    3    0    0  0.91633263368E+01 -0.51590857421E+02  0.54102454806E+02  0.75317054742E+02  0.00000000000E+00 0. -1.
         21    1    1    2  502  501 -0.23805426347E+02 -0.13318676619E+01  0.16916901619E+02  0.29234461777E+02  0.00000000000E+00 0. -1.
<scales pt_clust_5="13000.00000" pt_clust_6="13000.00000" pt_clust_7="13000.00000" pt_clust_8="13000.00000" pt_clust_9="23.84265"></scales>
<clustering>
<clus scale="   23.843">  1  9  2 -1</clus>
<clus scale="   77.433">  5  6 -1 -1</clus>
<clus scale="   79.323">  2  5  1 -1</clus>
<clus scale="   94.187">  7  8 -1 -1</clus>
<clus scale="   79.323">  2  5  1 -1</clus>
</clustering>
</event>
<event>
 9    2  0.5684583E-005  0.1061056E+03  0.7546771E-02  0.1271769E+00
         -3   -1    0    0    0  501 -0.00000000000E+00  0.00000000000E+00  0.38658027672E+02  0.38658027672E+02  0.00000000000E+00 0.  1.
          4   -1    0    0  502    0  0.00000000000E+00 -0.00000000000E+00 -0.44177238194E+03  0.44177238194E+03  0.00000000000E+00 0. -1.
         23    2    1    2    0    0  0.36324703332E+02 -0.46400842637E+02 -0.11391037331E+03  0.15677382197E+03  0.90166156825E+02 0.  0.
         24    2    1    2    0    0 -0.91616354298E+01  0.56079788019E+02 -0.27335094878E+03  0.29075016166E+03  0.81154402969E+02 0.  0.
        -13    1    4    4    0    0 -0.22462610414E+02  0.19978550964E+02 -0.24050775668E+02  0.38498716543E+02  0.00000000000E+00 0.  1.
         14    1    4    4    0    0  0.13300974985E+02  0.36101237055E+02 -0.24930017311E+03  0.25225144512E+03  0.00000000000E+00 0. -1.
        -13    1    3    3    0    0  0.58482702442E+02 -0.27251970785E+02 -0.10958791920E+03  0.12717078450E+03  0.00000000000E+00 0.  1.
         13    1    3    3    0    0 -0.22157999109E+02 -0.19148871852E+02 -0.43224541160E+01  0.29603037468E+02  0.00000000000E+00 0. -1.
         21    1    1    2  502  501 -0.27163067903E+02 -0.96789453821E+01 -0.15853032178E+02  0.32906425981E+02  0.00000000000E+00 0.  1.
<scales pt_clust_5="13000.00000" pt_clust_6="13000.00000" pt_clust_7="13000.00000" pt_clust_8="13000.00000" pt_clust_9="28.83599"></scales>
<clustering>
<clus scale="   28.836">  1  9  2 -1</clus>
<clus scale="   81.154">  5  6 -1 -1</clus>
<clus scale="   90.166">  7  8 -1 -1</clus>
<clus scale="   98.562">  2  5  1 -1</clus>
<clus scale="   98.562">  2  5  1 -1</clus>
</clustering>
</event>
<event>
 9    2  0.5684583E-005  0.9712125E+02  0.7546771E-02  0.1293448E+00
         -1   -1    0    0    0  501 -0.00000000000E+00  0.00000000000E+00  0.89624277898E+01  0.89624277898E+01  0.00000000000E+00 0.  1.
          2   -1    0    0  502    0  0.00000000000E+00 -0.00000000000E+00 -0.12913265154E+04  0.12913265154E+04  0.00000000000E+00 0. -1.
         23    2    1    2    0    0  0.77106979660E+01 -0.35634972641E+02 -0.54717060151E+03  0.55605046436E+03  0.92017094159E+02 0.  0.
         24    2    1    2    0    0  0.11261441838E+02  0.27910945105E+02 -0.68160435696E+03  0.68686777679E+03  0.79353654251E+02 0.  0.
        -13    1    4    4    0    0  0.77340922083E+01 -0.22684256479E+02 -0.91458667399E+02  0.94546705477E+02  0.00000000000E+00 0.  1.
         14    1    4    4    0    0  0.35273496298E+01  0.50595201583E+02 -0.59014568956E+03  0.59232107132E+03  0.00000000000E+00 0. -1.
        -13    1    3    3    0    0  0.46536411249E+02 -0.46045777277E+00 -0.24872214906E+03  0.25303864730E+03  0.00000000000E+00 0. -1.
         13    1    3    3    0    0 -0.38825713283E+02 -0.35174514868E+02 -0.29844845245E+03  0.30301181706E+03  0.00000000000E+00 0.  1.
         21    1    1    2  502  501 -0.18972139804E+02  0.77240275363E+01 -0.53589129124E+02  0.57370702021E+02  0.00000000000E+00 0.  1.
<scales pt_clust_5="13000.00000" pt_clust_6="13000.00000" pt_clust_7="13000.00000" pt_clust_8="13000.00000" pt_clust_9="20.48421"></scales>
<clustering>
<clus scale="   20.484">  1  9  2 -1</clus>
<clus scale="   79.354">  5  6 -1 -1</clus>
<clus scale="   85.220">  2  5  1 -1</clus>
<clus scale="   92.017">  7  8 -1 -1</clus>
<clus scale="   85.220">  2  5  1 -1</clus>
</clustering>
</event>
<event>
 9    2  0.5684583E-005  0.8665319E+02  0.7546771E-02  0.1313289E+00
          2   -1    0    0  502    0  0.00000000000E+00  0.00000000000E+00  0.68093839977E+03  0.68093839977E+03  0.00000000000E+00 0. -1.
         -1   -1    0    0    0  501 -0.00000000000E+00 -0.00000000000E+00 -0.22076390818E+03  0.22076390818E+03  0.00000000000E+00 0.  1.
         23    2    1    2    0    0 -0.30240102406E+02  0.22096297604E+02  0.40592597370E+00  0.93865626074E+02  0.86069046823E+02 0.  0.
         24    2    1    2    0    0  0.15377647342E+01 -0.88089811212E+01  0.62960178077E+03  0.63508339555E+03  0.82780155199E+02 0.  0.
        -11    1    4    4    0    0 -0.37343381576E+02 -0.36908292929E+01  0.18575309728E+03  0.18950557648E+03  0.00000000000E+00 0.  1.
         12    1    4    4    0    0  0.38881146310E+02 -0.51181518284E+01  0.44384868349E+03  0.44557781907E+03  0.00000000000E+00 0. -1.
        -13    1    3    3    0    0 -0.21992095069E+02 -0.32173552091E+02  0.11963609529E+00  0.38971836144E+02  0.00000000000E+00 0.  1.
         13    1    3    3    0    0 -0.82480073369E+01  0.54269849695E+02  0.28628987840E+00  0.54893789930E+02  0.00000000000E+00 0. -1.
         21    1    1    2  502  501  0.28702337672E+02 -0.13287316483E+02 -0.16983321515E+03  0.17275328632E+03  0.00000000000E+00 0.  1.
<scales pt_clust_5="13000.00000" pt_clust_6="13000.00000" pt_clust_7="13000.00000" pt_clust_8="13000.00000" pt_clust_9="31.62874"></scales>
<clustering>
<clus scale="   31.629">  2  9  1 -1</clus>
<clus scale="   82.780">  5  6 -1 -1</clus>
<clus scale="   83.387">  1  5  2 -1</clus>
<clus scale="   86.069">  7  8 -1 -1</clus>
<clus scale="   83.387">  1  5  2 -1</clus>
</clustering>
</event>
<event>
 9    2  0.5684583E-005  0.9956423E+02  0.7546771E-02  0.1283143E+00
          2   -1    0    0  502    0  0.00000000000E+00  0.00000000000E+00  0.15358839288E+03  0.15358839288E+03  0.00000000000E+00 0. -1.
         -1   -1    0    0    0  501 -0.00000000000E+00 -0.00000000000E+00 -0.46582611682E+03  0.46582611682E+03  0.00000000000E+00 0.  1.
         24    2    1    2    0    0  0.58176018667E+02  0.32071021508E+02 -0.18169564553E+03  0.21263533690E+03  0.88246695818E+02 0.  0.
         23    2    1    2    0    0 -0.18545201361E+02 -0.30701338084E+02  0.11865854570E+03  0.15444322853E+03  0.92121461770E+02 0.  0.
        -13    1    3    3    0    0  0.38283759321E+02  0.33243022353E+02 -0.18553836882E+03  0.19234144397E+03  0.00000000000E+00 0.  1.
         14    1    3    3    0    0  0.19892259346E+02 -0.11720008445E+01  0.38427232892E+01  0.20293892927E+02  0.00000000000E+00 0. -1.
        -13    1    4    4    0    0 -0.21039893476E+02  0.21261966220E+02  0.62191244987E+01  0.30552018502E+02  0.00000000000E+00 0.  1.
         13    1    4    4    0    0  0.24946921152E+01 -0.51963304304E+02  0.11243942120E+03  0.12389121003E+03  0.00000000000E+00 0. -1.
         21    1    1    2  502  501 -0.39630817306E+02 -0.13696834238E+01 -0.24920062410E+03  0.25233594426E+03  0.00000000000E+00 0.  1.
<scales pt_clust_5="13000.00000" pt_clust_6="13000.00000" pt_clust_7="13000.00000" pt_clust_8="13000.00000" pt_clust_9="39.65448"></scales>
<clustering>
<clus scale="   39.654">  2  9  1 -1</clus>
<clus scale="   88.247">  5  6 -1 -1</clus>
<clus scale="   92.121">  7  8 -1 -1</clus>
<clus scale="   95.990">  2  5  1 -1</clus>
<clus scale="   99.564">  1  5  2 -1</clus>
</clustering>
</event>
<event>
 9    2  0.5684583E-005  0.9515251E+02  0.7546771E-02  0.1297947E+00
         -1   -1    0    0    0  501 -0.00000000000E+00  0.00000000000E+00  0.15167323656E+03  0.15167323656E+03  0.00000000000E+00 0.  1.
          2   -1    0    0  502    0  0.00000000000E+00 -0.00000000000E+00 -0.45514841715E+03  0.45514841715E+03  0.00000000000E+00 0. -1.
         23    2    1    2    0    0  0.23292921302E+02  0.17841154791E+01  0.11693730455E+03  0.15065011004E+03  0.92061822757E+02 0.  0.
         24    2    1    2    0    0 -0.11930484885E+02  0.21378102398E+02 -0.42213879683E+03  0.43031475635E+03  0.79813946230E+02 0.  0.
        -13    1    4    4    0    0 -0.15881365755E+02 -0.26582126134E+02 -0.10254304932E+03  0.10711631142E+03  0.00000000000E+00 0.  1.
         14    1    4    4    0    0  0.39508808699E+01  0.47960228533E+02 -0.31959574751E+03  0.32319844493E+03  0.00000000000E+00 0. -1.
        -13    1    3    3    0    0  0.13727534978E+02  0.40162868377E+02  0.22008345719E+02  0.47810757096E+02  0.00000000000E+00 0. -1.
         13    1    3    3    0    0  0.95653863248E+01 -0.38378752898E+02  0.94928958831E+02  0.10283935295E+03  0.00000000000E+00 0.  1.
         21    1    1    2  502  501 -0.11362436417E+02 -0.23162217878E+02  0.17263116837E+01  0.25856787317E+02  0.00000000000E+00 0.  1.
<scales pt_clust_5="13000.00000" pt_clust_6="13000.00000" pt_clust_7="13000.00000" pt_clust_8="13000.00000" pt_clust_9="25.79909"></scales>
<clustering>
<clus scale="   25.799">  1  9  2 -1</clus>
<clus scale="   79.814">  5  6 -1 -1</clus>
<clus scale="   83.360">  2  5  1 -1</clus>
<clus scale="   92.062">  7  8 -1 -1</clus>
<clus scale="   83.360">  2  5  1 -1</clus>
</clustering>
</event>
<event>
 9    2  0.5684583E-005  0.1440894E+03  0.7546771E-02  0.1230102E+00
         -1   -1    0    0    0  501 -0.00000000000E+00  0.00000000000E+00  0.71987492363E+03  0.71987492363E+03  0.00000000000E+00 0.  1.
          2   -1    0    0  502    0  0.00000000000E+00 -0.00000000000E+00 -0.94704346424E+02  0.94704346424E+02  0.00000000000E+00 0. -1.
         23    2    1    2    0    0  0.10180120794E+01 -0.78991862411E+01  0.31538168580E+03  0.32807779576E+03  0.90033320733E+02 0.  0.
         24    2    1    2    0    0 -0.11528371745E+03  0.31772612293E+02 -0.11200234099E+02  0.14494531407E+03  0.81141015685E+02 0.  0.
        -11    1    4    4    0    0 -0.42072096029E+01  0.31375691870E+02 -0.12029288673E+02  0.33865003158E+02  0.00000000000E+00 0.  1.
         12    1    4    4    0    0 -0.11107650784E+03  0.39692042386E+00  0.82905457390E+00  0.11108031091E+03  0.00000000000E+00 0. -1.
        -11    1    3    3    0    0  0.79700904318E+01  0.36760722008E+02  0.21106371666E+03  0.21438928498E+03  0.00000000000E+00 0.  1.
         11    1    3    3    0    0 -0.69520783523E+01 -0.44659908249E+02  0.10431796913E+03  0.11368851078E+03  0.00000000000E+00 0. -1.
         21    1    1    2  502  501  0.11426570537E+03 -0.23873426052E+02  0.32098912551E+03  0.34155616023E+03  0.00000000000E+00 0.  1.
<scales pt_clust_5="13000.00000" pt_clust_6="13000.00000" pt_clust_7="13000.00000" pt_clust_8="13000.00000" pt_clust_9="119.07095"></scales>
<clustering>
<clus scale="   81.141">  5  6 -1 -1</clus>
<clus scale="   90.033">  7  8 -1 -1</clus>
<clus scale="   90.385">  1  7  2 -1</clus>
<clus scale="  119.071">  1  9  2 -1</clus>
<clus scale="  144.089">  2  5  1 -1</clus>
</clustering>
</event>
<event>
 9    2  0.5684583E-005  0.1838657E+03  0.7546771E-02  0.1186279E+00
          2   -1    0    0  502    0  0.00000000000E+00  0.00000000000E+00  0.11015567091E+04  0.11015567091E+04  0.00000000000E+00 0. -1.
         -1   -1    0    0    0  501 -0.00000000000E+00 -0.00000000000E+00 -0.11730549601E+03  0.11730549601E+03  0.00000000000E+00 0.  1.
         24    2    1    2    0    0 -0.25625950322E+02 -0.69361539959E+02 -0.31144432774E+02  0.11552199750E+03  0.83112235312E+02 0.  0.
         23    2    1    2    0    0 -0.14494853934E+03  0.73653678053E+02  0.83428907300E+03  0.85451563143E+03  0.87884945704E+02 0.  0.
        -11    1    3    3    0    0 -0.48206256921E+02 -0.73673665711E+02 -0.21764943781E+02  0.90693798043E+02  0.00000000000E+00 0.  1.
         12    1    3    3    0    0  0.22580306599E+02  0.43121257513E+01 -0.93794889932E+01  0.24828199459E+02  0.00000000000E+00 0. -1.
        -11    1    4    4    0    0 -0.30222283409E+01  0.35387083941E+02  0.11496563443E+03  0.12032654186E+03  0.00000000000E+00 0.  1.
         11    1    4    4    0    0 -0.14192631100E+03  0.38266594112E+02  0.71932343857E+03  0.73418908957E+03  0.00000000000E+00 0. -1.
         21    1    1    2  502  501  0.17057448966E+03 -0.42921380934E+01  0.18110657286E+03  0.24882457617E+03  0.00000000000E+00 0.  1.
<scales pt_clust_5="13000.00000" pt_clust_6="13000.00000" pt_clust_7="13000.00000" pt_clust_8="13000.00000" pt_clust_9="161.50175"></scales>
<clustering>
<clus scale="   83.112">  5  6 -1 -1</clus>
<clus scale="   87.885">  7  8 -1 -1</clus>
<clus scale="  111.245">  2  5  1 -1</clus>
<clus scale="  161.502">  2  9  1 -1</clus>
<clus scale="  183.866">  1  5  2 -1</clus>
</clustering>
</event>
<event>
 9    2  0.5684583E-005  0.9406190E+02  0.7546771E-02  0.1296540E+00
          4   -1    0    0  502    0  0.00000000000E+00  0.00000000000E+00  0.10228774177E+03  0.10228774177E+03  0.00000000000E+00 0. -1.
         -3   -1    0    0    0  501 -0.00000000000E+00 -0.00000000000E+00 -0.32439220139E+03  0.32439220139E+03  0.00000000000E+00 0.  1.
         24    2    1    2    0    0 -0.15767432479E+02 -0.58072835437E+01 -0.15811489188E+03  0.18041284012E+03  0.85241641109E+02 0.  0.
         23    2    1    2    0    0  0.21790881021E+01 -0.28188483687E+02  0.62949371750E+02  0.11415408456E+03  0.90935100923E+02 0.  0.
        -13    1    3    3    0    0 -0.12704929197E+02 -0.29636841681E+02 -0.15232356841E+03  0.15569915576E+03  0.00000000000E+00 0.  1.
         14    1    3    3    0    0 -0.30625032816E+01  0.23829558137E+02 -0.57913234656E+01  0.24713684364E+02  0.00000000000E+00 0. -1.
        -13    1    4    4    0    0  0.38610959360E+02 -0.35945511764E+02  0.17916461632E+02  0.55712526385E+02  0.00000000000E+00 0. -1.
         13    1    4    4    0    0 -0.36431871258E+02  0.77570280778E+01  0.45032910118E+02  0.58441558173E+02  0.00000000000E+00 0.  1.
         21    1    1    2  502  501  0.13588344377E+02  0.33995767230E+02 -0.12693893949E+03  0.13211301848E+03  0.00000000000E+00 0. -1.
<scales pt_clust_5="13000.00000" pt_clust_6="13000.00000" pt_clust_7="13000.00000" pt_clust_8="13000.00000" pt_clust_9="36.61086"></scales>
<clustering>
<clus scale="   36.611">  2  9  1 -1</clus>
<clus scale="   85.242">  5  6 -1 -1</clus>
<clus scale="   88.570">  2  5  1 -1</clus>
<clus scale="   90.935">  7  8 -1 -1</clus>
<clus scale="   94.062">  1  5  2 -1</clus>
</clustering>
</event>
<event>
 9    2  0.5684583E-005  0.8629205E+02  0.7546771E-02  0.1312165E+00
         -1   -1    0    0    0  501 -0.00000000000E+00  0.00000000000E+00  0.76035548376E+02  0.76035548376E+02  0.00000000000E+00 0.  1.
          2   -1    0    0  502    0  0.00000000000E+00 -0.00000000000E+00 -0.20278042432E+04  0.20278042432E+04  0.00000000000E+00 0. -1.
         23    2    1    2    0    0 -0.44961962728E+01 -0.41549919842E+02  0.39294107614E+02  0.10006799166E+03  0.81993685373E+02 0.  0.
         24    2    1    2    0    0 -0.14881075722E+02  0.22315981013E+02 -0.19620211346E+04  0.19639115247E+04  0.81866321935E+02 0.  0.
        -13    1    4    4    0    0  0.21423348920E+01  0.20101338170E+02 -0.11193576616E+03  0.11374651266E+03  0.00000000000E+00 0.  1.
         14    1    4    4    0    0 -0.17023410614E+02  0.22146428438E+01 -0.18500853684E+04  0.18501650120E+04  0.00000000000E+00 0. -1.
        -11    1    3    3    0    0 -0.36373080936E+02 -0.28973413613E+02  0.45707867010E+02  0.65204822059E+02  0.00000000000E+00 0.  1.
         11    1    3    3    0    0  0.31876884663E+02 -0.12576506229E+02 -0.64137593962E+01  0.34863169597E+02  0.00000000000E+00 0. -1.
         21    1    1    2  502  501  0.19377271995E+02  0.19233938829E+02 -0.29041667844E+02  0.39860275262E+02  0.00000000000E+00 0. -1.
<scales pt_clust_5="13000.00000" pt_clust_6="13000.00000" pt_clust_7="13000.00000" pt_clust_8="13000.00000" pt_clust_9="27.30244"></scales>
<clustering>
<clus scale="   27.302">  1  9  2 -1</clus>
<clus scale="   81.866">  5  6 -1 -1</clus>
<clus scale="   81.994">  7  8 -1 -1</clus>
<clus scale="   86.171">  2  5  1 -1</clus>
<clus scale="   86.171">  2  5  1 -1</clus>
</clustering>
</event>
<event>
 9    2  0.5684583E-005  0.1278178E+03  0.7546771E-02  0.1234084E+00
         -1   -1    0    0    0  501 -0.00000000000E+00  0.00000000000E+00  0.11029575115E+03  0.11029575115E+03  0.00000000000E+00 0.  1.
          2   -1    0    0  502    0  0.00000000000E+00 -0.00000000000E+00 -0.34962621404E+03  0.34962621404E+03  0.00000000000E+00 0. -1.
         24    2    1    2    0    0  0.58933205516E+02 -0.50153275207E+02  0.54441873019E+02  0.12426268617E+03  0.80553236503E+02 0.  0.
         23    2    1    2    0    0 -0.79974448717E+02  0.41181974478E+02 -0.28145014667E+03  0.30967746808E+03  0.92704270156E+02 0.  0.
        -11    1    3    3    0    0  0.14726380697E+02  0.21616881831E+02  0.52880903028E+01  0.26685572274E+02  0.00000000000E+00 0.  1.
         12    1    3    3    0    0  0.44206824819E+02 -0.71770157038E+02  0.49153782716E+02  0.97577113901E+02  0.00000000000E+00 0. -1.
        -13    1    4    4    0    0 -0.78809184909E+02 -0.58488440563E+01 -0.20741247045E+03  0.22195726954E+03  0.00000000000E+00 0. -1.
         13    1    4    4    0    0 -0.11652638078E+01  0.47030818535E+02 -0.74037676223E+02  0.87720198543E+02  0.00000000000E+00 0.  1.
         21    1    1    2  502  501  0.21041243201E+02  0.89713007290E+01 -0.12322189230E+02  0.25981810939E+02  0.00000000000E+00 0.  1.
<scales pt_clust_5="13000.00000" pt_clust_6="13000.00000" pt_clust_7="13000.00000" pt_clust_8="13000.00000" pt_clust_9="22.87396"></scales>
<clustering>
<clus scale="   22.874">  1  9  2 -1</clus>
<clus scale="   80.553">  5  6 -1 -1</clus>
<clus scale="   92.704">  7  8 -1 -1</clus>
<clus scale="  119.299">  1  5  2 -1</clus>
<clus scale="  127.818">  2  5  1 -1</clus>
</clustering>
</event>
<event>
 9    2  0.5684583E-005  0.1180012E+03  0.7546771E-02  0.1260025E+00
         -1   -1    0    0    0  501 -0.00000000000E+00  0.00000000000E+00  0.55401095753E+02  0.55401095753E+02  0.00000000000E+00 0.  1.
          2   -1    0    0  502    0  0.00000000000E+00 -0.00000000000E+00 -0.80993985363E+03  0.80993985363E+03  0.00000000000E+00 0. -1.
         23    2    1    2    0    0  0.26569928011E+02 -0.11535706407E+02 -0.24411944105E+02  0.11654957639E+03  0.11022171812E+03 0.  0.
         24    2    1    2    0    0 -0.26084766046E+02  0.34401496748E+02 -0.71643498780E+03  0.72213530711E+03  0.79601708715E+02 0.  0.
        -13    1    4    4    0    0  0.27170864053E+02  0.88171024019E+01 -0.15592494941E+03  0.15851998926E+03  0.00000000000E+00 0.  1.
         14    1    4    4    0    0 -0.53255630099E+02  0.25584394346E+02 -0.56051003839E+03  0.56361531785E+03  0.00000000000E+00 0. -1.
        -11    1    3    3    0    0 -0.26871299070E+02 -0.22707733068E+02 -0.45938623914E+02  0.57862466434E+02  0.00000000000E+00 0. -1.
         11    1    3    3    0    0  0.53441227080E+02  0.11172026661E+02  0.21526679808E+02  0.58687109957E+02  0.00000000000E+00 0.  1.
         21    1    1    2  502  501 -0.48516196475E+00 -0.22865790341E+02 -0.13691825976E+02  0.26656065888E+02  0.00000000000E+00 0. -1.
<scales pt_clust_5="13000.00000" pt_clust_6="13000.00000" pt_clust_7="13000.00000" pt_clust_8="13000.00000" pt_clust_9="22.87094"></scales>
<clustering>
<clus scale="   22.871">  1  9  2 -1</clus>
<clus scale="   79.602">  5  6 -1 -1</clus>
<clus scale="   90.066">  2  5  1 -1</clus>
<clus scale="  110.222">  7  8 -1 -1</clus>
<clus scale="   90.066">  2  5  1 -1</clus>
</clustering>
</event>
<event>
 9    2  0.5684583E-005  0.9512651E+02  0.7546771E-02  0.1296440E+00
          4   -1    0    0  502    0  0.00000000000E+00  0.00000000000E+00  0.14012169798E+03  0.14012169798E+03  0.00000000000E+00 0. -1.
         -3   -1    0    0    0  501 -0.00000000000E+00 -0.00000000000E+00 -0.15040627446E+03  0.15040627446E+03  0.00000000000E+00 0.  1.
         23    2    1    2    0    0 -0.42542432664E+02 -0.33710591293E+02 -0.37708935296E+02  0.11093403782E+03  0.89096208693E+02 0.  0.
         24    2    1    2    0    0 -0.43081278009E+02  0.28390733648E+02  0.27298483460E+02  0.93805027647E+02  0.73431231371E+02 0.  0.
        -11    1    4    4    0    0 -0.16527293688E+02 -0.15364478542E+02 -0.15259235982E+02  0.27240831857E+02  0.00000000000E+00 0.  1.
         12    1    4    4    0    0 -0.26553984321E+02  0.43755212190E+02  0.42557719442E+02  0.66564195790E+02  0.00000000000E+00 0. -1.
        -13    1    3    3    0    0 -0.13566656139E+02 -0.30492150902E+02 -0.63676321812E+02  0.71892276253E+02  0.00000000000E+00 0.  1.
         13    1    3    3    0    0 -0.28975776525E+02 -0.32184403915E+01  0.25967386515E+02  0.39041761566E+02  0.00000000000E+00 0. -1.
         21    1    1    2  502  501  0.85623710672E+02  0.53198576458E+01  0.12587536253E+00  0.85788906971E+02  0.00000000000E+00 0.  1.
<scales pt_clust_5="13000.00000" pt_clust_6="13000.00000" pt_clust_7="13000.00000" pt_clust_8="13000.00000" pt_clust_9="85.78881"></scales>
<clustering>
<clus scale="   73.431">  5  6 -1 -1</clus>
<clus scale="   85.789">  1  9  2 -1</clus>
<clus scale="   85.789">  1  5  2 -1</clus>
<clus scale="   89.096">  7  8 -1 -1</clus>
<clus scale="   85.789">  1  5  2 -1</clus>
</clustering>
</event>
<event>
 9    2  0.5684583E-005  0.1496874E+03  0.7546771E-02  0.1203089E+00
          2   -1    0    0  502    0  0.00000000000E+00  0.00000000000E+00  0.32548442931E+03  0.32548442931E+03  0.00000000000E+00 0. -1.
         -1   -1    0    0    0  501 -0.00000000000E+00 -0.00000000000E+00 -0.84624799069E+02  0.84624799069E+02  0.00000000000E+00 0.  1.
         24    2    1    2    0    0 -0.90278381837E+02  0.43878471359E+02  0.65809531963E+02  0.14367691792E+03  0.78972500093E+02 0.  0.
         23    2    1    2    0    0  0.12651563274E+03 -0.49754264103E+02  0.14995545745E+03  0.22196429620E+03  0.91103333874E+02 0.  0.
        -13    1    3    3    0    0 -0.52217669002E+02 -0.11727180904E+02  0.65042960942E+01  0.53912128465E+02  0.00000000000E+00 0.  1.
         14    1    3    3    0    0 -0.38060712836E+02  0.55605652263E+02  0.59305235869E+02  0.89764789459E+02  0.00000000000E+00 0. -1.
        -11    1    4    4    0    0  0.12808441254E+03 -0.23356967184E+02  0.14532743396E+03  0.19511849660E+03  0.00000000000E+00 0. -1.
         11    1    4    4    0    0 -0.15687798007E+01 -0.26397296919E+02  0.46280234855E+01  0.26845799598E+02  0.00000000000E+00 0.  1.
         21    1    1    2  502  501 -0.36237250906E+02  0.58757927445E+01  0.25094640826E+02  0.44468014255E+02  0.00000000000E+00 0. -1.
<scales pt_clust_5="13000.00000" pt_clust_6="13000.00000" pt_clust_7="13000.00000" pt_clust_8="13000.00000" pt_clust_9="36.71053"></scales>
<clustering>
<clus scale="   36.711">  2  9  1 -1</clus>
<clus scale="   78.973">  5  6 -1 -1</clus>
<clus scale="   91.103">  7  8 -1 -1</clus>
<clus scale="  142.629">  2  5  1 -1</clus>
<clus scale="  149.687">  1  5  2 -1</clus>
</clustering>
</event>
<event>
 9    2  0.5684583E-005  0.1080503E+03  0.7546771E-02  0.1267820E+00
         -1   -1    0    0    0  501 -0.00000000000E+00  0.00000000000E+00  0.63537927806E+02  0.63537927806E+02  0.00000000000E+00 0.  1.
          2   -1    0    0  502    0  0.00000000000E+00 -0.00000000000E+00 -0.36719737563E+03  0.36719737563E+03  0.00000000000E+00 0. -1.
         23    2    1    2    0    0  0.33003172380E+02  0.20944455726E+01 -0.19166170038E+02  0.98041376993E+02  0.90283849271E+02 0.  0.
         24    2    1    2    0    0 -0.65565493229E+02  0.44435535253E+01 -0.28033864405E+03  0.29922287697E+03  0.81400219177E+02 0.  0.
        -11    1    4    4    0    0 -0.17691028705E+02  0.39741571640E+02 -0.14512963252E+03  0.15150899395E+03  0.00000000000E+00 0.  1.
         12    1    4    4    0    0 -0.47874464524E+02 -0.35298018114E+02 -0.13520901153E+03  0.14771388302E+03  0.00000000000E+00 0. -1.
        -13    1    3    3    0    0  0.38627078593E+02 -0.32737036528E+02 -0.32674819144E+02  0.60261169647E+02  0.00000000000E+00 0.  1.
         13    1    3    3    0    0 -0.56239062120E+01  0.34831482100E+02  0.13508649106E+02  0.37780207345E+02  0.00000000000E+00 0. -1.
         21    1    1    2  502  501  0.32562320848E+02 -0.65379990979E+01 -0.41546337296E+01  0.33471049471E+02  0.00000000000E+00 0.  1.
<scales pt_clust_5="13000.00000" pt_clust_6="13000.00000" pt_clust_7="13000.00000" pt_clust_8="13000.00000" pt_clust_9="33.21220"></scales>
<clustering>
<clus scale="   33.212">  1  9  2 -1</clus>
<clus scale="   81.400">  5  6 -1 -1</clus>
<clus scale="   90.284">  7  8 -1 -1</clus>
<clus scale="  100.746">  2  5  1 -1</clus>
<clus scale="  100.746">  2  5  1 -1</clus>
</clustering>
</event>
<event>
 9    2  0.5684583E-005  0.1103010E+03  0.7546771E-02  0.1263032E+00
         -1   -1    0    0    0  501 -0.00000000000E+00  0.00000000000E+00  0.22189800083E+03  0.22189800083E+03  0.00000000000E+00 0.  1.
          2   -1    0    0  502    0  0.00000000000E+00 -0.00000000000E+00 -0.41054517943E+03  0.41054517943E+03  0.00000000000E+00 0. -1.
         23    2    1    2    0    0  0.33288083280E+02 -0.18685930866E+02  0.18356054463E+03  0.20876444812E+03  0.91819718760E+02 0.  0.
         24    2    1    2    0    0 -0.29932058779E+02  0.54485525887E+02 -0.37333286517E+03  0.38770457685E+03  0.84100000108E+02 0.  0.
        -11    1    4    4    0    0 -0.16088756272E+02  0.34440677318E+02 -0.46930269185E+02  0.60394192587E+02  0.00000000000E+00 0.  1.
         12    1    4    4    0    0 -0.13843302507E+02  0.20044848569E+02 -0.32640259599E+03  0.32731038426E+03  0.00000000000E+00 0. -1.
        -13    1    3    3    0    0  0.61062280190E+02 -0.26033088608E+02  0.15321447970E+03  0.16697604784E+03  0.00000000000E+00 0.  1.
         13    1    3    3    0    0 -0.27774196910E+02  0.73471577417E+01  0.30346064939E+02  0.41788400282E+02  0.00000000000E+00 0. -1.
         21    1    1    2  502  501 -0.33560245007E+01 -0.35799595021E+02  0.11251419364E+01  0.35974155285E+02  0.00000000000E+00 0.  1.
<scales pt_clust_5="13000.00000" pt_clust_6="13000.00000" pt_clust_7="13000.00000" pt_clust_8="13000.00000" pt_clust_9="35.95656"></scales>
<clustering>
<clus scale="   35.957">  1  9  2 -1</clus>
<clus scale="   84.100">  5  6 -1 -1</clus>
<clus scale="   91.820">  7  8 -1 -1</clus>
<clus scale="  103.963">  2  5  1 -1</clus>
<clus scale="  103.963">  2  5  1 -1</clus>
</clustering>
</event>
<event>
 9    2  0.5684583E-005  0.3277831E+03  0.7546771E-02  0.1100487E+00
          2   -1    0    0  502    0  0.00000000000E+00  0.00000000000E+00  0.45202815956E+03  0.45202815956E+03  0.00000000000E+00 0. -1.
         -1   -1    0    0    0  501 -0.00000000000E+00 -0.00000000000E+00 -0.63176052565E+03  0.63176052565E+03  0.00000000000E+00 0.  1.
         23    2    1    2    0    0  0.93722294544E+02  0.80454967222E+02 -0.28117973080E+03  0.32060492482E+03  0.92025032244E+02 0.  0.
         24    2    1    2    0    0 -0.19566198509E+03  0.23253835961E+03 -0.15149586855E+03  0.34804908056E+03  0.76350921355E+02 0.  0.
        -13    1    4    4    0    0 -0.34807318349E+02  0.84861888264E+02 -0.22544351029E+02  0.94452830840E+02  0.00000000000E+00 0.  1.
         14    1    4    4    0    0 -0.16085466674E+03  0.14767647135E+03 -0.12895151752E+03  0.25359624972E+03  0.00000000000E+00 0. -1.
        -11    1    3    3    0    0  0.90967962885E+02  0.22256550285E+02 -0.19821785650E+03  0.21922783340E+03  0.00000000000E+00 0.  1.
         11    1    3    3    0    0  0.27543316589E+01  0.58198416937E+02 -0.82961874297E+02  0.10137709141E+03  0.00000000000E+00 0. -1.
         21    1    1    2  502  501  0.10193969055E+03 -0.31299332684E+03  0.25294323325E+03  0.41513467983E+03  0.00000000000E+00 0.  1.
<scales pt_clust_5="13000.00000" pt_clust_6="13000.00000" pt_clust_7="13000.00000" pt_clust_8="13000.00000" pt_clust_9="318.76684"></scales>
<clustering>
<clus scale="   76.351">  5  6 -1 -1</clus>
<clus scale="   92.025">  7  8 -1 -1</clus>
<clus scale="  154.031">  2  7  1 -1</clus>
<clus scale="  318.767">  1  9  2 -1</clus>
<clus scale="  318.767">  1  5  2 -1</clus>
</clustering>
</event>
<event>
 9    2  0.5684583E-005  0.1065629E+03  0.7546771E-02  0.1271316E+00
         -1   -1    0    0    0  501 -0.00000000000E+00  0.00000000000E+00  0.17627911446E+03  0.17627911446E+03  0.00000000000E+00 0.  1.
          2   -1    0    0  502    0  0.00000000000E+00 -0.00000000000E+00 -0.44664775393E+03  0.44664775393E+03  0.00000000000E+00 0. -1.
         23    2    1    2    0    0  0.17115003299E+02  0.18200628735E+02  0.10841224756E+03  0.14358220215E+03  0.90765891879E+02 0.  0.
         24    2    1    2    0    0 -0.38272913950E+02 -0.42574518037E+02 -0.41742419595E+03  0.42899539627E+03  0.80725987974E+02 0.  0.
        -13    1    4    4    0    0 -0.28624553458E+02 -0.10268677235E+02 -0.40911305579E+02  0.50975932724E+02  0.00000000000E+00 0.  1.
         14    1    4    4    0    0 -0.96483604918E+01 -0.32305840802E+02 -0.37651289037E+03  0.37801946355E+03  0.00000000000E+00 0. -1.
        -11    1    3    3    0    0  0.49214402537E+02  0.80100802374E+01  0.95079844160E+02  0.10736105238E+03  0.00000000000E+00 0.  1.
         11    1    3    3    0    0 -0.32099399239E+02  0.10190548497E+02  0.13332403399E+02  0.36221149768E+02  0.00000000000E+00 0. -1.
         21    1    1    2  502  501  0.21157910651E+02  0.24373889303E+02  0.38643308919E+02  0.50349269976E+02  0.00000000000E+00 0. -1.
<scales pt_clust_5="13000.00000" pt_clust_6="13000.00000" pt_clust_7="13000.00000" pt_clust_8="13000.00000" pt_clust_9="32.27605"></scales>
<clustering>
<clus scale="   32.276">  1  9  2 -1</clus>
<clus scale="   80.726">  5  6 -1 -1</clus>
<clus scale="   90.766">  7  8 -1 -1</clus>
<clus scale="   98.152">  2  5  1 -1</clus>
<clus scale="   98.152">  2  5  1 -1</clus>
</clustering>
</event>
<event>
 9    2  0.5684583E-005  0.1112489E+03  0.7546771E-02  0.1262426E+00
          2   -1    0    0  502    0  0.00000000000E+00  0.00000000000E+00  0.69252224866E+03  0.69252224866E+03  0.00000000000E+00 0. -1.
         -1   -1    0    0    0  501 -0.00000000000E+00 -0.00000000000E+00 -0.12306662601E+03  0.12306662601E+03  0.00000000000E+00 0.  1.
         24    2    1    2    0    0 -0.36201535446E+02  0.39439368110E+01  0.11142666459E+03  0.14118882967E+03  0.78691030209E+02 0.  0.
         23    2    1    2    0    0  0.77933401620E+02 -0.59837680746E+01  0.55562939018E+03  0.56823247029E+03  0.89747983218E+02 0.  0.
        -13    1    3    3    0    0 -0.37746500530E+02  0.37425764957E+02  0.66348811940E+02  0.85015592868E+02  0.00000000000E+00 0.  1.
         14    1    3    3    0    0  0.15449650840E+01 -0.33481828146E+02  0.45077852654E+02  0.56173236803E+02  0.00000000000E+00 0. -1.
        -11    1    4    4    0    0 -0.17681078411E+02  0.11395890679E+02  0.12647647312E+03  0.12821382574E+03  0.00000000000E+00 0.  1.
         11    1    4    4    0    0  0.95614480031E+02 -0.17379658754E+02  0.42915291706E+03  0.44001864455E+03  0.00000000000E+00 0. -1.
         21    1    1    2  502  501 -0.41731866175E+02  0.20398312636E+01 -0.97600432133E+02  0.10616757470E+03  0.00000000000E+00 0.  1.
<scales pt_clust_5="13000.00000" pt_clust_6="13000.00000" pt_clust_7="13000.00000" pt_clust_8="13000.00000" pt_clust_9="41.78169"></scales>
<clustering>
<clus scale="   41.782">  2  9  1 -1</clus>
<clus scale="   78.691">  5  6 -1 -1</clus>
<clus scale="   89.748">  7  8 -1 -1</clus>
<clus scale="  102.537">  2  5  1 -1</clus>
<clus scale="  111.249">  1  5  2 -1</clus>
</clustering>
</event>
<event>
 9    2  0.5684583E-005  0.1244439E+03  0.7546771E-02  0.1238704E+00
          2   -1    0    0  502    0  0.00000000000E+00  0.00000000000E+00  0.22106129791E+03  0.22106129791E+03  0.00000000000E+00 0. -1.
         -1   -1    0    0    0  501 -0.00000000000E+00 -0.00000000000E+00 -0.56073100362E+03  0.56073100362E+03  0.00000000000E+00 0.  1.
         23    2    1    2    0    0 -0.97787974517E+02 -0.16448775685E+03 -0.30479807126E+03  0.37122795091E+03  0.91047334826E+02 0.  0.
         24    2    1    2    0    0  0.36472933174E+02  0.70032921844E+02  0.15363045052E+03  0.19098683314E+03  0.81478648167E+02 0.  0.
        -11    1    4    4    0    0  0.30520205924E+02 -0.10080218954E+02  0.55846709156E+02  0.64435616761E+02  0.00000000000E+00 0.  1.
         12    1    4    4    0    0  0.59527272503E+01  0.80113140798E+02  0.97783741366E+02  0.12655121637E+03  0.00000000000E+00 0. -1.
        -11    1    3    3    0    0  0.16732845442E+02 -0.11413832494E+02 -0.22316902592E+02  0.30138145764E+02  0.00000000000E+00 0. -1.
         11    1    3    3    0    0 -0.11452081996E+03 -0.15307392435E+03 -0.28248116867E+03  0.34108980514E+03  0.00000000000E+00 0.  1.
         21    1    1    2  502  501  0.61315041343E+02  0.94454835002E+02 -0.18850208497E+03  0.21957751749E+03  0.00000000000E+00 0. -1.
<scales pt_clust_5="13000.00000" pt_clust_6="13000.00000" pt_clust_7="13000.00000" pt_clust_8="13000.00000" pt_clust_9="112.61106"></scales>
<clustering>
<clus scale="   81.479">  5  6 -1 -1</clus>
<clus scale="   91.047">  7  8 -1 -1</clus>
<clus scale="  112.611">  2  9  1 -1</clus>
<clus scale="  117.624">  1  5  2 -1</clus>
<clus scale="  117.624">  1  5  2 -1</clus>
</clustering>
</event>
<event>
 9    2  0.5684583E-005  0.1164875E+03  0.7546771E-02  0.1253674E+00
         -1   -1    0    0    0  501 -0.00000000000E+00  0.00000000000E+00  0.12841155466E+03  0.12841155466E+03  0.00000000000E+00 0.  1.
          2   -1    0    0  502    0  0.00000000000E+00 -0.00000000000E+00 -0.25811804155E+03  0.25811804155E+03  0.00000000000E+00 0. -1.
         24    2    1    2    0    0  0.65500602681E+02  0.82621224444E+02 -0.17806367297E+02  0.13384337306E+03  0.80500845433E+02 0.  0.
         23    2    1    2    0    0 -0.80488028964E+01 -0.59906701573E+02 -0.14473857900E+03  0.18272178029E+03  0.93725111999E+02 0.  0.
        -13    1    3    3    0    0  0.72362283099E+01  0.66005223673E+02  0.10053619154E+02  0.67157485140E+02  0.00000000000E+00 0.  1.
         14    1    3    3    0    0  0.58264374371E+02  0.16616000771E+02 -0.27859986451E+02  0.66685887919E+02  0.00000000000E+00 0. -1.
        -13    1    4    4    0    0 -0.19794600988E+02 -0.34137982311E+02 -0.14895197524E+03  0.15409061941E+03  0.00000000000E+00 0. -1.
         13    1    4    4    0    0  0.11745798091E+02 -0.25768719262E+02  0.42133962350E+01  0.28631160875E+02  0.00000000000E+00 0.  1.
         21    1    1    2  502  501 -0.57451799785E+02 -0.22714522871E+02  0.32838459413E+02  0.69964442858E+02  0.00000000000E+00 0.  1.
<scales pt_clust_5="13000.00000" pt_clust_6="13000.00000" pt_clust_7="13000.00000" pt_clust_8="13000.00000" pt_clust_9="61.77911"></scales>
<clustering>
<clus scale="   61.779">  1  9  2 -1</clus>
<clus scale="   80.501">  5  6 -1 -1</clus>
<clus scale="   93.725">  7  8 -1 -1</clus>
<clus scale="  106.138">  1  5  2 -1</clus>
<clus scale="  116.488">  2  5  1 -1</clus>
</clustering>
</event>
<event>
 9    2  0.5684583E-005  0.9860848E+02  0.7546771E-02  0.1286579E+00
         -1   -1    0    0    0  501 -0.00000000000E+00  0.00000000000E+00  0.13336666350E+03  0.13336666350E+03  0.00000000000E+00 0.  1.
          2   -1    0    0  502    0  0.00000000000E+00 -0.00000000000E+00 -0.11038064356E+04  0.11038064356E+04  0.00000000000E+00 0. -1.
         23    2    1    2    0    0  0.33481475896E+02  0.32266374312E+02  0.85439272261E+02  0.12995734508E+03  0.86179546038E+02 0.  0.
         24    2    1    2    0    0 -0.46723324458E+02 -0.11285066498E+02 -0.10730489183E+04  0.10770434753E+04  0.79235376281E+02 0.  0.
        -13    1    4    4    0    0 -0.18484002675E+02 -0.19159706937E+02 -0.97936289815E+02  0.10149024380E+03  0.00000000000E+00 0.  1.
         14    1    4    4    0    0 -0.28239321783E+02  0.78746404394E+01 -0.97511262847E+03  0.97555323149E+03  0.00000000000E+00 0. -1.
        -13    1    3    3    0    0  0.16646491898E+02  0.55764446289E+02  0.82418018302E+02  0.10089355234E+03  0.00000000000E+00 0.  1.
         13    1    3    3    0    0  0.16834983998E+02 -0.23498071977E+02  0.30212539591E+01  0.29063792738E+02  0.00000000000E+00 0. -1.
         21    1    1    2  502  501  0.13241848561E+02 -0.20981307815E+02  0.17169873951E+02  0.30172278708E+02  0.00000000000E+00 0. -1.
<scales pt_clust_5="13000.00000" pt_clust_6="13000.00000" pt_clust_7="13000.00000" pt_clust_8="13000.00000" pt_clust_9="24.81052"></scales>
<clustering>
<clus scale="   24.811">  1  9  2 -1</clus>
<clus scale="   79.235">  5  6 -1 -1</clus>
<clus scale="   86.180">  7  8 -1 -1</clus>
<clus scale="   92.601">  2  5  1 -1</clus>
<clus scale="   92.601">  2  5  1 -1</clus>
</clustering>
</event>
<event>
 9    2  0.5684583E-005  0.9084765E+02  0.7546771E-02  0.1302763E+00
         -1   -1    0    0    0  501 -0.00000000000E+00  0.00000000000E+00  0.18153747639E+03  0.18153747639E+03  0.00000000000E+00 0.  1.
          2   -1    0    0  502    0  0.00000000000E+00 -0.00000000000E+00 -0.12994078633E+03  0.12994078633E+03  0.00000000000E+00 0. -1.
         23    2    1    2    0    0 -0.16697021218E+02 -0.61067682505E+01  0.49211472441E+02  0.99039793521E+02  0.84089408042E+02 0.  0.
         24    2    1    2    0    0  0.37030089155E+02  0.11267995652E+02 -0.84511524281E+02  0.12304542879E+03  0.80621241494E+02 0.  0.
        -13    1    4    4    0    0 -0.21412923574E+02  0.90523892725E+01 -0.40874678006E+01  0.23604373335E+02  0.00000000000E+00 0.  1.
         14    1    4    4    0    0  0.58443012729E+02  0.22156063793E+01 -0.80424056480E+02  0.99441055451E+02  0.00000000000E+00 0. -1.
        -13    1    3    3    0    0 -0.46668922827E+02 -0.12074881632E+02  0.48630132030E+02  0.68473942968E+02  0.00000000000E+00 0.  1.
         13    1    3    3    0    0  0.29971901609E+02  0.59681133811E+01  0.58134041067E+00  0.30565850554E+02  0.00000000000E+00 0. -1.
         21    1    1    2  502  501 -0.20333067937E+02 -0.51612274013E+01  0.86896741907E+02  0.89393040411E+02  0.00000000000E+00 0.  1.
<scales pt_clust_5="13000.00000" pt_clust_6="13000.00000" pt_clust_7="13000.00000" pt_clust_8="13000.00000" pt_clust_9="20.97789"></scales>
<clustering>
<clus scale="   20.978">  1  9  2 -1</clus>
<clus scale="   80.621">  5  6 -1 -1</clus>
<clus scale="   84.089">  7  8 -1 -1</clus>
<clus scale="   87.647">  2  5  1 -1</clus>
<clus scale="   87.647">  2  5  1 -1</clus>
</clustering>
</event>
<event>
 9    2  0.5684583E-005  0.1408385E+03  0.7546771E-02  0.1232021E+00
         -1   -1    0    0    0  501 -0.00000000000E+00  0.00000000000E+00  0.59209703401E+03  0.59209703401E+03  0.00000000000E+00 0.  1.
          2   -1    0    0  502    0  0.00000000000E+00 -0.00000000000E+00 -0.55748862448E+02  0.55748862448E+02  0.00000000000E+00 0. -1.
         23    2    1    2    0    0  0.43337442157E+02  0.52947902816E+02  0.14562690253E+03  0.18988288077E+03  0.10083005190E+03 0.  0.
         24    2    1    2    0    0  0.41486530098E+02  0.18859136136E+02  0.64175994128E+02  0.11302363887E+03  0.81110945783E+02 0.  0.
        -13    1    4    4    0    0  0.51157555388E+01 -0.24297984745E+02  0.48437562706E+02  0.54431245607E+02  0.00000000000E+00 0.  1.
         14    1    4    4    0    0  0.36370774559E+02  0.43157120881E+02  0.15738431422E+02  0.58592393264E+02  0.00000000000E+00 0. -1.
        -11    1    3    3    0    0  0.29097538036E+02 -0.46240567067E+01 -0.32370876608E+01  0.29639962157E+02  0.00000000000E+00 0.  1.
         11    1    3    3    0    0  0.14239904121E+02  0.57571959522E+02  0.14886399019E+03  0.16024291862E+03  0.00000000000E+00 0. -1.
         21    1    1    2  502  501 -0.84823972255E+02 -0.71807038952E+02  0.32654527491E+03  0.34493937682E+03  0.00000000000E+00 0.  1.
<scales pt_clust_5="13000.00000" pt_clust_6="13000.00000" pt_clust_7="13000.00000" pt_clust_8="13000.00000" pt_clust_9="98.33000"></scales>
<clustering>
<clus scale="   81.111">  5  6 -1 -1</clus>
<clus scale="   93.036">  2  5  1 -1</clus>
<clus scale="   98.330">  1  9  2 -1</clus>
<clus scale="  100.830">  7  8 -1 -1</clus>
<clus scale="   93.036">  2  5  1 -1</clus>
</clustering>
</event>
<event>
 9    2  0.5684583E-005  0.3184890E+03  0.7546771E-02  0.1098111E+00
          2   -1    0    0  502    0  0.00000000000E+00  0.00000000000E+00  0.11098425316E+04  0.11098425316E+04  0.00000000000E+00 0. -1.
         -1   -1    0    0    0  501 -0.00000000000E+00 -0.00000000000E+00 -0.19369760094E+03  0.19369760094E+03  0.00000000000E+00 0.  1.
         23    2    1    2    0    0 -0.77539676420E+02  0.13023506932E+03 -0.39158779189E+01  0.17865143976E+03  0.94485068280E+02 0.  0.
         24    2    1    2    0    0  0.32889620777E+03 -0.18691866635E+03  0.59818929732E+03  0.71258491426E+03  0.82677211413E+02 0.  0.
        -13    1    4    4    0    0  0.77908910981E+02 -0.79003283578E+01  0.10537676811E+03  0.13128776354E+03  0.00000000000E+00 0.  1.
         14    1    4    4    0    0  0.25098729679E+03 -0.17901833799E+03  0.49281252921E+03  0.58129715072E+03  0.00000000000E+00 0. -1.
        -11    1    3    3    0    0  0.14055804239E+02  0.25518819774E+02 -0.24433835905E+02  0.38023520780E+02  0.00000000000E+00 0.  1.
         11    1    3    3    0    0 -0.91595480660E+02  0.10471624955E+03  0.20517957986E+02  0.14062791898E+03  0.00000000000E+00 0. -1.
         21    1    1    2  502  501 -0.25135653135E+03  0.56683597029E+02  0.32187151125E+03  0.41230377852E+03  0.00000000000E+00 0.  1.
<scales pt_clust_5="13000.00000" pt_clust_6="13000.00000" pt_clust_7="13000.00000" pt_clust_8="13000.00000" pt_clust_9="307.57066"></scales>
<clustering>
<clus scale="   82.677">  5  6 -1 -1</clus>
<clus scale="   94.485">  7  8 -1 -1</clus>
<clus scale="  178.609">  2  7  1 -1</clus>
<clus scale="  307.571">  1  9  2 -1</clus>
<clus scale="  307.571">  1  5  2 -1</clus>
</clustering>
</event>
<event>
 9    2  0.5684583E-005  0.1162806E+03  0.7546771E-02  0.1252901E+00
          2   -1    0    0  502    0  0.00000000000E+00  0.00000000000E+00  0.36218942449E+03  0.36218942449E+03  0.00000000000E+00 0. -1.
         -1   -1    0    0    0  501 -0.00000000000E+00 -0.00000000000E+00 -0.14850810933E+03  0.14850810933E+03  0.00000000000E+00 0.  1.
         24    2    1    2    0    0  0.36781489549E+02 -0.10483961776E+03  0.89853101610E+02  0.16588163445E+03  0.84255049420E+02 0.  0.
         23    2    1    2    0    0  0.31830402829E+02  0.52291204083E+02  0.20013786620E+03  0.22952456993E+03  0.94227480855E+02 0.  0.
        -13    1    3    3    0    0  0.46769309828E+02 -0.10873553734E+03  0.96967828085E+02  0.15301485256E+03  0.00000000000E+00 0.  1.
         14    1    3    3    0    0 -0.99878202786E+01  0.38959195754E+01 -0.71147264753E+01  0.12866781885E+02  0.00000000000E+00 0. -1.
        -11    1    4    4    0    0  0.60319032838E+02  0.44687486691E+02  0.17626950551E+03  0.19158887171E+03  0.00000000000E+00 0. -1.
         11    1    4    4    0    0 -0.28488630009E+02  0.76037173916E+01  0.23868360687E+02  0.37935698225E+02  0.00000000000E+00 0.  1.
         21    1    1    2  502  501 -0.68611892378E+02  0.52548413678E+02 -0.76309652653E+02  0.11529132944E+03  0.00000000000E+00 0.  1.
<scales pt_clust_5="13000.00000" pt_clust_6="13000.00000" pt_clust_7="13000.00000" pt_clust_8="13000.00000" pt_clust_9="86.42296"></scales>
<clustering>
<clus scale="   84.255">  5  6 -1 -1</clus>
<clus scale="   86.423">  2  9  1 -1</clus>
<clus scale="   94.227">  7  8 -1 -1</clus>
<clus scale="  108.357">  2  5  1 -1</clus>
<clus scale="  116.281">  1  5  2 -1</clus>
</clustering>
</event>
<event>
 9    2  0.5684583E-005  0.9531680E+02  0.7546771E-02  0.1296047E+00
          2   -1    0    0  502    0  0.00000000000E+00  0.00000000000E+00  0.58348467745E+03  0.58348467745E+03  0.00000000000E+00 0. -1.
         -1   -1    0    0    0  501 -0.00000000000E+00 -0.00000000000E+00 -0.41726958949E+02  0.41726958949E+02  0.00000000000E+00 0.  1.
         23    2    1    2    0    0  0.45958323180E+01  0.10003514358E+02  0.33672294369E+02  0.97151163241E+02  0.90461777215E+02 0.  0.
         24    2    1    2    0    0  0.14984533391E+02 -0.29236792357E+02  0.48337639763E+03  0.49113019162E+03  0.80478550344E+02 0.  0.
        -11    1    4    4    0    0 -0.30578926819E+02  0.33024865454E+01  0.15657634894E+03  0.15956857533E+03  0.00000000000E+00 0.  1.
         12    1    4    4    0    0  0.45563460210E+02 -0.32539278903E+02  0.32680004868E+03  0.33156161629E+03  0.00000000000E+00 0. -1.
        -11    1    3    3    0    0 -0.25832119434E+02 -0.28218780754E+02  0.79769817962E+00  0.38265314635E+02  0.00000000000E+00 0.  1.
         11    1    3    3    0    0  0.30427951752E+02  0.38222295112E+02  0.32874596189E+02  0.58885848606E+02  0.00000000000E+00 0. -1.
         21    1    1    2  502  501 -0.19580365709E+02  0.19233277999E+02  0.24709026506E+02  0.36930281542E+02  0.00000000000E+00 0. -1.
<scales pt_clust_5="13000.00000" pt_clust_6="13000.00000" pt_clust_7="13000.00000" pt_clust_8="13000.00000" pt_clust_9="27.44649"></scales>
<clustering>
<clus scale="   27.446">  2  9  1 -1</clus>
<clus scale="   80.479">  5  6 -1 -1</clus>
<clus scale="   85.900">  1  5  2 -1</clus>
<clus scale="   90.462">  7  8 -1 -1</clus>
<clus scale="   85.900">  1  5  2 -1</clus>
</clustering>
</event>
<event>
 9    2  0.5684583E-005  0.1766700E+03  0.7546771E-02  0.1172175E+00
         -1   -1    0    0    0  501 -0.00000000000E+00  0.00000000000E+00  0.10009104718E+03  0.10009104718E+03  0.00000000000E+00 0.  1.
          2   -1    0    0  502    0  0.00000000000E+00 -0.00000000000E+00 -0.71675472999E+03  0.71675472999E+03  0.00000000000E+00 0. -1.
         23    2    1    2    0    0 -0.12206854605E+03  0.58630472808E+02 -0.25136317568E+01  0.16117547194E+03  0.87366767901E+02 0.  0.
         24    2    1    2    0    0  0.14030594444E+03 -0.69019675202E+02 -0.60965025958E+03  0.63420437060E+03  0.78053001679E+02 0.  0.
        -11    1    4    4    0    0  0.10527167291E+03 -0.79809237759E+02 -0.39658917845E+03  0.41801269838E+03  0.00000000000E+00 0.  1.
         12    1    4    4    0    0  0.35034271532E+02  0.10789562557E+02 -0.21306108113E+03  0.21619167221E+03  0.00000000000E+00 0. -1.
        -13    1    3    3    0    0 -0.85861369418E+02  0.25314094289E+02 -0.41241943467E+02  0.98558997707E+02  0.00000000000E+00 0. -1.
         13    1    3    3    0    0 -0.36207176634E+02  0.33316378519E+02  0.38728311710E+02  0.62616474233E+02  0.00000000000E+00 0.  1.
         21    1    1    2  502  501 -0.18237398390E+02  0.10389202395E+02 -0.44997914693E+01  0.21465934634E+02  0.00000000000E+00 0. -1.
<scales pt_clust_5="13000.00000" pt_clust_6="13000.00000" pt_clust_7="13000.00000" pt_clust_8="13000.00000" pt_clust_9="20.98900"></scales>
<clustering>
<clus scale="   20.989">  1  9  2 -1</clus>
<clus scale="   78.053">  5  6 -1 -1</clus>
<clus scale="   87.367">  7  8 -1 -1</clus>
<clus scale="  172.254">  2  5  1 -1</clus>
<clus scale="  172.254">  2  5  1 -1</clus>
</clustering>
</event>
<event>
 9    2  0.5684583E-005  0.1688489E+03  0.7546771E-02  0.1181756E+00
          4   -1    0    0  502    0  0.00000000000E+00  0.00000000000E+00  0.25945035977E+03  0.25945035977E+03  0.00000000000E+00 0. -1.
         -3   -1    0    0    0  501 -0.00000000000E+00 -0.00000000000E+00 -0.12773610890E+03  0.12773610890E+03  0.00000000000E+00 0.  1.
         24    2    1    2    0    0 -0.81427522084E+02 -0.11561014918E+03  0.39693379700E+02  0.16793430076E+03  0.81426144661E+02 0.  0.
         23    2    1    2    0    0  0.53805629314E+02  0.12257557619E+03  0.92627611635E+02  0.19075911142E+03  0.99445193602E+02 0.  0.
        -13    1    3    3    0    0 -0.83292677623E+02 -0.83779020681E+02  0.57527300081E+02  0.13140009401E+03  0.00000000000E+00 0.  1.
         14    1    3    3    0    0  0.18651555389E+01 -0.31831128495E+02 -0.17833920382E+02  0.36534206747E+02  0.00000000000E+00 0. -1.
        -13    1    4    4    0    0 -0.90912254933E+01  0.74014178190E+02  0.81590828716E+02  0.11053421319E+03  0.00000000000E+00 0. -1.
         13    1    4    4    0    0  0.62896854807E+02  0.48561397998E+02  0.11036782919E+02  0.80224898238E+02  0.00000000000E+00 0.  1.
         21    1    1    2  502  501  0.27621892771E+02 -0.69654270123E+01 -0.60674046470E+00  0.28493056482E+02  0.00000000000E+00 0.  1.
<scales pt_clust_5="13000.00000" pt_clust_6="13000.00000" pt_clust_7="13000.00000" pt_clust_8="13000.00000" pt_clust_9="28.48660"></scales>
<clustering>
<clus scale="   28.487">  2  9  1 -1</clus>
<clus scale="   81.426">  5  6 -1 -1</clus>
<clus scale="   99.445">  7  8 -1 -1</clus>
<clus scale="  158.905">  2  5  1 -1</clus>
<clus scale="  168.849">  1  5  2 -1</clus>
</clustering>
</event>
<event>
 9    2  0.5684583E-005  0.1146309E+03  0.7546771E-02  0.1256892E+00
          2   -1    0    0  502    0  0.00000000000E+00  0.00000000000E+00  0.94182714100E+03  0.94182714100E+03  0.00000000000E+00 0. -1.
         -1   -1    0    0    0  501 -0.00000000000E+00 -0.00000000000E+00 -0.27577552295E+02  0.27577552295E+02  0.00000000000E+00 0.  1.
         23    2    1    2    0    0  0.43655248351E+02 -0.72927547241E+02  0.16746246089E+03  0.20901694472E+03  0.91761645132E+02 0.  0.
         24    2    1    2    0    0 -0.30929302292E+02  0.18882726694E+02  0.41106664932E+03  0.42010693511E+03  0.78745588058E+02 0.  0.
        -13    1    4    4    0    0 -0.33101558047E+02 -0.16695558935E+02  0.94059790734E+02  0.10110241870E+03  0.00000000000E+00 0.  1.
         14    1    4    4    0    0  0.21722557545E+01  0.35578285629E+02  0.31700685859E+03  0.31900451642E+03  0.00000000000E+00 0. -1.
        -13    1    3    3    0    0  0.26016994226E+02 -0.85891050262E+02  0.16386832343E+03  0.18683410804E+03  0.00000000000E+00 0.  1.
         13    1    3    3    0    0  0.17638254125E+02  0.12963503021E+02  0.35941374648E+01  0.22182836682E+02  0.00000000000E+00 0. -1.
         21    1    1    2  502  501 -0.12725946058E+02  0.54044820547E+02  0.33572047849E+03  0.34028081346E+03  0.00000000000E+00 0. -1.
<scales pt_clust_5="13000.00000" pt_clust_6="13000.00000" pt_clust_7="13000.00000" pt_clust_8="13000.00000" pt_clust_9="55.52290"></scales>
<clustering>
<clus scale="   55.523">  1  9  2 -1</clus>
<clus scale="   78.746">  5  6 -1 -1</clus>
<clus scale="   91.762">  7  8 -1 -1</clus>
<clus scale="  104.503">  1  5  2 -1</clus>
<clus scale="   55.523">  1  5  2 -1</clus>
</clustering>
</event>
<event>
 9    2  0.5684583E-005  0.1721745E+03  0.7546771E-02  0.1177515E+00
          2   -1    0    0  502    0  0.00000000000E+00  0.00000000000E+00  0.12020159527E+04  0.12020159527E+04  0.00000000000E+00 0. -1.
         -1   -1    0    0    0  501 -0.00000000000E+00 -0.00000000000E+00 -0.31005423465E+02  0.31005423465E+02  0.00000000000E+00 0.  1.
         24    2    1    2    0    0  0.11472132139E+03  0.59663352283E+02  0.46615988170E+03  0.49033430071E+03  0.80012461300E+02 0.  0.
         23    2    1    2    0    0 -0.14101882130E+03 -0.74407666359E+02  0.67620821496E+03  0.70110171454E+03  0.94144863806E+02 0.  0.
        -11    1    3    3    0    0  0.42674423854E+02  0.29570055284E+02  0.73504258236E+02  0.89990947320E+02  0.00000000000E+00 0.  1.
         12    1    3    3    0    0  0.72046897537E+02  0.30093296999E+02  0.39265562346E+03  0.40034335339E+03  0.00000000000E+00 0. -1.
        -13    1    4    4    0    0 -0.21001529614E+02 -0.60710487282E+02  0.22248718265E+03  0.23157584925E+03  0.00000000000E+00 0.  1.
         13    1    4    4    0    0 -0.12001729169E+03 -0.13697179077E+02  0.45372103231E+03  0.46952586529E+03  0.00000000000E+00 0. -1.
         21    1    1    2  502  501  0.26297499910E+02  0.14744314076E+02  0.28642432614E+02  0.41585360947E+02  0.00000000000E+00 0. -1.
<scales pt_clust_5="13000.00000" pt_clust_6="13000.00000" pt_clust_7="13000.00000" pt_clust_8="13000.00000" pt_clust_9="30.14885"></scales>
<clustering>
<clus scale="   30.149">  2  9  1 -1</clus>
<clus scale="   80.012">  5  6 -1 -1</clus>
<clus scale="   94.145">  7  8 -1 -1</clus>
<clus scale="  164.872">  2  5  1 -1</clus>
<clus scale="  172.174">  1  5  2 -1</clus>
</clustering>
</event>
<event>
 9    2  0.5684583E-005  0.1096123E+03  0.7546771E-02  0.1265506E+00
         -1   -1    0    0    0  501 -0.00000000000E+00  0.00000000000E+00  0.17352918640E+03  0.17352918640E+03  0.00000000000E+00 0.  1.
          2   -1    0    0  502    0  0.00000000000E+00 -0.00000000000E+00 -0.54733214094E+03  0.54733214094E+03  0.00000000000E+00 0. -1.
         23    2    1    2    0    0  0.55487526522E+02 -0.40690989784E+02  0.94075889605E+02  0.14828931182E+03  0.91677831263E+02 0.  0.
         24    2    1    2    0    0 -0.57143869843E+02  0.17872135338E+02 -0.51255628465E+03  0.52237722215E+03  0.81112158195E+02 0.  0.
        -13    1    4    4    0    0 -0.43381562732E+02 -0.76341079487E+01 -0.10598089727E+03  0.11477016239E+03  0.00000000000E+00 0.  1.
         14    1    4    4    0    0 -0.13762307111E+02  0.25506243286E+02 -0.40657538738E+03  0.40760705976E+03  0.00000000000E+00 0. -1.
        -11    1    3    3    0    0  0.72485131747E+02 -0.29186309102E+02  0.10001623601E+03  0.12692195409E+03  0.00000000000E+00 0.  1.
         11    1    3    3    0    0 -0.16997605226E+02 -0.11504680682E+02 -0.59403464048E+01  0.21367357731E+02  0.00000000000E+00 0. -1.
         21    1    1    2  502  501  0.16563433210E+01  0.22818854447E+02  0.44677440507E+02  0.50194793373E+02  0.00000000000E+00 0. -1.
<scales pt_clust_5="13000.00000" pt_clust_6="13000.00000" pt_clust_7="13000.00000" pt_clust_8="13000.00000" pt_clust_9="22.87889"></scales>
<clustering>
<clus scale="   22.879">  1  9  2 -1</clus>
<clus scale="   81.112">  5  6 -1 -1</clus>
<clus scale="   91.678">  7  8 -1 -1</clus>
<clus scale="  100.942">  2  5  1 -1</clus>
<clus scale="  100.942">  2  5  1 -1</clus>
</clustering>
</event>
<event>
 9    2  0.5684583E-005  0.9470894E+02  0.7546771E-02  0.1296635E+00
          2   -1    0    0  502    0  0.00000000000E+00  0.00000000000E+00  0.25174186344E+03  0.25174186344E+03  0.00000000000E+00 0. -1.
         -1   -1    0    0    0  501 -0.00000000000E+00 -0.00000000000E+00 -0.12739002428E+03  0.12739002428E+03  0.00000000000E+00 0.  1.
         23    2    1    2    0    0 -0.70176078257E+02  0.61466071726E+02 -0.22915426433E+02  0.13087914614E+03  0.88890236772E+02 0.  0.
         24    2    1    2    0    0 -0.46009590615E+01 -0.27811273941E+02  0.14272068851E+03  0.16612526696E+03  0.80210807337E+02 0.  0.
        -11    1    4    4    0    0  0.37067895177E+02 -0.52644154366E+01  0.68727919496E+02  0.78264103144E+02  0.00000000000E+00 0.  1.
         12    1    4    4    0    0 -0.41668854238E+02 -0.22546858505E+02  0.73992769010E+02  0.87861163820E+02  0.00000000000E+00 0. -1.
        -13    1    3    3    0    0 -0.70177753621E+02  0.35437651795E+02  0.19604450525E+02  0.81025173548E+02  0.00000000000E+00 0.  1.
         13    1    3    3    0    0  0.16753644757E-02  0.26028419931E+02 -0.42519876958E+02  0.49853972594E+02  0.00000000000E+00 0. -1.
         21    1    1    2  502  501  0.74777037318E+02 -0.33654797784E+02  0.45465770914E+01  0.82127474619E+02  0.00000000000E+00 0. -1.
<scales pt_clust_5="13000.00000" pt_clust_6="13000.00000" pt_clust_7="13000.00000" pt_clust_8="13000.00000" pt_clust_9="82.00153"></scales>
<clustering>
<clus scale="   80.211">  5  6 -1 -1</clus>
<clus scale="   82.002">  2  9  1 -1</clus>
<clus scale="   86.615">  1  5  2 -1</clus>
<clus scale="   88.890">  7  8 -1 -1</clus>
<clus scale="   86.615">  1  5  2 -1</clus>
</clustering>
</event>
<event>
 9    2  0.5684583E-005  0.9883353E+02  0.7546771E-02  0.1291470E+00
          2   -1    0    0  502    0  0.00000000000E+00  0.00000000000E+00  0.13345713953E+03  0.13345713953E+03  0.00000000000E+00 0. -1.
         -1   -1    0    0    0  501 -0.00000000000E+00 -0.00000000000E+00 -0.18806506143E+03  0.18806506143E+03  0.00000000000E+00 0.  1.
         23    2    1    2    0    0 -0.26759609069E+02  0.23437116905E+02 -0.12567029716E+03  0.15951934908E+03  0.91586156242E+02 0.  0.
         24    2    1    2    0    0  0.60160245529E+02  0.52095270081E+01  0.67732515986E+02  0.11787439524E+03  0.75234865701E+02 0.  0.
        -13    1    4    4    0    0  0.73917596543E+00  0.30954287145E+02  0.28962673375E+02  0.42397532037E+02  0.00000000000E+00 0.  1.
         14    1    4    4    0    0  0.59421069563E+02 -0.25744760137E+02  0.38769842611E+02  0.75476863201E+02  0.00000000000E+00 0. -1.
        -13    1    3    3    0    0  0.56849875695E+01  0.47196817371E+02 -0.10279357460E+03  0.11325359876E+03  0.00000000000E+00 0.  1.
         13    1    3    3    0    0 -0.32444596638E+02 -0.23759700467E+02 -0.22876722568E+02  0.46265750321E+02  0.00000000000E+00 0. -1.
         21    1    1    2  502  501 -0.33400636460E+02 -0.28646643913E+02  0.33298592734E+01  0.44128456649E+02  0.00000000000E+00 0. -1.
<scales pt_clust_5="13000.00000" pt_clust_6="13000.00000" pt_clust_7="13000.00000" pt_clust_8="13000.00000" pt_clust_9="44.00264"></scales>
<clustering>
<clus scale="   44.003">  1  9  2 -1</clus>
<clus scale="   75.235">  5  6 -1 -1</clus>
<clus scale="   83.907">  1  5  2 -1</clus>
<clus scale="   91.586">  7  8 -1 -1</clus>
<clus scale="   44.003">  1  5  2 -1</clus>
</clustering>
</event>
<event>
 9    2  0.5684583E-005  0.9667060E+02  0.7546771E-02  0.1295597E+00
          2   -1    0    0  502    0  0.00000000000E+00  0.00000000000E+00  0.85457033838E+03  0.85457033838E+03  0.00000000000E+00 0. -1.
         -1   -1    0    0    0  501 -0.00000000000E+00 -0.00000000000E+00 -0.15698881633E+03  0.15698881633E+03  0.00000000000E+00 0.  1.
         23    2    1    2    0    0 -0.45686290183E+02  0.49176993421E+02  0.17016614607E+03  0.20439258152E+03  0.91182214923E+02 0.  0.
         24    2    1    2    0    0 -0.90472611895E+01 -0.29475825619E+02  0.65855278051E+03  0.66370606809E+03  0.76572206927E+02 0.  0.
        -11    1    4    4    0    0  0.27393438324E+02 -0.26079156412E+02  0.19011489111E+03  0.19384064249E+03  0.00000000000E+00 0.  1.
         12    1    4    4    0    0 -0.36440699514E+02 -0.33966692069E+01  0.46843788940E+03  0.46986542560E+03  0.00000000000E+00 0. -1.
        -11    1    3    3    0    0 -0.46620833793E+02  0.17652338969E+02  0.16508477447E+03  0.17244735421E+03  0.00000000000E+00 0. -1.
         11    1    3    3    0    0  0.93454361030E+00  0.31524654452E+02  0.50813716033E+01  0.31945227303E+02  0.00000000000E+00 0.  1.
         21    1    1    2  502  501  0.54733551372E+02 -0.19701167802E+02 -0.13113740453E+03  0.14346050510E+03  0.00000000000E+00 0.  1.
<scales pt_clust_5="13000.00000" pt_clust_6="13000.00000" pt_clust_7="13000.00000" pt_clust_8="13000.00000" pt_clust_9="58.17128"></scales>
<clustering>
<clus scale="   58.171">  2  9  1 -1</clus>
<clus scale="   76.572">  5  6 -1 -1</clus>
<clus scale="   83.032">  1  5  2 -1</clus>
<clus scale="   91.182">  7  8 -1 -1</clus>
<clus scale="   83.032">  1  5  2 -1</clus>
</clustering>
</event>
<event>
 9    2  0.5684583E-005  0.9628530E+02  0.7546771E-02  0.1296561E+00
          2   -1    0    0  502    0  0.00000000000E+00  0.00000000000E+00  0.72328436105E+02  0.72328436105E+02  0.00000000000E+00 0. -1.
         -1   -1    0    0    0  501 -0.00000000000E+00 -0.00000000000E+00 -0.16057206929E+03  0.16057206929E+03  0.00000000000E+00 0.  1.
         24    2    1    2    0    0 -0.42936533900E+01  0.11458331944E+02 -0.44148115063E+02  0.91356640608E+02  0.79039552688E+02 0.  0.
         23    2    1    2    0    0 -0.23010324159E+01 -0.41225095195E+02 -0.43858292728E+02  0.11105441823E+03  0.93299146533E+02 0.  0.
        -13    1    3    3    0    0  0.29103955366E+02 -0.95364219296E+01 -0.41825718844E+02  0.51839891184E+02  0.00000000000E+00 0.  1.
         14    1    3    3    0    0 -0.33397608756E+02  0.20994753874E+02 -0.23223962184E+01  0.39516749424E+02  0.00000000000E+00 0. -1.
        -13    1    4    4    0    0 -0.41459327769E+02 -0.36807909124E+02 -0.45340003505E+02  0.71619927053E+02  0.00000000000E+00 0. -1.
         13    1    4    4    0    0  0.39158295353E+02 -0.44171860710E+01  0.14817107771E+01  0.39434491180E+02  0.00000000000E+00 0.  1.
         21    1    1    2  502  501  0.65946858060E+01  0.29766763251E+02 -0.23722539484E+00  0.30489446555E+02  0.00000000000E+00 0. -1.
<scales pt_clust_5="13000.00000" pt_clust_6="13000.00000" pt_clust_7="13000.00000" pt_clust_8="13000.00000" pt_clust_9="30.48852"></scales>
<clustering>
<clus scale="   30.489">  1  9  2 -1</clus>
<clus scale="   79.040">  5  6 -1 -1</clus>
<clus scale="   82.543">  2  5  1 -1</clus>
<clus scale="   93.299">  7  8 -1 -1</clus>
<clus scale="   30.489">  1  5  2 -1</clus>
</clustering>
</event>
<event>
 9    2  0.5684583E-005  0.1534389E+03  0.7546771E-02  0.1198445E+00
         -3   -1    0    0    0  501 -0.00000000000E+00  0.00000000000E+00  0.73523128519E+02  0.73523128519E+02  0.00000000000E+00 0.  1.
          4   -1    0    0  502    0  0.00000000000E+00 -0.00000000000E+00 -0.70695272342E+03  0.70695272342E+03  0.00000000000E+00 0. -1.
         24    2    1    2    0    0  0.35827302936E+02  0.13496145840E+03 -0.78909298113E+02  0.17975606185E+03  0.81162636434E+02 0.  0.
         23    2    1    2    0    0  0.32670969875E+01 -0.11911558497E+03 -0.53161892699E+03  0.55272045104E+03  0.93177341470E+02 0.  0.
        -13    1    3    3    0    0  0.53854336808E+02  0.98310553765E+02 -0.30009726082E+02  0.11604239843E+03  0.00000000000E+00 0.  1.
         14    1    3    3    0    0 -0.18027033873E+02  0.36650904637E+02 -0.48899572031E+02  0.63713663415E+02  0.00000000000E+00 0. -1.
        -11    1    4    4    0    0 -0.41648237789E+02 -0.38202275554E+02 -0.24909669038E+03  0.25542738836E+03  0.00000000000E+00 0. -1.
         11    1    4    4    0    0  0.44915334777E+02 -0.80913309411E+02 -0.28252223661E+03  0.29729306268E+03  0.00000000000E+00 0.  1.
         21    1    1    2  502  501 -0.39094399923E+02 -0.15845873437E+02 -0.22901369797E+02  0.47999339047E+02  0.00000000000E+00 0.  1.
<scales pt_clust_5="13000.00000" pt_clust_6="13000.00000" pt_clust_7="13000.00000" pt_clust_8="13000.00000" pt_clust_9="42.18369"></scales>
<clustering>
<clus scale="   42.184">  1  9  2 -1</clus>
<clus scale="   81.163">  5  6 -1 -1</clus>
<clus scale="   93.177">  7  8 -1 -1</clus>
<clus scale="  146.454">  1  5  2 -1</clus>
<clus scale="  153.439">  2  5  1 -1</clus>
</clustering>
</event>
<event>
 9    2  0.5684583E-005  0.1304210E+03  0.7546771E-02  0.1229732E+00
          2   -1    0    0  502    0  0.00000000000E+00  0.00000000000E+00  0.87040516165E+03  0.87040516165E+03  0.00000000000E+00 0. -1.
         -1   -1    0    0    0  501 -0.00000000000E+00 -0.00000000000E+00 -0.22467897629E+02  0.22467897629E+02  0.00000000000E+00 0.  1.
         23    2    1    2    0    0  0.87401388999E+02  0.40684333645E+01  0.30933318064E+03  0.33406624717E+03  0.90871810255E+02 0.  0.
         24    2    1    2    0    0 -0.95295762549E+02 -0.24425431485E+02  0.47475814365E+03  0.49133064947E+03  0.79577811467E+02 0.  0.
        -11    1    4    4    0    0 -0.43419463231E+02  0.30721706431E+01  0.70672364415E+02  0.83001633187E+02  0.00000000000E+00 0.  1.
         12    1    4    4    0    0 -0.51876299318E+02 -0.27497602128E+02  0.40408577924E+03  0.40832901628E+03  0.00000000000E+00 0. -1.
        -11    1    3    3    0    0  0.45766316029E+02  0.45369772189E+02  0.19812425209E+03  0.20834152534E+03  0.00000000000E+00 0.  1.
         11    1    3    3    0    0  0.41635072970E+02 -0.41301338825E+02  0.11120892855E+03  0.12572472183E+03  0.00000000000E+00 0. -1.
         21    1    1    2  502  501  0.78943735501E+01  0.20356998121E+02  0.63845939720E+02  0.67476162642E+02  0.00000000000E+00 0.  1.
<scales pt_clust_5="13000.00000" pt_clust_6="13000.00000" pt_clust_7="13000.00000" pt_clust_8="13000.00000" pt_clust_9="21.83411"></scales>
<clustering>
<clus scale="   21.834">  2  9  1 -1</clus>
<clus scale="   79.578">  5  6 -1 -1</clus>
<clus scale="   90.872">  7  8 -1 -1</clus>
<clus scale="  122.819">  1  5  2 -1</clus>
<clus scale="  122.819">  1  5  2 -1</clus>
</clustering>
</event>
<event>
 9    2  0.5684583E-005  0.1027229E+03  0.7546771E-02  0.1279721E+00
          2   -1    0    0  502    0  0.00000000000E+00  0.00000000000E+00  0.22063424796E+03  0.22063424796E+03  0.00000000000E+00 0. -1.
         -1   -1    0    0    0  501 -0.00000000000E+00 -0.00000000000E+00 -0.16731290817E+03  0.16731290817E+03  0.00000000000E+00 0.  1.
         23    2    1    2    0    0 -0.20328150602E+02 -0.19261463521E+02 -0.10395950728E+03  0.14135800716E+03  0.91598413469E+02 0.  0.
         24    2    1    2    0    0  0.44884122887E+02 -0.22311369797E+02  0.17161809778E+03  0.19622196716E+03  0.80857326199E+02 0.  0.
        -11    1    4    4    0    0  0.11703248303E+02  0.27707177950E+02  0.30341343869E+02  0.42722954938E+02  0.00000000000E+00 0.  1.
         12    1    4    4    0    0  0.33180874584E+02 -0.50018547747E+02  0.14127675392E+03  0.15349901222E+03  0.00000000000E+00 0. -1.
        -13    1    3    3    0    0 -0.38882852723E+02 -0.46422509290E+02 -0.81474416216E+02  0.10151357595E+03  0.00000000000E+00 0.  1.
         13    1    3    3    0    0  0.18554702121E+02  0.27161045769E+02 -0.22485091066E+02  0.39844431208E+02  0.00000000000E+00 0. -1.
         21    1    1    2  502  501 -0.24555972285E+02  0.41572833317E+02 -0.14337250718E+02  0.50367181806E+02  0.00000000000E+00 0. -1.
<scales pt_clust_5="13000.00000" pt_clust_6="13000.00000" pt_clust_7="13000.00000" pt_clust_8="13000.00000" pt_clust_9="48.28350"></scales>
<clustering>
<clus scale="   48.283">  2  9  1 -1</clus>
<clus scale="   80.857">  5  6 -1 -1</clus>
<clus scale="   91.598">  7  8 -1 -1</clus>
<clus scale="   93.272">  1  5  2 -1</clus>
<clus scale="   93.272">  1  5  2 -1</clus>
</clustering>
</event>
<event>
 9    2  0.5684583E-005  0.2082768E+03  0.7546771E-02  0.1144304E+00
          2   -1    0    0  502    0  0.00000000000E+00  0.00000000000E+00  0.19834525289E+03  0.19834525289E+03  0.00000000000E+00 0. -1.
         -1   -1    0    0    0  501 -0.00000000000E+00 -0.00000000000E+00 -0.26099589668E+03  0.26099589668E+03  0.00000000000E+00 0.  1.
         24    2    1    2    0    0 -0.21094345541E+02 -0.18675488606E+03 -0.49027769379E+02  0.21098582338E+03  0.82395003597E+02 0.  0.
         23    2    1    2    0    0  0.44735791873E+02  0.17619795990E+03  0.18392725410E+02  0.20718051221E+03  0.97665040534E+02 0.  0.
        -13    1    3    3    0    0 -0.23226474293E+02 -0.75740869967E+02 -0.60045143322E+02  0.99406074905E+02  0.00000000000E+00 0.  1.
         14    1    3    3    0    0  0.21321287519E+01 -0.11101401609E+03  0.11017373944E+02  0.11157974848E+03  0.00000000000E+00 0. -1.
        -13    1    4    4    0    0  0.75107237050E+01  0.42160767497E+02 -0.37827751449E+02  0.57139129029E+02  0.00000000000E+00 0.  1.
         13    1    4    4    0    0  0.37225068168E+02  0.13403719241E+03  0.56220476859E+02  0.15004138318E+03  0.00000000000E+00 0. -1.
         21    1    1    2  502  501 -0.23641446332E+02  0.10556926155E+02 -0.32015599820E+02  0.41174813981E+02  0.00000000000E+00 0. -1.
<scales pt_clust_5="13000.00000" pt_clust_6="13000.00000" pt_clust_7="13000.00000" pt_clust_8="13000.00000" pt_clust_9="25.89144"></scales>
<clustering>
<clus scale="   25.891">  2  9  1 -1</clus>
<clus scale="   82.395">  5  6 -1 -1</clus>
<clus scale="   97.665">  7  8 -1 -1</clus>
<clus scale="  201.568">  2  5  1 -1</clus>
<clus scale="  208.277">  1  5  2 -1</clus>
</clustering>
</event>
<event>
 9    2  0.5684583E-005  0.1129923E+03  0.7546771E-02  0.1267363E+00
         -1   -1    0    0    0  501 -0.00000000000E+00  0.00000000000E+00  0.24855210983E+03  0.24855210983E+03  0.00000000000E+00 0.  1.
          2   -1    0    0  502    0  0.00000000000E+00 -0.00000000000E+00 -0.89475370562E+03  0.89475370562E+03  0.00000000000E+00 0. -1.
         23    2    1    2    0    0 -0.12171329830E+02 -0.13933281157E+02  0.49485423318E+02  0.98970281279E+02  0.83690094168E+02 0.  0.
         24    2    1    2    0    0 -0.41414337520E+01  0.30527537769E+02 -0.86553062854E+03  0.87290529393E+03  0.10895550100E+03 0.  0.
        -13    1    4    4    0    0 -0.15399671327E+02  0.61460346384E+02 -0.31046252788E+03  0.31686196565E+03  0.00000000000E+00 0.  1.
         14    1    4    4    0    0  0.11258237575E+02 -0.30932808615E+02 -0.55506810065E+03  0.55604332828E+03  0.00000000000E+00 0. -1.
        -13    1    3    3    0    0 -0.19398986579E+02 -0.46273301901E+02  0.40914264396E+02  0.64741919806E+02  0.00000000000E+00 0.  1.
         13    1    3    3    0    0  0.72276567492E+01  0.32340020744E+02  0.85711589221E+01  0.34228361473E+02  0.00000000000E+00 0. -1.
         21    1    1    2  502  501  0.16312763582E+02 -0.16594256612E+02  0.16984360942E+03  0.17143024024E+03  0.00000000000E+00 0.  1.
<scales pt_clust_5="13000.00000" pt_clust_6="13000.00000" pt_clust_7="13000.00000" pt_clust_8="13000.00000" pt_clust_9="23.26963"></scales>
<clustering>
<clus scale="   23.270">  1  9  2 -1</clus>
<clus scale="   83.690">  7  8 -1 -1</clus>
<clus scale="   88.882">  1  7  2 -1</clus>
<clus scale="  108.956">  5  6 -1 -1</clus>
<clus scale="  112.992">  2  5  1 -1</clus>
</clustering>
</event>
<event>
 9    2  0.5684583E-005  0.1125443E+03  0.7546771E-02  0.1258941E+00
          2   -1    0    0  502    0  0.00000000000E+00  0.00000000000E+00  0.23305552982E+03  0.23305552982E+03  0.00000000000E+00 0. -1.
         -1   -1    0    0    0  501 -0.00000000000E+00 -0.00000000000E+00 -0.11848147480E+03  0.11848147480E+03  0.00000000000E+00 0.  1.
         24    2    1    2    0    0 -0.45879643065E+02  0.10305589137E+02  0.89603842222E+01  0.97100261259E+02  0.84480917584E+02 0.  0.
         23    2    1    2    0    0  0.53184178348E+02  0.80841029352E+02  0.90921024368E+02  0.16182499380E+03  0.92503335569E+02 0.  0.
        -13    1    3    3    0    0  0.76955790890E+01  0.29720173266E+02  0.23061295349E+02  0.38397056914E+02  0.00000000000E+00 0.  1.
         14    1    3    3    0    0 -0.53575222154E+02 -0.19414584129E+02 -0.14100911127E+02  0.58703204345E+02  0.00000000000E+00 0. -1.
        -13    1    4    4    0    0  0.60796887850E+02  0.19940087001E+02  0.74673060762E+02  0.98335825849E+02  0.00000000000E+00 0. -1.
         13    1    4    4    0    0 -0.76127095013E+01  0.60900942351E+02  0.16247963606E+02  0.63489167947E+02  0.00000000000E+00 0.  1.
         21    1    1    2  502  501 -0.73045352836E+01 -0.91146618489E+02  0.14692646425E+02  0.92611749561E+02  0.00000000000E+00 0. -1.
<scales pt_clust_5="13000.00000" pt_clust_6="13000.00000" pt_clust_7="13000.00000" pt_clust_8="13000.00000" pt_clust_9="91.43884"></scales>
<clustering>
<clus scale="   84.481">  5  6 -1 -1</clus>
<clus scale="   91.439">  2  9  1 -1</clus>
<clus scale="   92.503">  7  8 -1 -1</clus>
<clus scale="  106.049">  2  5  1 -1</clus>
<clus scale="  112.544">  1  5  2 -1</clus>
</clustering>
</event>
<event>
 9    2  0.5684583E-005  0.1287701E+03  0.7546771E-02  0.1232575E+00
          2   -1    0    0  502    0  0.00000000000E+00  0.00000000000E+00  0.16721145512E+03  0.16721145512E+03  0.00000000000E+00 0. -1.
         -1   -1    0    0    0  501 -0.00000000000E+00 -0.00000000000E+00 -0.19307856223E+03  0.19307856223E+03  0.00000000000E+00 0.  1.
         23    2    1    2    0    0 -0.22171882346E+02 -0.76325463576E+02  0.17003747271E+02  0.12295090450E+03  0.92253068992E+02 0.  0.
         24    2    1    2    0    0  0.52312704042E+02  0.84879339197E+02  0.51534749101E+02  0.13787024390E+03  0.80070297618E+02 0.  0.
        -13    1    4    4    0    0  0.63935065349E+02  0.83030287794E+02  0.62305665651E+02  0.12191684561E+03  0.00000000000E+00 0.  1.
         14    1    4    4    0    0 -0.11622361307E+02  0.18490514026E+01 -0.10770916550E+02  0.15953398283E+02  0.00000000000E+00 0. -1.
        -11    1    3    3    0    0 -0.56441045351E+02 -0.44193142250E+02  0.23696428978E+02  0.75499312371E+02  0.00000000000E+00 0. -1.
         11    1    3    3    0    0  0.34269163005E+02 -0.32132321327E+02 -0.66926817069E+01  0.47451592126E+02  0.00000000000E+00 0.  1.
         21    1    1    2  502  501 -0.30140821696E+02 -0.85538756204E+01 -0.94405603484E+02  0.99468868949E+02  0.00000000000E+00 0.  1.
<scales pt_clust_5="13000.00000" pt_clust_6="13000.00000" pt_clust_7="13000.00000" pt_clust_8="13000.00000" pt_clust_9="31.33110"></scales>
<clustering>
<clus scale="   31.331">  2  9  1 -1</clus>
<clus scale="   80.070">  5  6 -1 -1</clus>
<clus scale="   92.253">  7  8 -1 -1</clus>
<clus scale="  120.343">  1  5  2 -1</clus>
<clus scale="  120.343">  1  5  2 -1</clus>
</clustering>
</event>
<event>
 9    2  0.5684583E-005  0.9473374E+02  0.7546771E-02  0.1297351E+00
          2   -1    0    0  502    0  0.00000000000E+00  0.00000000000E+00  0.21000660027E+03  0.21000660027E+03  0.00000000000E+00 0. -1.
         -1   -1    0    0    0  501 -0.00000000000E+00 -0.00000000000E+00 -0.89435125271E+02  0.89435125271E+02  0.00000000000E+00 0.  1.
         23    2    1    2    0    0 -0.20449583698E+02  0.20685227834E+01 -0.25095073752E+02  0.97223737723E+02  0.91652758770E+02 0.  0.
         24    2    1    2    0    0  0.27546174451E+02  0.39335697246E+02  0.79686944647E+02  0.12400047575E+03  0.81975728322E+02 0.  0.
        -13    1    4    4    0    0  0.23566793935E+02  0.42879253941E+02  0.50668945212E+01  0.49190421985E+02  0.00000000000E+00 0.  1.
         14    1    4    4    0    0  0.39793805156E+01 -0.35435566950E+01  0.74620050126E+02  0.74810053764E+02  0.00000000000E+00 0. -1.
        -13    1    3    3    0    0 -0.34158682141E+02  0.35751288079E+02  0.54312224206E+01  0.49744028203E+02  0.00000000000E+00 0. -1.
         13    1    3    3    0    0  0.13709098443E+02 -0.33682765295E+02 -0.30526296173E+02  0.47479709520E+02  0.00000000000E+00 0.  1.
         21    1    1    2  502  501 -0.70965907526E+01 -0.41404220030E+02  0.65979604107E+02  0.78217512071E+02  0.00000000000E+00 0.  1.
<scales pt_clust_5="13000.00000" pt_clust_6="13000.00000" pt_clust_7="13000.00000" pt_clust_8="13000.00000" pt_clust_9="42.00799"></scales>
<clustering>
<clus scale="   42.008">  1  9  2 -1</clus>
<clus scale="   81.976">  5  6 -1 -1</clus>
<clus scale="   85.407">  1  5  2 -1</clus>
<clus scale="   91.653">  7  8 -1 -1</clus>
<clus scale="   42.008">  1  5  2 -1</clus>
</clustering>
</event>
<event>
 9    2  0.5684583E-005  0.1071852E+03  0.7546771E-02  0.1272839E+00
          2   -1    0    0  502    0  0.00000000000E+00  0.00000000000E+00  0.13211903023E+03  0.13211903023E+03  0.00000000000E+00 0. -1.
         -1   -1    0    0    0  501 -0.00000000000E+00 -0.00000000000E+00 -0.14692184836E+03  0.14692184836E+03  0.00000000000E+00 0.  1.
         24    2    1    2    0    0 -0.31949468358E+02  0.49722320008E+02 -0.54768127036E+02  0.11293106088E+03  0.79125211772E+02 0.  0.
         23    2    1    2    0    0 -0.11402028393E+01 -0.49469332272E+02  0.64565903329E+02  0.12487658368E+03  0.94746453133E+02 0.  0.
        -11    1    3    3    0    0 -0.15549021719E+02  0.23297848303E+02 -0.72084296403E+02  0.77335034751E+02  0.00000000000E+00 0.  1.
         12    1    3    3    0    0 -0.16400446639E+02  0.26424471705E+02  0.17316169368E+02  0.35596026133E+02  0.00000000000E+00 0. -1.
        -13    1    4    4    0    0 -0.27084754271E+02 -0.19291352022E+02 -0.14564210464E+02  0.36302291983E+02  0.00000000000E+00 0.  1.
         13    1    4    4    0    0  0.25944551432E+02 -0.30177980249E+02  0.79130113793E+02  0.88574291698E+02  0.00000000000E+00 0. -1.
         21    1    1    2  502  501  0.33089671197E+02 -0.25298773677E+00 -0.24600594415E+02  0.41233234027E+02  0.00000000000E+00 0. -1.
<scales pt_clust_5="13000.00000" pt_clust_6="13000.00000" pt_clust_7="13000.00000" pt_clust_8="13000.00000" pt_clust_9="33.09064"></scales>
<clustering>
<clus scale="   33.091">  2  9  1 -1</clus>
<clus scale="   79.125">  5  6 -1 -1</clus>
<clus scale="   93.662">  2  5  1 -1</clus>
<clus scale="   94.746">  7  8 -1 -1</clus>
<clus scale="  107.185">  1  5  2 -1</clus>
</clustering>
</event>
<event>
 9    2  0.5684583E-005  0.9720361E+02  0.7546771E-02  0.1290068E+00
          2   -1    0    0  502    0  0.00000000000E+00  0.00000000000E+00  0.71904293356E+02  0.71904293356E+02  0.00000000000E+00 0. -1.
         -1   -1    0    0    0  501 -0.00000000000E+00 -0.00000000000E+00 -0.16047644676E+03  0.16047644676E+03  0.00000000000E+00 0.  1.
         24    2    1    2    0    0  0.26206921183E+02 -0.27640503455E+02 -0.39619313161E+02  0.98673623131E+02  0.81951167028E+02 0.  0.
         23    2    1    2    0    0 -0.65271877673E+01  0.41990356700E+02 -0.31532749458E+02  0.10376267245E+03  0.89255720655E+02 0.  0.
        -13    1    3    3    0    0  0.52866827321E+01 -0.33480697629E+02  0.17080559644E+02  0.37955917138E+02  0.00000000000E+00 0.  1.
         14    1    3    3    0    0  0.20920238451E+02  0.58401941736E+01 -0.56699872806E+02  0.60717705993E+02  0.00000000000E+00 0. -1.
        -11    1    4    4    0    0 -0.25424174066E+02 -0.84152604646E+01 -0.41132032578E+02  0.49082067393E+02  0.00000000000E+00 0.  1.
         11    1    4    4    0    0  0.18896986299E+02  0.50405617165E+02  0.95992831203E+01  0.54680605057E+02  0.00000000000E+00 0. -1.
         21    1    1    2  502  501 -0.19679733415E+02 -0.14349853245E+02 -0.17420090783E+02  0.29944444532E+02  0.00000000000E+00 0.  1.
<scales pt_clust_5="13000.00000" pt_clust_6="13000.00000" pt_clust_7="13000.00000" pt_clust_8="13000.00000" pt_clust_9="24.35591"></scales>
<clustering>
<clus scale="   24.356">  2  9  1 -1</clus>
<clus scale="   81.951">  5  6 -1 -1</clus>
<clus scale="   89.256">  7  8 -1 -1</clus>
<clus scale="   90.543">  2  5  1 -1</clus>
<clus scale="   97.204">  1  5  2 -1</clus>
</clustering>
</event>
<event>
 9    2  0.5684583E-005  0.1047917E+03  0.7546771E-02  0.1274308E+00
          2   -1    0    0  502    0  0.00000000000E+00  0.00000000000E+00  0.39902493272E+03  0.39902493272E+03  0.00000000000E+00 0. -1.
         -1   -1    0    0    0  501 -0.00000000000E+00 -0.00000000000E+00 -0.15761533732E+03  0.15761533732E+03  0.00000000000E+00 0.  1.
         24    2    1    2    0    0 -0.17179375734E+01 -0.11264233308E+03  0.57327289571E+02  0.15025609189E+03  0.81235635719E+02 0.  0.
         23    2    1    2    0    0  0.42912515698E+02  0.25041247242E+02  0.26244566206E+03  0.28183796542E+03  0.89924218910E+02 0.  0.
        -13    1    3    3    0    0  0.26681959610E+02 -0.23660993228E+02  0.42831647086E+02  0.55734366070E+02  0.00000000000E+00 0.  1.
         14    1    3    3    0    0 -0.28399897183E+02 -0.88981339849E+02  0.14495642485E+02  0.94521725822E+02  0.00000000000E+00 0. -1.
        -11    1    4    4    0    0  0.13130137600E+02 -0.29170011539E+02  0.41501189331E+02  0.52398843522E+02  0.00000000000E+00 0.  1.
         11    1    4    4    0    0  0.29782378098E+02  0.54211258782E+02  0.22094447273E+03  0.22943912189E+03  0.00000000000E+00 0. -1.
         21    1    1    2  502  501 -0.41194578125E+02  0.87601085835E+02 -0.78363356235E+02  0.12454621274E+03  0.00000000000E+00 0. -1.
<scales pt_clust_5="13000.00000" pt_clust_6="13000.00000" pt_clust_7="13000.00000" pt_clust_8="13000.00000" pt_clust_9="96.80363"></scales>
<clustering>
<clus scale="   81.236">  5  6 -1 -1</clus>
<clus scale="   89.924">  7  8 -1 -1</clus>
<clus scale="   96.804">  2  9  1 -1</clus>
<clus scale="   97.438">  2  5  1 -1</clus>
<clus scale="  104.792">  1  5  2 -1</clus>
</clustering>
</event>
<event>
 9    2  0.5684583E-005  0.1130514E+03  0.7546771E-02  0.1257536E+00
          2   -1    0    0  502    0  0.00000000000E+00  0.00000000000E+00  0.20035232882E+03  0.20035232882E+03  0.00000000000E+00 0. -1.
         -1   -1    0    0    0  501 -0.00000000000E+00 -0.00000000000E+00 -0.19220650363E+03  0.19220650363E+03  0.00000000000E+00 0.  1.
         24    2    1    2    0    0  0.42331034527E+02 -0.63335431973E+02 -0.13251693828E+03  0.17337523357E+03  0.81822608466E+02 0.  0.
         23    2    1    2    0    0 -0.58779597845E+02  0.37535535565E+02  0.14943925051E+03  0.18735253521E+03  0.88909646868E+02 0.  0.
        -13    1    3    3    0    0  0.14336972797E+02 -0.78298333587E+02 -0.87459474710E+02  0.11825961926E+03  0.00000000000E+00 0.  1.
         14    1    3    3    0    0  0.27994061730E+02  0.14962901614E+02 -0.45057463572E+02  0.55115614307E+02  0.00000000000E+00 0. -1.
        -11    1    4    4    0    0 -0.29483870066E+02  0.20298311819E+02  0.14912448871E+03  0.15336046815E+03  0.00000000000E+00 0. -1.
         11    1    4    4    0    0 -0.29295727779E+02  0.17237223746E+02  0.31476179598E+00  0.33992067068E+02  0.00000000000E+00 0.  1.
         21    1    1    2  502  501  0.16448563318E+02  0.25799896408E+02 -0.87764870346E+01  0.31831063673E+02  0.00000000000E+00 0.  1.
<scales pt_clust_5="13000.00000" pt_clust_6="13000.00000" pt_clust_7="13000.00000" pt_clust_8="13000.00000" pt_clust_9="30.59722"></scales>
<clustering>
<clus scale="   30.597">  2  9  1 -1</clus>
<clus scale="   81.823">  5  6 -1 -1</clus>
<clus scale="   88.910">  7  8 -1 -1</clus>
<clus scale="  107.567">  2  5  1 -1</clus>
<clus scale="  113.051">  1  5  2 -1</clus>
</clustering>
</event>
<event>
 9    2  0.5684583E-005  0.1659151E+03  0.7546771E-02  0.1195810E+00
          2   -1    0    0  502    0  0.00000000000E+00  0.00000000000E+00  0.71459147611E+03  0.71459147611E+03  0.00000000000E+00 0. -1.
         -1   -1    0    0    0  501 -0.00000000000E+00 -0.00000000000E+00 -0.66287583035E+03  0.66287583035E+03  0.00000000000E+00 0.  1.
         23    2    1    2    0    0  0.57949664665E+02 -0.98909234699E+02  0.28901725706E+03  0.32165468777E+03  0.82398804262E+02 0.  0.
         24    2    1    2    0    0 -0.81791851302E+02 -0.44640460952E+02  0.39156063231E+03  0.41033396961E+03  0.79822052991E+02 0.  0.
        -13    1    4    4    0    0 -0.21615760554E+02 -0.43458403202E+02  0.84656969567E+02  0.97584201639E+02  0.00000000000E+00 0.  1.
         14    1    4    4    0    0 -0.60176090748E+02 -0.11820577503E+01  0.30690366274E+03  0.31274976797E+03  0.00000000000E+00 0. -1.
        -13    1    3    3    0    0  0.20399994222E+02 -0.96447587847E+02  0.24283669479E+03  0.26208387456E+03  0.00000000000E+00 0. -1.
         13    1    3    3    0    0  0.37549670443E+02 -0.24616468517E+01  0.46180562267E+02  0.59570813213E+02  0.00000000000E+00 0.  1.
         21    1    1    2  502  501  0.23842186637E+02  0.14354969565E+03 -0.62886224361E+03  0.64547864909E+03  0.00000000000E+00 0.  1.
<scales pt_clust_5="13000.00000" pt_clust_6="13000.00000" pt_clust_7="13000.00000" pt_clust_8="13000.00000" pt_clust_9="144.00782"></scales>
<clustering>
<clus scale="   79.822">  5  6 -1 -1</clus>
<clus scale="   82.399">  7  8 -1 -1</clus>
<clus scale="  122.696">  1  5  2 -1</clus>
<clus scale="  144.008">  2  9  1 -1</clus>
<clus scale="  122.696">  1  5  2 -1</clus>
</clustering>
</event>
<event>
 9    2  0.5684583E-005  0.9016252E+02  0.7546771E-02  0.1307534E+00
          2   -1    0    0  502    0  0.00000000000E+00  0.00000000000E+00  0.13470506421E+03  0.13470506421E+03  0.00000000000E+00 0. -1.
         -1   -1    0    0    0  501 -0.00000000000E+00 -0.00000000000E+00 -0.10757074054E+03  0.10757074054E+03  0.00000000000E+00 0.  1.
         23    2    1    2    0    0 -0.17947528551E+02  0.10002064162E+02  0.24551454666E+00  0.91077427457E+02  0.88729264880E+02 0.  0.
         24    2    1    2    0    0  0.84454477637E+01  0.21064156073E+02  0.61380372724E+02  0.10381623362E+03  0.80593026669E+02 0.  0.
        -11    1    4    4    0    0 -0.24236187223E+02  0.17837112843E+02 -0.42855722451E+01  0.30396076970E+02  0.00000000000E+00 0.  1.
         12    1    4    4    0    0  0.32681634987E+02  0.32270432298E+01  0.65665944969E+02  0.73420156647E+02  0.00000000000E+00 0. -1.
        -13    1    3    3    0    0 -0.38917034479E+02 -0.23516564249E+02  0.16440830529E+02  0.48351476453E+02  0.00000000000E+00 0.  1.
         13    1    3    3    0    0  0.20969505928E+02  0.33518628411E+02 -0.16195315982E+02  0.42725951004E+02  0.00000000000E+00 0. -1.
         21    1    1    2  502  501  0.95020807876E+01 -0.31066220235E+02 -0.34491563604E+02  0.47382143671E+02  0.00000000000E+00 0.  1.
<scales pt_clust_5="13000.00000" pt_clust_6="13000.00000" pt_clust_7="13000.00000" pt_clust_8="13000.00000" pt_clust_9="32.48691"></scales>
<clustering>
<clus scale="   32.487">  2  9  1 -1</clus>
<clus scale="   80.593">  5  6 -1 -1</clus>
<clus scale="   82.168">  1  5  2 -1</clus>
<clus scale="   88.729">  7  8 -1 -1</clus>
<clus scale="   82.168">  1  5  2 -1</clus>
</clustering>
</event>
<event>
 9    2  0.5684583E-005  0.1210402E+03  0.7546771E-02  0.1260707E+00
         -1   -1    0    0    0  501 -0.00000000000E+00  0.00000000000E+00  0.68414616126E+02  0.68414616126E+02  0.00000000000E+00 0.  1.
          2   -1    0    0  502    0  0.00000000000E+00 -0.00000000000E+00 -0.36632134428E+03  0.36632134428E+03  0.00000000000E+00 0. -1.
         24    2    1    2    0    0  0.43294357296E+02 -0.54450971685E+02 -0.17760314536E+02  0.94162951628E+02  0.60925552897E+02 0.  0.
         23    2    1    2    0    0  0.32597522115E+01  0.54803861353E+02 -0.26561628640E+03  0.29180278999E+03  0.10762326628E+03 0.  0.
        -13    1    3    3    0    0  0.50582014719E+02 -0.48564707796E+02  0.42413238714E+01  0.70249981385E+02  0.00000000000E+00 0.  1.
         14    1    3    3    0    0 -0.72876574226E+01 -0.58862638891E+01 -0.22001638407E+02  0.23912970244E+02  0.00000000000E+00 0. -1.
        -13    1    4    4    0    0  0.51635160594E+02  0.33812681889E+02 -0.18876271001E+03  0.19859720027E+03  0.00000000000E+00 0. -1.
         13    1    4    4    0    0 -0.48375408382E+02  0.20991179464E+02 -0.76853576387E+02  0.93205589719E+02  0.00000000000E+00 0.  1.
         21    1    1    2  502  501 -0.46554109508E+02 -0.35288966751E+00 -0.14530127220E+02  0.48770218784E+02  0.00000000000E+00 0. -1.
<scales pt_clust_5="13000.00000" pt_clust_6="13000.00000" pt_clust_7="13000.00000" pt_clust_8="13000.00000" pt_clust_9="46.55545"></scales>
<clustering>
<clus scale="   46.555">  1  9  2 -1</clus>
<clus scale="   60.926">  5  6 -1 -1</clus>
<clus scale="   82.340">  1  5  2 -1</clus>
<clus scale="  107.623">  7  8 -1 -1</clus>
<clus scale="  121.040">  2  5  1 -1</clus>
</clustering>
</event>
<event>
 9    2  0.5684583E-005  0.1216474E+03  0.7546771E-02  0.1242447E+00
         -1   -1    0    0    0  501 -0.00000000000E+00  0.00000000000E+00  0.90415074342E+02  0.90415074342E+02  0.00000000000E+00 0.  1.
          2   -1    0    0  502    0  0.00000000000E+00 -0.00000000000E+00 -0.78971034782E+03  0.78971034782E+03  0.00000000000E+00 0. -1.
         23    2    1    2    0    0  0.96356206389E+02 -0.26821558201E+02  0.22873102896E+02  0.13523131062E+03  0.88093212239E+02 0.  0.
         24    2    1    2    0    0 -0.74193367264E+02  0.37270797053E+02 -0.70612785742E+03  0.71560800086E+03  0.81144881541E+02 0.  0.
        -13    1    4    4    0    0 -0.13821560447E+02 -0.25462274048E+02 -0.16654214025E+03  0.16904332998E+03  0.00000000000E+00 0.  1.
         14    1    4    4    0    0 -0.60371806817E+02  0.62733071101E+02 -0.53958571718E+03  0.54656467088E+03  0.00000000000E+00 0. -1.
        -11    1    3    3    0    0  0.87011817938E+02  0.95028940932E+01  0.37166267188E+02  0.95093074793E+02  0.00000000000E+00 0.  1.
         11    1    3    3    0    0  0.93443884516E+01 -0.36324452294E+02 -0.14293164292E+02  0.40138235829E+02  0.00000000000E+00 0. -1.
         21    1    1    2  502  501 -0.22162839126E+02 -0.10449238852E+02 -0.16040518949E+02  0.29286110682E+02  0.00000000000E+00 0.  1.
<scales pt_clust_5="13000.00000" pt_clust_6="13000.00000" pt_clust_7="13000.00000" pt_clust_8="13000.00000" pt_clust_9="24.50261"></scales>
<clustering>
<clus scale="   24.503">  1  9  2 -1</clus>
<clus scale="   81.145">  5  6 -1 -1</clus>
<clus scale="   88.093">  7  8 -1 -1</clus>
<clus scale="  116.714">  2  5  1 -1</clus>
<clus scale="  116.714">  2  5  1 -1</clus>
</clustering>
</event>
<event>
 9    2  0.5684583E-005  0.8767129E+02  0.7546771E-02  0.1310130E+00
         -1   -1    0    0    0  501 -0.00000000000E+00  0.00000000000E+00  0.22478587837E+03  0.22478587837E+03  0.00000000000E+00 0.  1.
          2   -1    0    0  502    0  0.00000000000E+00 -0.00000000000E+00 -0.23463289751E+03  0.23463289751E+03  0.00000000000E+00 0. -1.
         23    2    1    2    0    0  0.24675087293E+01  0.98168427982E+01  0.19803845775E+03  0.21559590078E+03  0.84616208166E+02 0.  0.
         24    2    1    2    0    0  0.27203152321E+02 -0.21390318893E+02 -0.17190059665E+03  0.19576868609E+03  0.87051743721E+02 0.  0.
        -13    1    4    4    0    0  0.32082374207E+02  0.24555312974E+02 -0.43787195255E+02  0.59578188948E+02  0.00000000000E+00 0.  1.
         14    1    4    4    0    0 -0.48792218856E+01 -0.45945631867E+02 -0.12811340140E+03  0.13619049714E+03  0.00000000000E+00 0. -1.
        -11    1    3    3    0    0 -0.13394061655E+02  0.35377167090E+02  0.17104656983E+03  0.17517954757E+03  0.00000000000E+00 0.  1.
         11    1    3    3    0    0  0.15861570385E+02 -0.25560324292E+02  0.26991887923E+02  0.40416353208E+02  0.00000000000E+00 0. -1.
         21    1    1    2  502  501 -0.29670661050E+02  0.11573476095E+02 -0.35984880239E+02  0.48054189015E+02  0.00000000000E+00 0. -1.
<scales pt_clust_5="13000.00000" pt_clust_6="13000.00000" pt_clust_7="13000.00000" pt_clust_8="13000.00000" pt_clust_9="31.84797"></scales>
<clustering>
<clus scale="   31.848">  2  9  1 -1</clus>
<clus scale="   84.616">  7  8 -1 -1</clus>
<clus scale="   85.253">  1  7  2 -1</clus>
<clus scale="   87.052">  5  6 -1 -1</clus>
<clus scale="   31.848">  2  5  1 -1</clus>
</clustering>
</event>
<event>
 9    2  0.5684583E-005  0.1004111E+03  0.7546771E-02  0.1285924E+00
         -1   -1    0    0    0  501 -0.00000000000E+00  0.00000000000E+00  0.36316446058E+02  0.36316446058E+02  0.00000000000E+00 0.  1.
          2   -1    0    0  502    0  0.00000000000E+00 -0.00000000000E+00 -0.14495801163E+04  0.14495801163E+04  0.00000000000E+00 0. -1.
         23    2    1    2    0    0  0.14576974846E+02  0.59125112468E+01 -0.13557157252E+03  0.16567325958E+03  0.93917685654E+02 0.  0.
         24    2    1    2    0    0 -0.17354069287E+02 -0.33760957556E+02 -0.12874551651E+04  0.12905826938E+04  0.81375188599E+02 0.  0.
        -11    1    4    4    0    0 -0.27849893641E+02 -0.52491301502E+01 -0.14610554237E+03  0.14882875883E+03  0.00000000000E+00 0.  1.
         12    1    4    4    0    0  0.10495824354E+02 -0.28511827405E+02 -0.11413496227E+04  0.11417539349E+04  0.00000000000E+00 0. -1.
        -11    1    3    3    0    0 -0.36175492283E+01  0.47420641098E+02 -0.87611442411E+02  0.99687354795E+02  0.00000000000E+00 0.  1.
         11    1    3    3    0    0  0.18194524074E+02 -0.41508129851E+02 -0.47960130109E+02  0.65985904784E+02  0.00000000000E+00 0. -1.
         21    1    1    2  502  501  0.27770944410E+01  0.27848446309E+02  0.97630674156E+01  0.29640608980E+02  0.00000000000E+00 0. -1.
<scales pt_clust_5="13000.00000" pt_clust_6="13000.00000" pt_clust_7="13000.00000" pt_clust_8="13000.00000" pt_clust_9="27.98657"></scales>
<clustering>
<clus scale="   27.987">  1  9  2 -1</clus>
<clus scale="   81.375">  5  6 -1 -1</clus>
<clus scale="   88.791">  2  5  1 -1</clus>
<clus scale="   93.918">  7  8 -1 -1</clus>
<clus scale="   88.791">  2  5  1 -1</clus>
</clustering>
</event>
<event>
 9    2  0.5684583E-005  0.1074810E+03  0.7546771E-02  0.1271542E+00
         -3   -1    0    0    0  501 -0.00000000000E+00  0.00000000000E+00  0.36093119329E+03  0.36093119329E+03  0.00000000000E+00 0.  1.
          4   -1    0    0  502    0  0.00000000000E+00 -0.00000000000E+00 -0.56905760403E+02  0.56905760403E+02  0.00000000000E+00 0. -1.
         24    2    1    2    0    0 -0.38683311026E+02 -0.37759802313E+02  0.13899054639E+03  0.16821448089E+03  0.77817339779E+02 0.  0.
         23    2    1    2    0    0  0.57407974902E+02  0.10786740448E+02  0.33908558024E+02  0.11444750056E+03  0.92392698444E+02 0.  0.
        -13    1    3    3    0    0 -0.18356564808E+02 -0.48675935372E+02  0.13516041547E+03  0.14482626856E+03  0.00000000000E+00 0.  1.
         14    1    3    3    0    0 -0.20326746217E+02  0.10916133059E+02  0.38301309238E+01  0.23388212323E+02  0.00000000000E+00 0. -1.
        -13    1    4    4    0    0  0.47018891945E+02 -0.37301573341E+02  0.16283076395E+02  0.62187797440E+02  0.00000000000E+00 0.  1.
         13    1    4    4    0    0  0.10389082957E+02  0.48088313789E+02  0.17625481629E+02  0.52259703122E+02  0.00000000000E+00 0. -1.
         21    1    1    2  502  501 -0.18724663876E+02  0.26973061865E+02  0.13112632847E+03  0.13517497224E+03  0.00000000000E+00 0. -1.
<scales pt_clust_5="13000.00000" pt_clust_6="13000.00000" pt_clust_7="13000.00000" pt_clust_8="13000.00000" pt_clust_9="32.83533"></scales>
<clustering>
<clus scale="   32.835">  1  9  2 -1</clus>
<clus scale="   77.817">  5  6 -1 -1</clus>
<clus scale="   92.393">  7  8 -1 -1</clus>
<clus scale="   95.243">  1  5  2 -1</clus>
<clus scale="  107.481">  2  5  1 -1</clus>
</clustering>
</event>
<event>
 9    2  0.5684583E-005  0.1199622E+03  0.7546771E-02  0.1246920E+00
          2   -1    0    0  502    0  0.00000000000E+00  0.00000000000E+00  0.46090459696E+03  0.46090459696E+03  0.00000000000E+00 0. -1.
         -1   -1    0    0    0  501 -0.00000000000E+00 -0.00000000000E+00 -0.77096417514E+02  0.77096417514E+02  0.00000000000E+00 0.  1.
         23    2    1    2    0    0 -0.79781432225E+02 -0.18689054615E+02  0.48499500836E+02  0.13283818826E+03  0.92625185500E+02 0.  0.
         24    2    1    2    0    0  0.65601406894E+02  0.37701298228E+02  0.35651804858E+03  0.37334497116E+03  0.80971699096E+02 0.  0.
        -13    1    4    4    0    0  0.62728488792E+02  0.52284701391E+02  0.19866545149E+03  0.21479412217E+03  0.00000000000E+00 0.  1.
         14    1    4    4    0    0  0.28729181028E+01 -0.14583403163E+02  0.15785259709E+03  0.15855084899E+03  0.00000000000E+00 0. -1.
        -13    1    3    3    0    0 -0.87569888963E+02 -0.42886183693E+02  0.44198973492E+02  0.10705727188E+03  0.00000000000E+00 0.  1.
         13    1    3    3    0    0  0.77884567377E+01  0.24197129079E+02  0.43005273437E+01  0.25780916381E+02  0.00000000000E+00 0. -1.
         21    1    1    2  502  501  0.14180025331E+02 -0.19012243613E+02 -0.21209369969E+02  0.31817855051E+02  0.00000000000E+00 0.  1.
<scales pt_clust_5="13000.00000" pt_clust_6="13000.00000" pt_clust_7="13000.00000" pt_clust_8="13000.00000" pt_clust_9="23.71789"></scales>
<clustering>
<clus scale="   23.718">  2  9  1 -1</clus>
<clus scale="   80.972">  5  6 -1 -1</clus>
<clus scale="   92.625">  7  8 -1 -1</clus>
<clus scale="  111.211">  1  5  2 -1</clus>
<clus scale="  111.211">  1  5  2 -1</clus>
</clustering>
</event>
<event>
 9    2  0.5684583E-005  0.1102431E+03  0.7546771E-02  0.1270212E+00
         -1   -1    0    0    0  501 -0.00000000000E+00  0.00000000000E+00  0.19393914102E+03  0.19393914102E+03  0.00000000000E+00 0.  1.
          2   -1    0    0  502    0  0.00000000000E+00 -0.00000000000E+00 -0.78169606816E+02  0.78169606816E+02  0.00000000000E+00 0. -1.
         24    2    1    2    0    0  0.78027558813E+01  0.70471990542E+02  0.48714903626E+02  0.11008467695E+03  0.68689954249E+02 0.  0.
         23    2    1    2    0    0  0.24713181425E+02 -0.46065838327E+02  0.46637739373E+02  0.11652906136E+03  0.93118959456E+02 0.  0.
        -11    1    3    3    0    0  0.13493071854E+02  0.31141673560E+02 -0.13281161153E+02  0.36445247451E+02  0.00000000000E+00 0.  1.
         12    1    3    3    0    0 -0.56903159725E+01  0.39330316981E+02  0.61996064778E+02  0.73639429504E+02  0.00000000000E+00 0. -1.
        -13    1    4    4    0    0  0.44961337443E+02 -0.40420564854E+02 -0.51099143908E+01  0.60674996109E+02  0.00000000000E+00 0.  1.
         13    1    4    4    0    0 -0.20248156018E+02 -0.56452734734E+01  0.51747653764E+02  0.55854065249E+02  0.00000000000E+00 0. -1.
         21    1    1    2  502  501 -0.32515937307E+02 -0.24406152215E+02  0.20416891202E+02  0.45495009520E+02  0.00000000000E+00 0. -1.
<scales pt_clust_5="13000.00000" pt_clust_6="13000.00000" pt_clust_7="13000.00000" pt_clust_8="13000.00000" pt_clust_9="40.65644"></scales>
<clustering>
<clus scale="   40.656">  1  9  2 -1</clus>
<clus scale="   68.690">  5  6 -1 -1</clus>
<clus scale="   90.558">  1  5  2 -1</clus>
<clus scale="   93.119">  7  8 -1 -1</clus>
<clus scale="  110.243">  2  5  1 -1</clus>
</clustering>
</event>
<event>
 9    2  0.5684583E-005  0.9259949E+02  0.7546771E-02  0.1303390E+00
          2   -1    0    0  502    0  0.00000000000E+00  0.00000000000E+00  0.68867570517E+03  0.68867570517E+03  0.00000000000E+00 0. -1.
         -1   -1    0    0    0  501 -0.00000000000E+00 -0.00000000000E+00 -0.34025192331E+02  0.34025192331E+02  0.00000000000E+00 0.  1.
         23    2    1    2    0    0  0.51972668200E+02  0.30859871510E+02  0.11376221870E+03  0.15782538003E+03  0.91178496746E+02 0.  0.
         24    2    1    2    0    0 -0.64300266199E+01 -0.69447023197E+01  0.47222114420E+03  0.47907781936E+03  0.80207068549E+02 0.  0.
        -11    1    4    4    0    0 -0.74909865020E+00  0.29222252620E+02  0.80384898104E+02  0.85534981383E+02  0.00000000000E+00 0.  1.
         12    1    4    4    0    0 -0.56809279697E+01 -0.36166954940E+02  0.39183624609E+03  0.39354283798E+03  0.00000000000E+00 0. -1.
        -11    1    3    3    0    0  0.63612367090E+02 -0.12209235194E+02  0.68184307282E+02  0.94046256865E+02  0.00000000000E+00 0.  1.
         11    1    3    3    0    0 -0.11639698889E+02  0.43069106705E+02  0.45577911416E+02  0.63779123164E+02  0.00000000000E+00 0. -1.
         21    1    1    2  502  501 -0.45542641580E+02 -0.23915169191E+02  0.68667149946E+02  0.85797698112E+02  0.00000000000E+00 0. -1.
<scales pt_clust_5="13000.00000" pt_clust_6="13000.00000" pt_clust_7="13000.00000" pt_clust_8="13000.00000" pt_clust_9="51.43994"></scales>
<clustering>
<clus scale="   51.440">  2  9  1 -1</clus>
<clus scale="   80.207">  5  6 -1 -1</clus>
<clus scale="   81.819">  1  5  2 -1</clus>
<clus scale="   91.178">  7  8 -1 -1</clus>
<clus scale="   81.819">  1  5  2 -1</clus>
</clustering>
</event>
<event>
 9    2  0.5684583E-005  0.1070005E+03  0.7546771E-02  0.1270284E+00
         -1   -1    0    0    0  501 -0.00000000000E+00  0.00000000000E+00  0.12099942996E+03  0.12099942996E+03  0.00000000000E+00 0.  1.
          2   -1    0    0  502    0  0.00000000000E+00 -0.00000000000E+00 -0.93524775990E+03  0.93524775990E+03  0.00000000000E+00 0. -1.
         23    2    1    2    0    0 -0.99591639417E+01 -0.14495764948E+02 -0.56363949479E+02  0.10827757965E+03  0.90762477415E+02 0.  0.
         24    2    1    2    0    0  0.54474361737E+02  0.28547892474E+02 -0.84394891663E+03  0.85006062437E+03  0.81060797987E+02 0.  0.
        -13    1    4    4    0    0  0.22248423319E+02  0.20597602511E+02 -0.82603183836E+02  0.87991701593E+02  0.00000000000E+00 0.  1.
         14    1    4    4    0    0  0.32225938418E+02  0.79502899630E+01 -0.76134573279E+03  0.76206892278E+03  0.00000000000E+00 0. -1.
        -11    1    3    3    0    0  0.30315703149E+02  0.59478613495E+01 -0.55009408443E+02  0.63090838711E+02  0.00000000000E+00 0. -1.
         11    1    3    3    0    0 -0.40274867091E+02 -0.20443626298E+02 -0.13545410360E+01  0.45186740940E+02  0.00000000000E+00 0.  1.
         21    1    1    2  502  501 -0.44515197795E+02 -0.14052127526E+02  0.86064536165E+02  0.97908985839E+02  0.00000000000E+00 0.  1.
<scales pt_clust_5="13000.00000" pt_clust_6="13000.00000" pt_clust_7="13000.00000" pt_clust_8="13000.00000" pt_clust_9="46.68046"></scales>
<clustering>
<clus scale="   46.680">  1  9  2 -1</clus>
<clus scale="   81.061">  5  6 -1 -1</clus>
<clus scale="   90.762">  7  8 -1 -1</clus>
<clus scale="   98.905">  2  5  1 -1</clus>
<clus scale="   98.905">  2  5  1 -1</clus>
</clustering>
</event>
<event>
 9    2  0.5684583E-005  0.1776662E+03  0.7546771E-02  0.1172274E+00
         -1   -1    0    0    0  501 -0.00000000000E+00  0.00000000000E+00  0.11251296402E+03  0.11251296402E+03  0.00000000000E+00 0.  1.
          2   -1    0    0  502    0  0.00000000000E+00 -0.00000000000E+00 -0.54982108090E+03  0.54982108090E+03  0.00000000000E+00 0. -1.
         24    2    1    2    0    0 -0.13706841186E+03 -0.18030828461E+03 -0.23587151757E+03  0.33647753414E+03  0.79264942794E+02 0.  0.
         23    2    1    2    0    0  0.10055131910E+03  0.74332448394E+02 -0.14682776341E+03  0.20117090262E+03  0.57231628427E+02 0.  0.
        -13    1    3    3    0    0 -0.15267588365E+02 -0.23360319512E+02 -0.77625508944E+02  0.82489535221E+02  0.00000000000E+00 0.  1.
         14    1    3    3    0    0 -0.12180082350E+03 -0.15694796509E+03 -0.15824600862E+03  0.25398799892E+03  0.00000000000E+00 0. -1.
        -11    1    4    4    0    0  0.77112712372E+02  0.59768027306E+02 -0.71529621110E+02  0.12097551072E+03  0.00000000000E+00 0.  1.
         11    1    4    4    0    0  0.23438606731E+02  0.14564421088E+02 -0.75298142304E+02  0.80195391897E+02  0.00000000000E+00 0. -1.
         21    1    1    2  502  501  0.36517092758E+02  0.10597583621E+03 -0.54608835901E+02  0.12468560816E+03  0.00000000000E+00 0.  1.
<scales pt_clust_5="13000.00000" pt_clust_6="13000.00000" pt_clust_7="13000.00000" pt_clust_8="13000.00000" pt_clust_9="112.09093"></scales>
<clustering>
<clus scale="   57.232">  7  8 -1 -1</clus>
<clus scale="   79.265">  5  6 -1 -1</clus>
<clus scale="  112.091">  1  9  2 -1</clus>
<clus scale="  168.991">  2  7  1 -1</clus>
<clus scale="  168.991">  2  5  1 -1</clus>
</clustering>
</event>
<event>
 9    2  0.5684583E-005  0.9649221E+02  0.7546771E-02  0.1294080E+00
         -1   -1    0    0    0  501 -0.00000000000E+00  0.00000000000E+00  0.31861182688E+03  0.31861182688E+03  0.00000000000E+00 0.  1.
          2   -1    0    0  502    0  0.00000000000E+00 -0.00000000000E+00 -0.70320622997E+02  0.70320622997E+02  0.00000000000E+00 0. -1.
         23    2    1    2    0    0 -0.38204422386E+02 -0.18667635676E+02  0.96800272712E+02  0.13951999204E+03  0.91035580247E+02 0.  0.
         24    2    1    2    0    0  0.29974644223E+02 -0.46007475590E+01 -0.10168363845E+02  0.85879970016E+02  0.79701489649E+02 0.  0.
        -13    1    4    4    0    0 -0.19653958458E+02  0.79068171302E+01 -0.24831510271E+02  0.32640461739E+02  0.00000000000E+00 0.  1.
         14    1    4    4    0    0  0.49628602681E+02 -0.12507564689E+02  0.14663146426E+02  0.53239508278E+02  0.00000000000E+00 0. -1.
        -13    1    3    3    0    0 -0.11858517690E+02 -0.17109456154E+02  0.10862382601E+03  0.11060060356E+03  0.00000000000E+00 0.  1.
         13    1    3    3    0    0 -0.26345904696E+02 -0.15581795219E+01 -0.11823553294E+02  0.28919388482E+02  0.00000000000E+00 0. -1.
         21    1    1    2  502  501  0.82297781622E+01  0.23268383235E+02  0.16165929502E+03  0.16353248782E+03  0.00000000000E+00 0.  1.
<scales pt_clust_5="13000.00000" pt_clust_6="13000.00000" pt_clust_7="13000.00000" pt_clust_8="13000.00000" pt_clust_9="24.68090"></scales>
<clustering>
<clus scale="   24.681">  1  9  2 -1</clus>
<clus scale="   79.701">  5  6 -1 -1</clus>
<clus scale="   85.881">  2  5  1 -1</clus>
<clus scale="   91.036">  7  8 -1 -1</clus>
<clus scale="   85.881">  2  5  1 -1</clus>
</clustering>
</event>
<event>
 9    2  0.5684583E-005  0.1341900E+03  0.7546771E-02  0.1241150E+00
          2   -1    0    0  502    0  0.00000000000E+00  0.00000000000E+00  0.45900734603E+02  0.45900734603E+02  0.00000000000E+00 0. -1.
         -1   -1    0    0    0  501 -0.00000000000E+00 -0.00000000000E+00 -0.78657659331E+03  0.78657659331E+03  0.00000000000E+00 0.  1.
         24    2    1    2    0    0  0.47945808270E+02  0.10071710957E+03 -0.13888717034E+03  0.19570674516E+03  0.81047808887E+02 0.  0.
         23    2    1    2    0    0 -0.19420238261E+02  0.15937715014E+01 -0.16884445300E+03  0.19098819698E+03  0.87111172148E+02 0.  0.
        -13    1    3    3    0    0  0.19506414577E+02  0.95926907456E+02 -0.13477714850E+03  0.16657536295E+03  0.00000000000E+00 0.  1.
         14    1    3    3    0    0  0.28439393693E+02  0.47902021164E+01 -0.41100218349E+01  0.29131382209E+02  0.00000000000E+00 0. -1.
        -11    1    4    4    0    0 -0.46077098518E+02 -0.20684536301E+02 -0.12653943269E+03  0.13624675070E+03  0.00000000000E+00 0.  1.
         11    1    4    4    0    0  0.26656860257E+02  0.22278307802E+02 -0.42305020313E+02  0.54741446281E+02  0.00000000000E+00 0. -1.
         21    1    1    2  502  501 -0.28525570009E+02 -0.10231088107E+03 -0.43294423537E+03  0.44578238578E+03  0.00000000000E+00 0.  1.
<scales pt_clust_5="13000.00000" pt_clust_6="13000.00000" pt_clust_7="13000.00000" pt_clust_8="13000.00000" pt_clust_9="106.94959"></scales>
<clustering>
<clus scale="   81.048">  5  6 -1 -1</clus>
<clus scale="   87.111">  7  8 -1 -1</clus>
<clus scale="   89.264">  1  7  2 -1</clus>
<clus scale="  106.950">  2  9  1 -1</clus>
<clus scale="   89.264">  1  5  2 -1</clus>
</clustering>
</event>
<event>
 9    2  0.5684583E-005  0.9440522E+02  0.7546771E-02  0.1299470E+00
          2   -1    0    0  502    0  0.00000000000E+00  0.00000000000E+00  0.18963046230E+03  0.18963046230E+03  0.00000000000E+00 0. -1.
         -1   -1    0    0    0  501 -0.00000000000E+00 -0.00000000000E+00 -0.70574728738E+02  0.70574728738E+02  0.00000000000E+00 0.  1.
         24    2    1    2    0    0  0.69589769170E+00 -0.25449491791E+02 -0.12132667453E+02  0.85216678805E+02  0.80414674165E+02 0.  0.
         23    2    1    2    0    0  0.36594097474E+01  0.30342604713E+01  0.11234749150E+03  0.14538460760E+03  0.92152738780E+02 0.  0.
        -13    1    3    3    0    0  0.24187329359E+02 -0.22640126957E+02 -0.37830376513E+02  0.50286575120E+02  0.00000000000E+00 0.  1.
         14    1    3    3    0    0 -0.23491431667E+02 -0.28093648336E+01  0.25697709060E+02  0.34930103686E+02  0.00000000000E+00 0. -1.
        -11    1    4    4    0    0  0.94650951957E+01 -0.20024831161E+02 -0.73587247041E+01  0.23339509836E+02  0.00000000000E+00 0.  1.
         11    1    4    4    0    0 -0.58056854482E+01  0.23059091632E+02  0.11970621621E+03  0.12204509777E+03  0.00000000000E+00 0. -1.
         21    1    1    2  502  501 -0.43553074391E+01  0.22415231320E+02  0.18840909506E+02  0.29603904625E+02  0.00000000000E+00 0. -1.
<scales pt_clust_5="13000.00000" pt_clust_6="13000.00000" pt_clust_7="13000.00000" pt_clust_8="13000.00000" pt_clust_9="22.83443"></scales>
<clustering>
<clus scale="   22.834">  1  9  2 -1</clus>
<clus scale="   80.415">  5  6 -1 -1</clus>
<clus scale="   82.986">  2  5  1 -1</clus>
<clus scale="   92.153">  7  8 -1 -1</clus>
<clus scale="   22.834">  1  5  2 -1</clus>
</clustering>
</event>
<event>
 9    2  0.5684583E-005  0.9978104E+02  0.7546771E-02  0.1286204E+00
         -1   -1    0    0    0  501 -0.00000000000E+00  0.00000000000E+00  0.87174259678E+02  0.87174259678E+02  0.00000000000E+00 0.  1.
          2   -1    0    0  502    0  0.00000000000E+00 -0.00000000000E+00 -0.47899852688E+03  0.47899852688E+03  0.00000000000E+00 0. -1.
         24    2    1    2    0    0 -0.33747775057E+02  0.12339237432E+02 -0.56144028876E+02  0.10491116529E+03  0.81012539293E+02 0.  0.
         23    2    1    2    0    0  0.39861011021E+02  0.12112673914E+02 -0.38923806527E+03  0.40206948962E+03  0.91749582884E+02 0.  0.
        -11    1    3    3    0    0 -0.55195101037E+02 -0.11447105786E+02 -0.39366674715E+02  0.68755148807E+02  0.00000000000E+00 0.  1.
         12    1    3    3    0    0  0.21447325980E+02  0.23786343218E+02 -0.16777354161E+02  0.36156016484E+02  0.00000000000E+00 0. -1.
        -13    1    4    4    0    0  0.35843660101E+02 -0.36906190337E+02 -0.18860611831E+03  0.19549706575E+03  0.00000000000E+00 0.  1.
         13    1    4    4    0    0  0.40173509204E+01  0.49018864251E+02 -0.20063194696E+03  0.20657242386E+03  0.00000000000E+00 0. -1.
         21    1    1    2  502  501 -0.61132359643E+01 -0.24451911346E+02  0.53557826941E+02  0.59192131649E+02  0.00000000000E+00 0.  1.
<scales pt_clust_5="13000.00000" pt_clust_6="13000.00000" pt_clust_7="13000.00000" pt_clust_8="13000.00000" pt_clust_9="25.20452"></scales>
<clustering>
<clus scale="   25.205">  1  9  2 -1</clus>
<clus scale="   81.013">  5  6 -1 -1</clus>
<clus scale="   90.007">  1  5  2 -1</clus>
<clus scale="   91.750">  7  8 -1 -1</clus>
<clus scale="   99.781">  2  5  1 -1</clus>
</clustering>
</event>
<event>
 9    2  0.5684583E-005  0.9500596E+02  0.7546771E-02  0.1297501E+00
          2   -1    0    0  502    0  0.00000000000E+00  0.00000000000E+00  0.73953053042E+02  0.73953053042E+02  0.00000000000E+00 0. -1.
         -1   -1    0    0    0  501 -0.00000000000E+00 -0.00000000000E+00 -0.25157249939E+03  0.25157249939E+03  0.00000000000E+00 0.  1.
         24    2    1    2    0    0 -0.64983188023E+01 -0.76256661007E+01 -0.14389968362E+03  0.16437131504E+03  0.78806289909E+02 0.  0.
         23    2    1    2    0    0  0.36449904932E+02 -0.35120080421E+01  0.19445304992E+02  0.99124649921E+02  0.90036917793E+02 0.  0.
        -13    1    3    3    0    0 -0.12080062542E+02  0.29870490761E+02 -0.10590923379E+03  0.11070203219E+03  0.00000000000E+00 0.  1.
         14    1    3    3    0    0  0.55817437399E+01 -0.37496156862E+02 -0.37990449832E+02  0.53669282844E+02  0.00000000000E+00 0. -1.
        -13    1    4    4    0    0  0.21779816176E+02 -0.46521372962E+02  0.14733824901E+02  0.53438601508E+02  0.00000000000E+00 0.  1.
         13    1    4    4    0    0  0.14670088756E+02  0.43009364920E+02  0.47114800901E+01  0.45686048413E+02  0.00000000000E+00 0. -1.
         21    1    1    2  502  501 -0.29951586130E+02  0.11137674143E+02 -0.53165067716E+02  0.62029587474E+02  0.00000000000E+00 0. -1.
<scales pt_clust_5="13000.00000" pt_clust_6="13000.00000" pt_clust_7="13000.00000" pt_clust_8="13000.00000" pt_clust_9="31.95536"></scales>
<clustering>
<clus scale="   31.955">  2  9  1 -1</clus>
<clus scale="   78.806">  5  6 -1 -1</clus>
<clus scale="   84.439">  2  5  1 -1</clus>
<clus scale="   90.037">  7  8 -1 -1</clus>
<clus scale="   95.006">  1  5  2 -1</clus>
</clustering>
</event>
<event>
 9    2  0.5684583E-005  0.9840415E+02  0.7546771E-02  0.1291963E+00
          2   -1    0    0  502    0  0.00000000000E+00  0.00000000000E+00  0.90084931729E+02  0.90084931729E+02  0.00000000000E+00 0. -1.
         -1   -1    0    0    0  501 -0.00000000000E+00 -0.00000000000E+00 -0.17536346804E+03  0.17536346804E+03  0.00000000000E+00 0.  1.
         24    2    1    2    0    0 -0.23717416639E+02 -0.24172219346E+02 -0.74976204994E+02  0.11556859598E+03  0.81165614765E+02 0.  0.
         23    2    1    2    0    0  0.22015035601E+02 -0.89360705009E+01  0.24626814658E+02  0.10172274620E+03  0.95794164463E+02 0.  0.
        -13    1    3    3    0    0 -0.41533127879E+02 -0.12479904244E+02 -0.82306819638E+02  0.93033119266E+02  0.00000000000E+00 0.  1.
         14    1    3    3    0    0  0.17815711240E+02 -0.11692315103E+02  0.73306146443E+01  0.22535476710E+02  0.00000000000E+00 0. -1.
        -13    1    4    4    0    0 -0.14445422630E+02 -0.38621653854E+02  0.34401169613E+02  0.53700492103E+02  0.00000000000E+00 0. -1.
         13    1    4    4    0    0  0.36460458231E+02  0.29685583353E+02 -0.97743549552E+01  0.48022254093E+02  0.00000000000E+00 0.  1.
         21    1    1    2  502  501  0.17023810381E+01  0.33108289847E+02 -0.34929145971E+02  0.48157057594E+02  0.00000000000E+00 0.  1.
<scales pt_clust_5="13000.00000" pt_clust_6="13000.00000" pt_clust_7="13000.00000" pt_clust_8="13000.00000" pt_clust_9="33.15203"></scales>
<clustering>
<clus scale="   33.152">  2  9  1 -1</clus>
<clus scale="   81.166">  5  6 -1 -1</clus>
<clus scale="   84.230">  2  5  1 -1</clus>
<clus scale="   95.794">  7  8 -1 -1</clus>
<clus scale="   98.404">  1  5  2 -1</clus>
</clustering>
</event>
<event>
 9    2  0.5684583E-005  0.1738049E+03  0.7546771E-02  0.1175047E+00
          2   -1    0    0  502    0  0.00000000000E+00  0.00000000000E+00  0.41960772748E+03  0.41960772748E+03  0.00000000000E+00 0. -1.
         -1   -1    0    0    0  501 -0.00000000000E+00 -0.00000000000E+00 -0.27280349653E+03  0.27280349653E+03  0.00000000000E+00 0.  1.
         23    2    1    2    0    0  0.39116786213E+02  0.12798690765E+03 -0.18119109705E+03  0.24274886104E+03  0.90476651105E+02 0.  0.
         24    2    1    2    0    0  0.43906831855E+01 -0.15028124027E+03  0.35477717983E+03  0.39392005633E+03  0.81868395471E+02 0.  0.
        -13    1    4    4    0    0  0.30406240858E+02 -0.11210454450E+03  0.18912495903E+03  0.22194643162E+03  0.00000000000E+00 0.  1.
         14    1    4    4    0    0 -0.26015557673E+02 -0.38176695770E+02  0.16565222080E+03  0.17197362471E+03  0.00000000000E+00 0. -1.
        -11    1    3    3    0    0  0.16128428388E+02  0.13541767461E+03 -0.16288481110E+03  0.21243713067E+03  0.00000000000E+00 0.  1.
         11    1    3    3    0    0  0.22988357825E+02 -0.74307669627E+01 -0.18306285948E+02  0.30311730376E+02  0.00000000000E+00 0. -1.
         21    1    1    2  502  501 -0.43507469398E+02  0.22294332622E+02 -0.26781851834E+02  0.55742306628E+02  0.00000000000E+00 0.  1.
<scales pt_clust_5="13000.00000" pt_clust_6="13000.00000" pt_clust_7="13000.00000" pt_clust_8="13000.00000" pt_clust_9="48.88698"></scales>
<clustering>
<clus scale="   48.887">  2  9  1 -1</clus>
<clus scale="   81.868">  5  6 -1 -1</clus>
<clus scale="   90.477">  7  8 -1 -1</clus>
<clus scale="  169.483">  1  5  2 -1</clus>
<clus scale="  169.483">  1  5  2 -1</clus>
</clustering>
</event>
<event>
 9    2  0.5684583E-005  0.1011633E+03  0.7546771E-02  0.1283470E+00
          2   -1    0    0  502    0  0.00000000000E+00  0.00000000000E+00  0.45945468821E+03  0.45945468821E+03  0.00000000000E+00 0. -1.
         -1   -1    0    0    0  501 -0.00000000000E+00 -0.00000000000E+00 -0.11669815071E+03  0.11669815071E+03  0.00000000000E+00 0.  1.
         24    2    1    2    0    0  0.31279433158E+01 -0.57978579490E+01  0.43581084693E+02  0.93553913798E+02  0.82520449937E+02 0.  0.
         23    2    1    2    0    0  0.45824783430E+02 -0.22981201313E+02  0.37384263193E+03  0.38879172206E+03  0.93662389996E+02 0.  0.
        -11    1    3    3    0    0  0.29700156427E+02  0.26603487031E+02  0.13993188920E+02  0.42257001197E+02  0.00000000000E+00 0.  1.
         12    1    3    3    0    0 -0.26572213111E+02 -0.32401344980E+02  0.29587895773E+02  0.51296912601E+02  0.00000000000E+00 0. -1.
        -11    1    4    4    0    0  0.73980157506E+02 -0.10566869364E+02  0.29022834684E+03  0.29969520474E+03  0.00000000000E+00 0. -1.
         11    1    4    4    0    0 -0.28155374076E+02 -0.12414331948E+02  0.83614285093E+02  0.89096517321E+02  0.00000000000E+00 0.  1.
         21    1    1    2  502  501 -0.48952726746E+02  0.28779059262E+02 -0.74667179129E+02  0.93807203065E+02  0.00000000000E+00 0.  1.
<scales pt_clust_5="13000.00000" pt_clust_6="13000.00000" pt_clust_7="13000.00000" pt_clust_8="13000.00000" pt_clust_9="56.78559"></scales>
<clustering>
<clus scale="   56.786">  2  9  1 -1</clus>
<clus scale="   82.520">  5  6 -1 -1</clus>
<clus scale="   90.945">  2  5  1 -1</clus>
<clus scale="   93.662">  7  8 -1 -1</clus>
<clus scale="  101.163">  1  5  2 -1</clus>
</clustering>
</event>
<event>
 9    2  0.5684583E-005  0.9455647E+02  0.7546771E-02  0.1298861E+00
         -3   -1    0    0    0  501 -0.00000000000E+00  0.00000000000E+00  0.19837588962E+03  0.19837588962E+03  0.00000000000E+00 0.  1.
          4   -1    0    0  502    0  0.00000000000E+00 -0.00000000000E+00 -0.81816332825E+02  0.81816332825E+02  0.00000000000E+00 0. -1.
         23    2    1    2    0    0 -0.13909583456E+02 -0.70096725894E+01  0.10056868350E+03  0.13672345771E+03  0.91305157384E+02 0.  0.
         24    2    1    2    0    0  0.23187355725E+02  0.49200633924E+02 -0.21460575156E+01  0.96616843370E+02  0.79823887502E+02 0.  0.
        -11    1    4    4    0    0 -0.23104850015E+02 -0.56196649018E+01  0.56584694034E+01  0.24442442673E+02  0.00000000000E+00 0.  1.
         12    1    4    4    0    0  0.46292205740E+02  0.54820298825E+02 -0.78045269190E+01  0.72174400697E+02  0.00000000000E+00 0. -1.
        -11    1    3    3    0    0  0.19296106787E+02 -0.40871798011E+02  0.49084997815E+02  0.66724662759E+02  0.00000000000E+00 0.  1.
         11    1    3    3    0    0 -0.33205690243E+02  0.33862125421E+02  0.51483685687E+02  0.69998794951E+02  0.00000000000E+00 0. -1.
         21    1    1    2  502  501 -0.92777722688E+01 -0.42190961334E+02  0.18136930809E+02  0.46851921366E+02  0.00000000000E+00 0. -1.
<scales pt_clust_5="13000.00000" pt_clust_6="13000.00000" pt_clust_7="13000.00000" pt_clust_8="13000.00000" pt_clust_9="43.19901"></scales>
<clustering>
<clus scale="   43.199">  2  9  1 -1</clus>
<clus scale="   79.824">  5  6 -1 -1</clus>
<clus scale="   83.523">  2  5  1 -1</clus>
<clus scale="   91.305">  7  8 -1 -1</clus>
<clus scale="   43.199">  2  5  1 -1</clus>
</clustering>
</event>
<event>
 9    2  0.5684583E-005  0.1120624E+03  0.7546771E-02  0.1261194E+00
         -1   -1    0    0    0  501 -0.00000000000E+00  0.00000000000E+00  0.69616649337E+02  0.69616649337E+02  0.00000000000E+00 0.  1.
          2   -1    0    0  502    0  0.00000000000E+00 -0.00000000000E+00 -0.36343765458E+03  0.36343765458E+03  0.00000000000E+00 0. -1.
         24    2    1    2    0    0  0.36672493074E+02 -0.52338525442E+02 -0.69149019594E+02  0.12419600917E+03  0.80986843309E+02 0.  0.
         23    2    1    2    0    0 -0.51638092922E+02  0.37853812608E+02 -0.25113731079E+03  0.27518056442E+03  0.92493191061E+02 0.  0.
        -11    1    3    3    0    0  0.43522037608E+02 -0.61815751966E+02 -0.26716591581E+02  0.80181863375E+02  0.00000000000E+00 0.  1.
         12    1    3    3    0    0 -0.68495445338E+01  0.94772265237E+01 -0.42432428013E+02  0.44014145794E+02  0.00000000000E+00 0. -1.
        -11    1    4    4    0    0 -0.18091032644E+02 -0.31001529558E+02 -0.78944050886E+02  0.86721067033E+02  0.00000000000E+00 0.  1.
         11    1    4    4    0    0 -0.33547060278E+02  0.68855342165E+02 -0.17219325991E+03  0.18845949739E+03  0.00000000000E+00 0. -1.
         21    1    1    2  502  501  0.14965599848E+02  0.14484712834E+02  0.26465325146E+02  0.33677730324E+02  0.00000000000E+00 0.  1.
<scales pt_clust_5="13000.00000" pt_clust_6="13000.00000" pt_clust_7="13000.00000" pt_clust_8="13000.00000" pt_clust_9="20.82729"></scales>
<clustering>
<clus scale="   20.827">  1  9  2 -1</clus>
<clus scale="   80.987">  5  6 -1 -1</clus>
<clus scale="   92.493">  7  8 -1 -1</clus>
<clus scale="  102.771">  1  5  2 -1</clus>
<clus scale="  112.062">  2  5  1 -1</clus>
</clustering>
</event>
<event>
 9    2  0.5684583E-005  0.8958439E+02  0.7546771E-02  0.1304376E+00
          2   -1    0    0  502    0  0.00000000000E+00  0.00000000000E+00  0.13163904277E+03  0.13163904277E+03  0.00000000000E+00 0. -1.
         -1   -1    0    0    0  501 -0.00000000000E+00 -0.00000000000E+00 -0.19281853934E+03  0.19281853934E+03  0.00000000000E+00 0.  1.
         23    2    1    2    0    0 -0.12648898894E+02 -0.17146205275E+01 -0.25998357210E+02  0.86029401145E+02  0.81007460872E+02 0.  0.
         24    2    1    2    0    0  0.30420023182E+02  0.39688587812E+02  0.74978285384E+02  0.12055989044E+03  0.80077350670E+02 0.  0.
        -13    1    4    4    0    0 -0.22548076905E+02  0.84758007939E-01  0.28953834403E+01  0.22733371974E+02  0.00000000000E+00 0.  1.
         14    1    4    4    0    0  0.52968100088E+02  0.39603829804E+02  0.72082901944E+02  0.97826518463E+02  0.00000000000E+00 0. -1.
        -13    1    3    3    0    0 -0.12568060910E+02 -0.39338382673E+02 -0.25236611725E+02  0.48397841664E+02  0.00000000000E+00 0.  1.
         13    1    3    3    0    0 -0.80837984310E-01  0.37623762146E+02 -0.76174548505E+00  0.37631559481E+02  0.00000000000E+00 0. -1.
         21    1    1    2  502  501 -0.17771124288E+02 -0.37973967284E+02 -0.11015942475E+03  0.11786829053E+03  0.00000000000E+00 0.  1.
<scales pt_clust_5="13000.00000" pt_clust_6="13000.00000" pt_clust_7="13000.00000" pt_clust_8="13000.00000" pt_clust_9="41.92654"></scales>
<clustering>
<clus scale="   41.927">  2  9  1 -1</clus>
<clus scale="   80.077">  5  6 -1 -1</clus>
<clus scale="   81.007">  7  8 -1 -1</clus>
<clus scale="   88.744">  1  5  2 -1</clus>
<clus scale="   88.744">  1  5  2 -1</clus>
</clustering>
</event>
<event>
 9    2  0.5684583E-005  0.1772064E+03  0.7546771E-02  0.1171710E+00
         -1   -1    0    0    0  501 -0.00000000000E+00  0.00000000000E+00  0.10367119986E+03  0.10367119986E+03  0.00000000000E+00 0.  1.
          2   -1    0    0  502    0  0.00000000000E+00 -0.00000000000E+00 -0.47368078132E+03  0.47368078132E+03  0.00000000000E+00 0. -1.
         24    2    1    2    0    0 -0.12219164659E+03 -0.51333515797E+02 -0.19072557144E+02  0.15650525659E+03  0.81019778844E+02 0.  0.
         23    2    1    2    0    0  0.15035531519E+03  0.51381008257E+02 -0.34721123908E+03  0.39243764224E+03  0.90581066924E+02 0.  0.
        -13    1    3    3    0    0 -0.37682427017E+02  0.10346656149E+02  0.21128402755E+02  0.44423282210E+02  0.00000000000E+00 0.  1.
         14    1    3    3    0    0 -0.84509219575E+02 -0.61680171946E+02 -0.40200959899E+02  0.11208197438E+03  0.00000000000E+00 0. -1.
        -13    1    4    4    0    0  0.59234364833E+02  0.56145041640E+02 -0.22898728292E+03  0.24309700002E+03  0.00000000000E+00 0. -1.
         13    1    4    4    0    0  0.91120950361E+02 -0.47640333829E+01 -0.11822395616E+03  0.14934064222E+03  0.00000000000E+00 0.  1.
         21    1    1    2  502  501 -0.28163668602E+02 -0.47492459827E-01 -0.37257852360E+01  0.28409082355E+02  0.00000000000E+00 0.  1.
<scales pt_clust_5="13000.00000" pt_clust_6="13000.00000" pt_clust_7="13000.00000" pt_clust_8="13000.00000" pt_clust_9="28.16371"></scales>
<clustering>
<clus scale="   28.164">  1  9  2 -1</clus>
<clus scale="   81.020">  5  6 -1 -1</clus>
<clus scale="   90.581">  7  8 -1 -1</clus>
<clus scale="  172.515">  1  5  2 -1</clus>
<clus scale="  177.206">  2  5  1 -1</clus>
</clustering>
</event>
<event>
 9    2  0.5684583E-005  0.1004265E+03  0.7546771E-02  0.1286435E+00
         -1   -1    0    0    0  501 -0.00000000000E+00  0.00000000000E+00  0.57803878331E+03  0.57803878331E+03  0.00000000000E+00 0.  1.
          2   -1    0    0  502    0  0.00000000000E+00 -0.00000000000E+00 -0.52677158248E+02  0.52677158248E+02  0.00000000000E+00 0. -1.
         24    2    1    2    0    0  0.68005735908E+01 -0.35172765212E+02  0.36397417613E+03  0.37425173520E+03  0.79396405438E+02 0.  0.
         23    2    1    2    0    0  0.21313482702E+02  0.33051339667E+02  0.89468148669E+01  0.10143824879E+03  0.93075330897E+02 0.  0.
        -11    1    3    3    0    0 -0.21028081331E+02 -0.46772589386E+02  0.15882293144E+03  0.16689691092E+03  0.00000000000E+00 0.  1.
         12    1    3    3    0    0  0.27828654922E+02  0.11599824173E+02  0.20515124469E+03  0.20735482428E+03  0.00000000000E+00 0. -1.
        -11    1    4    4    0    0  0.41602410395E+02 -0.16818883243E+02  0.14872009352E+02  0.47273798730E+02  0.00000000000E+00 0.  1.
         11    1    4    4    0    0 -0.20288927693E+02  0.49870222910E+02 -0.59251944850E+01  0.54164450055E+02  0.00000000000E+00 0. -1.
         21    1    1    2  502  501 -0.28114056293E+02  0.21214255450E+01  0.15244063407E+03  0.15502595757E+03  0.00000000000E+00 0.  1.
<scales pt_clust_5="13000.00000" pt_clust_6="13000.00000" pt_clust_7="13000.00000" pt_clust_8="13000.00000" pt_clust_9="28.19398"></scales>
<clustering>
<clus scale="   28.194">  1  9  2 -1</clus>
<clus scale="   79.396">  5  6 -1 -1</clus>
<clus scale="   87.899">  1  5  2 -1</clus>
<clus scale="   93.075">  7  8 -1 -1</clus>
<clus scale="  100.426">  2  5  1 -1</clus>
</clustering>
</event>
<event>
 9    2  0.5684583E-005  0.9744328E+02  0.7546771E-02  0.1290921E+00
          2   -1    0    0  502    0  0.00000000000E+00  0.00000000000E+00  0.99304173363E+02  0.99304173363E+02  0.00000000000E+00 0. -1.
         -1   -1    0    0    0  501 -0.00000000000E+00 -0.00000000000E+00 -0.13678228918E+03  0.13678228918E+03  0.00000000000E+00 0.  1.
         23    2    1    2    0    0  0.28247858349E+02 -0.30614907015E+02 -0.72895188066E+02  0.12355292842E+03  0.90644380107E+02 0.  0.
         24    2    1    2    0    0 -0.13797343517E+02  0.15503016631E+02  0.37437297895E+02  0.91527156004E+02  0.80900919647E+02 0.  0.
        -11    1    4    4    0    0  0.19729693606E+02  0.16368926377E+02 -0.14687155914E+02  0.29545136814E+02  0.00000000000E+00 0.  1.
         12    1    4    4    0    0 -0.33527037123E+02 -0.86590974569E+00  0.52124453810E+02  0.61982019190E+02  0.00000000000E+00 0. -1.
        -13    1    3    3    0    0  0.47545500430E+02 -0.14569964410E+02 -0.82789621546E+02  0.96576290619E+02  0.00000000000E+00 0.  1.
         13    1    3    3    0    0 -0.19297642081E+02 -0.16044942606E+02  0.98944334802E+01  0.26976637800E+02  0.00000000000E+00 0. -1.
         21    1    1    2  502  501 -0.14450514833E+02  0.15111890384E+02 -0.20202256449E+01  0.21006378116E+02  0.00000000000E+00 0. -1.
<scales pt_clust_5="13000.00000" pt_clust_6="13000.00000" pt_clust_7="13000.00000" pt_clust_8="13000.00000" pt_clust_9="20.90901"></scales>
<clustering>
<clus scale="   20.909">  1  9  2 -1</clus>
<clus scale="   80.901">  5  6 -1 -1</clus>
<clus scale="   88.452">  1  5  2 -1</clus>
<clus scale="   90.644">  7  8 -1 -1</clus>
<clus scale="   20.909">  1  5  2 -1</clus>
</clustering>
</event>
<event>
 9    2  0.5684583E-005  0.1064906E+03  0.7546771E-02  0.1272097E+00
         -1   -1    0    0    0  501 -0.00000000000E+00  0.00000000000E+00  0.15083005788E+03  0.15083005788E+03  0.00000000000E+00 0.  1.
          2   -1    0    0  502    0  0.00000000000E+00 -0.00000000000E+00 -0.56142992529E+03  0.56142992529E+03  0.00000000000E+00 0. -1.
         23    2    1    2    0    0 -0.41973760125E+02 -0.15065264853E+02  0.89499936469E+02  0.13528756917E+03  0.91124799035E+02 0.  0.
         24    2    1    2    0    0 -0.25599881436E+02  0.51703719072E+02 -0.48960606765E+03  0.49939218545E+03  0.79685788642E+02 0.  0.
        -13    1    4    4    0    0  0.12058777553E+02  0.48438472101E+02 -0.15948938749E+03  0.16711841436E+03  0.00000000000E+00 0.  1.
         14    1    4    4    0    0 -0.37658658989E+02  0.32652469718E+01 -0.33011668016E+03  0.33227377110E+03  0.00000000000E+00 0. -1.
        -13    1    3    3    0    0  0.90434947490E+01  0.20092193662E+02 -0.47084231912E+01  0.22531096120E+02  0.00000000000E+00 0. -1.
         13    1    3    3    0    0 -0.51017254874E+02 -0.35157458515E+02  0.94208359660E+02  0.11275647305E+03  0.00000000000E+00 0.  1.
         21    1    1    2  502  501  0.67573641561E+02 -0.36638454220E+02 -0.10493736223E+02  0.77580228547E+02  0.00000000000E+00 0.  1.
<scales pt_clust_5="13000.00000" pt_clust_6="13000.00000" pt_clust_7="13000.00000" pt_clust_8="13000.00000" pt_clust_9="76.86725"></scales>
<clustering>
<clus scale="   76.867">  1  9  2 -1</clus>
<clus scale="   79.686">  5  6 -1 -1</clus>
<clus scale="   91.125">  7  8 -1 -1</clus>
<clus scale="   96.883">  2  5  1 -1</clus>
<clus scale="   96.883">  2  5  1 -1</clus>
</clustering>
</event>
<event>
 9    2  0.5684583E-005  0.1012608E+03  0.7546771E-02  0.1281522E+00
         -1   -1    0    0    0  501 -0.00000000000E+00  0.00000000000E+00  0.60063414809E+02  0.60063414809E+02  0.00000000000E+00 0.  1.
          2   -1    0    0  502    0  0.00000000000E+00 -0.00000000000E+00 -0.43822854903E+03  0.43822854903E+03  0.00000000000E+00 0. -1.
         23    2    1    2    0    0  0.23375491550E+02 -0.35010405355E+01 -0.33464289955E+02  0.10256939168E+03  0.94031646361E+02 0.  0.
         24    2    1    2    0    0 -0.18090310929E+02  0.37902991288E+02 -0.34778854407E+03  0.36078031637E+03  0.86265109964E+02 0.  0.
        -13    1    4    4    0    0  0.20325015177E+02  0.18366285898E+02 -0.32258984540E+02  0.42321020583E+02  0.00000000000E+00 0.  1.
         14    1    4    4    0    0 -0.38415326106E+02  0.19536705390E+02 -0.31552955953E+03  0.31845929579E+03  0.00000000000E+00 0. -1.
        -13    1    3    3    0    0  0.48854404909E+02 -0.19409609210E+02  0.60703098868E+01  0.52918186580E+02  0.00000000000E+00 0.  1.
         13    1    3    3    0    0 -0.25478913359E+02  0.15908568675E+02 -0.39534599842E+02  0.49651205100E+02  0.00000000000E+00 0. -1.
         21    1    1    2  502  501 -0.52851806214E+01 -0.34401950753E+02  0.30876997980E+01  0.34942255792E+02  0.00000000000E+00 0.  1.
<scales pt_clust_5="13000.00000" pt_clust_6="13000.00000" pt_clust_7="13000.00000" pt_clust_8="13000.00000" pt_clust_9="34.80556"></scales>
<clustering>
<clus scale="   34.806">  1  9  2 -1</clus>
<clus scale="   86.265">  5  6 -1 -1</clus>
<clus scale="   94.032">  7  8 -1 -1</clus>
<clus scale="   94.093">  2  5  1 -1</clus>
<clus scale="   94.093">  2  5  1 -1</clus>
</clustering>
</event>
<event>
 9    2  0.5684583E-005  0.1251157E+03  0.7546771E-02  0.1237860E+00
          2   -1    0    0  502    0  0.00000000000E+00  0.00000000000E+00  0.59543760198E+02  0.59543760198E+02  0.00000000000E+00 0. -1.
         -1   -1    0    0    0  501 -0.00000000000E+00 -0.00000000000E+00 -0.46749479812E+03  0.46749479812E+03  0.00000000000E+00 0.  1.
         23    2    1    2    0    0  0.45211097814E+02  0.52927448443E+02 -0.20520559849E+03  0.23482911267E+03  0.90498709039E+02 0.  0.
         24    2    1    2    0    0 -0.59296326047E+02 -0.71554555776E+02 -0.41759610288E+02  0.12953861248E+03  0.80001739581E+02 0.  0.
        -13    1    4    4    0    0 -0.24362718927E+02 -0.22442620630E+02 -0.58289625650E+02  0.67043968802E+02  0.00000000000E+00 0.  1.
         14    1    4    4    0    0 -0.34933607120E+02 -0.49111935147E+02  0.16530015362E+02  0.62494643675E+02  0.00000000000E+00 0. -1.
        -11    1    3    3    0    0  0.12082738112E+02  0.55043861177E+02 -0.19024788097E+03  0.19841893919E+03  0.00000000000E+00 0.  1.
         11    1    3    3    0    0  0.33128359701E+02 -0.21164127343E+01 -0.14957717524E+02  0.36410173481E+02  0.00000000000E+00 0. -1.
         21    1    1    2  502  501  0.14085228234E+02  0.18627107334E+02 -0.16098582914E+03  0.16267083318E+03  0.00000000000E+00 0.  1.
<scales pt_clust_5="13000.00000" pt_clust_6="13000.00000" pt_clust_7="13000.00000" pt_clust_8="13000.00000" pt_clust_9="23.35300"></scales>
<clustering>
<clus scale="   23.353">  2  9  1 -1</clus>
<clus scale="   80.002">  5  6 -1 -1</clus>
<clus scale="   90.499">  7  8 -1 -1</clus>
<clus scale="  117.746">  1  5  2 -1</clus>
<clus scale="  117.746">  1  5  2 -1</clus>
</clustering>
</event>
<event>
 9    2  0.5684583E-005  0.1146395E+03  0.7546771E-02  0.1255271E+00
         -1   -1    0    0    0  501 -0.00000000000E+00  0.00000000000E+00  0.51880534970E+02  0.51880534970E+02  0.00000000000E+00 0.  1.
          2   -1    0    0  502    0  0.00000000000E+00 -0.00000000000E+00 -0.71307259227E+03  0.71307259227E+03  0.00000000000E+00 0. -1.
         23    2    1    2    0    0  0.17576291811E+02 -0.86163318793E+02 -0.23971999398E+03  0.27072132071E+03  0.89951733919E+02 0.  0.
         24    2    1    2    0    0 -0.26684141055E+02  0.59368569581E+02 -0.44526510803E+03  0.45725856647E+03  0.81164707493E+02 0.  0.
        -11    1    4    4    0    0 -0.50824937479E+02  0.46169566122E+02 -0.22395707149E+03  0.23424682063E+03  0.00000000000E+00 0.  1.
         12    1    4    4    0    0  0.24140796423E+02  0.13199003459E+02 -0.22130803654E+03  0.22301174584E+03  0.00000000000E+00 0. -1.
        -11    1    3    3    0    0 -0.14309526632E+02 -0.18183958757E+02 -0.41939690933E+01  0.23516128195E+02  0.00000000000E+00 0.  1.
         11    1    3    3    0    0  0.31885818444E+02 -0.67979360036E+02 -0.23552602488E+03  0.24720519252E+03  0.00000000000E+00 0. -1.
         21    1    1    2  502  501  0.91078492440E+01  0.26794749212E+02  0.23793044715E+02  0.36973240053E+02  0.00000000000E+00 0.  1.
<scales pt_clust_5="13000.00000" pt_clust_6="13000.00000" pt_clust_7="13000.00000" pt_clust_8="13000.00000" pt_clust_9="28.30038"></scales>
<clustering>
<clus scale="   28.300">  1  9  2 -1</clus>
<clus scale="   81.165">  5  6 -1 -1</clus>
<clus scale="   89.952">  7  8 -1 -1</clus>
<clus scale="  107.882">  2  5  1 -1</clus>
<clus scale="  107.882">  2  5  1 -1</clus>
</clustering>
</event>
<event>
 9    2  0.5684583E-005  0.1000258E+03  0.7546771E-02  0.1286494E+00
         -1   -1    0    0    0  501 -0.00000000000E+00  0.00000000000E+00  0.91759008115E+02  0.91759008115E+02  0.00000000000E+00 0.  1.
          2   -1    0    0  502    0  0.00000000000E+00 -0.00000000000E+00 -0.19223575603E+03  0.19223575603E+03  0.00000000000E+00 0. -1.
         24    2    1    2    0    0 -0.11375057714E+02  0.30412626058E+02  0.27770065411E+02  0.92751033033E+02  0.82324102388E+02 0.  0.
         23    2    1    2    0    0 -0.18162747576E+02 -0.43677083569E+02 -0.11559868943E+03  0.15648164239E+03  0.94264915945E+02 0.  0.
        -13    1    3    3    0    0  0.10992758664E+02 -0.23696737762E+02  0.21563383385E+02  0.33872638318E+02  0.00000000000E+00 0.  1.
         14    1    3    3    0    0 -0.22367816377E+02  0.54109363820E+02  0.62066820260E+01  0.58878394716E+02  0.00000000000E+00 0. -1.
        -11    1    4    4    0    0 -0.17207330868E+01  0.29894130452E+02 -0.36539486728E+02  0.47241444179E+02  0.00000000000E+00 0. -1.
         11    1    4    4    0    0 -0.16442014489E+02 -0.73571214020E+02 -0.79059202707E+02  0.10924019821E+03  0.00000000000E+00 0.  1.
         21    1    1    2  502  501  0.29537805290E+02  0.13264457511E+02 -0.12648123896E+02  0.34762088724E+02  0.00000000000E+00 0. -1.
<scales pt_clust_5="13000.00000" pt_clust_6="13000.00000" pt_clust_7="13000.00000" pt_clust_8="13000.00000" pt_clust_9="32.37943"></scales>
<clustering>
<clus scale="   32.379">  2  9  1 -1</clus>
<clus scale="   82.324">  5  6 -1 -1</clus>
<clus scale="   88.862">  1  5  2 -1</clus>
<clus scale="   94.265">  7  8 -1 -1</clus>
<clus scale="   32.379">  2  5  1 -1</clus>
</clustering>
</event>
<event>
 9    2  0.5684583E-005  0.1308119E+03  0.7546771E-02  0.1228978E+00
         -1   -1    0    0    0  501 -0.00000000000E+00  0.00000000000E+00  0.68027090720E+02  0.68027090720E+02  0.00000000000E+00 0.  1.
          2   -1    0    0  502    0  0.00000000000E+00 -0.00000000000E+00 -0.39722228532E+03  0.39722228532E+03  0.00000000000E+00 0. -1.
         24    2    1    2    0    0 -0.84154627542E+01 -0.82037417819E+02 -0.54764234785E+02  0.12787709961E+03  0.80947348667E+02 0.  0.
         23    2    1    2    0    0  0.12322541726E+02  0.12319525599E+03 -0.22894969103E+03  0.27590863907E+03  0.91535238868E+02 0.  0.
        -13    1    3    3    0    0 -0.13476173198E+02 -0.94773375980E+02 -0.31318199652E+02  0.10071955951E+03  0.00000000000E+00 0.  1.
         14    1    3    3    0    0  0.50607104436E+01  0.12735958161E+02 -0.23446035134E+02  0.27157540095E+02  0.00000000000E+00 0. -1.
        -13    1    4    4    0    0 -0.27337908186E+02  0.31461932166E+01 -0.42802118382E+02  0.50884979059E+02  0.00000000000E+00 0.  1.
         13    1    4    4    0    0  0.39660449912E+02  0.12004906277E+03 -0.18614757265E+03  0.22502366001E+03  0.00000000000E+00 0. -1.
         21    1    1    2  502  501 -0.39070789713E+01 -0.41157838166E+02 -0.45481268783E+02  0.61463637370E+02  0.00000000000E+00 0.  1.
<scales pt_clust_5="13000.00000" pt_clust_6="13000.00000" pt_clust_7="13000.00000" pt_clust_8="13000.00000" pt_clust_9="41.34287"></scales>
<clustering>
<clus scale="   41.343">  2  9  1 -1</clus>
<clus scale="   80.947">  5  6 -1 -1</clus>
<clus scale="   91.535">  7  8 -1 -1</clus>
<clus scale="  123.635">  1  5  2 -1</clus>
<clus scale="   41.343">  2  5  1 -1</clus>
</clustering>
</event>
<event>
 9    2  0.5684583E-005  0.1042566E+03  0.7546771E-02  0.1276010E+00
         -1   -1    0    0    0  501 -0.00000000000E+00  0.00000000000E+00  0.38503702198E+02  0.38503702198E+02  0.00000000000E+00 0.  1.
          2   -1    0    0  502    0  0.00000000000E+00 -0.00000000000E+00 -0.62938220698E+03  0.62938220698E+03  0.00000000000E+00 0. -1.
         23    2    1    2    0    0  0.77162502603E+01  0.16748530934E+02 -0.16448953796E+03  0.18888068073E+03  0.90989283157E+02 0.  0.
         24    2    1    2    0    0 -0.44824653178E+02 -0.52901418424E+02 -0.41148175400E+03  0.42509521236E+03  0.81122722375E+02 0.  0.
        -13    1    4    4    0    0  0.22826944486E+02 -0.41722549438E+01 -0.80951253604E+02  0.84211534637E+02  0.00000000000E+00 0.  1.
         14    1    4    4    0    0 -0.67651597664E+02 -0.48729163480E+02 -0.33053050040E+03  0.34088367772E+03  0.00000000000E+00 0. -1.
        -13    1    3    3    0    0  0.41713181826E+02  0.34637497301E+02 -0.90055855640E+02  0.10511804266E+03  0.00000000000E+00 0.  1.
         13    1    3    3    0    0 -0.33996931565E+02 -0.17888966367E+02 -0.74433682319E+02  0.83762638074E+02  0.00000000000E+00 0. -1.
         21    1    1    2  502  501  0.37108402918E+02  0.36152887489E+02 -0.14907212821E+02  0.53910016092E+02  0.00000000000E+00 0.  1.
<scales pt_clust_5="13000.00000" pt_clust_6="13000.00000" pt_clust_7="13000.00000" pt_clust_8="13000.00000" pt_clust_9="51.80796"></scales>
<clustering>
<clus scale="   51.808">  1  9  2 -1</clus>
<clus scale="   81.123">  5  6 -1 -1</clus>
<clus scale="   90.989">  7  8 -1 -1</clus>
<clus scale="   95.767">  2  5  1 -1</clus>
<clus scale="   95.767">  2  5  1 -1</clus>
</clustering>
</event>
<event>
 9    2  0.5684583E-005  0.1145427E+03  0.7546771E-02  0.1256183E+00
          2   -1    0    0  502    0  0.00000000000E+00  0.00000000000E+00  0.13257930201E+03  0.13257930201E+03  0.00000000000E+00 0. -1.
         -1   -1    0    0    0  501 -0.00000000000E+00 -0.00000000000E+00 -0.24314441994E+03  0.24314441994E+03  0.00000000000E+00 0.  1.
         23    2    1    2    0    0 -0.52375171951E+02 -0.55439758164E+02 -0.12323660300E+03  0.17183387622E+03  0.92319528133E+02 0.  0.
         24    2    1    2    0    0  0.67380503554E+02  0.12494638043E+02  0.72308690336E+02  0.12888291558E+03  0.81768031590E+02 0.  0.
        -11    1    4    4    0    0  0.89183321072E+01  0.37556643365E+02  0.45997211363E+02  0.60048160351E+02  0.00000000000E+00 0.  1.
         12    1    4    4    0    0  0.58462171447E+02 -0.25062005321E+02  0.26311478973E+02  0.68834755224E+02  0.00000000000E+00 0. -1.
        -11    1    3    3    0    0 -0.74433009306E+02 -0.18719190983E+02 -0.83318616655E+02  0.11328138800E+03  0.00000000000E+00 0.  1.
         11    1    3    3    0    0  0.22057837355E+02 -0.36720567181E+02 -0.39917986343E+02  0.58552488218E+02  0.00000000000E+00 0. -1.
         21    1    1    2  502  501 -0.15005331603E+02  0.42945120121E+02 -0.59637205275E+02  0.75006930158E+02  0.00000000000E+00 0.  1.
<scales pt_clust_5="13000.00000" pt_clust_6="13000.00000" pt_clust_7="13000.00000" pt_clust_8="13000.00000" pt_clust_9="45.49113"></scales>
<clustering>
<clus scale="   45.491">  2  9  1 -1</clus>
<clus scale="   81.768">  5  6 -1 -1</clus>
<clus scale="   92.320">  7  8 -1 -1</clus>
<clus scale="  106.222">  1  5  2 -1</clus>
<clus scale="  106.222">  1  5  2 -1</clus>
</clustering>
</event>
<event>
 9    2  0.5684583E-005  0.1179738E+03  0.7546771E-02  0.1258197E+00
         -1   -1    0    0    0  501 -0.00000000000E+00  0.00000000000E+00  0.13605099529E+03  0.13605099529E+03  0.00000000000E+00 0.  1.
          2   -1    0    0  502    0  0.00000000000E+00 -0.00000000000E+00 -0.18813887979E+03  0.18813887979E+03  0.00000000000E+00 0. -1.
         24    2    1    2    0    0 -0.24715158598E+02  0.53316971204E+02  0.48948856964E+02  0.10847551031E+03  0.76924685608E+02 0.  0.
         23    2    1    2    0    0  0.45123597425E+01 -0.51967884863E+02 -0.13321971837E+03  0.17769177783E+03  0.10538430671E+03 0.  0.
        -11    1    3    3    0    0  0.90537325605E+01  0.58349681357E+02  0.44723363138E+02  0.74073170569E+02  0.00000000000E+00 0.  1.
         12    1    3    3    0    0 -0.33768891158E+02 -0.50327101533E+01  0.42254938260E+01  0.34402339741E+02  0.00000000000E+00 0. -1.
        -13    1    4    4    0    0 -0.40286545135E+02  0.94979827368E+01 -0.42889287616E+02  0.59604600386E+02  0.00000000000E+00 0.  1.
         13    1    4    4    0    0  0.44798904877E+02 -0.61465867600E+02 -0.90330430751E+02  0.11808717745E+03  0.00000000000E+00 0. -1.
         21    1    1    2  502  501  0.20202798855E+02 -0.13490863407E+01  0.32182976901E+02  0.38022586942E+02  0.00000000000E+00 0.  1.
<scales pt_clust_5="13000.00000" pt_clust_6="13000.00000" pt_clust_7="13000.00000" pt_clust_8="13000.00000" pt_clust_9="20.24779"></scales>
<clustering>
<clus scale="   20.248">  1  9  2 -1</clus>
<clus scale="   76.925">  5  6 -1 -1</clus>
<clus scale="   93.431">  1  5  2 -1</clus>
<clus scale="  105.384">  7  8 -1 -1</clus>
<clus scale="  117.974">  2  5  1 -1</clus>
</clustering>
</event>
<event>
 9    2  0.5684583E-005  0.1161018E+03  0.7546771E-02  0.1254592E+00
          2   -1    0    0  502    0  0.00000000000E+00  0.00000000000E+00  0.22338865443E+03  0.22338865443E+03  0.00000000000E+00 0. -1.
         -1   -1    0    0    0  501 -0.00000000000E+00 -0.00000000000E+00 -0.30568419702E+03  0.30568419702E+03  0.00000000000E+00 0.  1.
         24    2    1    2    0    0  0.52224885580E+02 -0.69847960986E+02 -0.23870986697E+03  0.26675481543E+03  0.81052789190E+02 0.  0.
         23    2    1    2    0    0 -0.22447284418E+01  0.66738132949E+02  0.17416220046E+03  0.20918919034E+03  0.94702840990E+02 0.  0.
        -13    1    3    3    0    0  0.73488742960E+02 -0.52569243006E+02 -0.19850348702E+03  0.21810033244E+03  0.00000000000E+00 0.  1.
         14    1    3    3    0    0 -0.21263857379E+02 -0.17278717980E+02 -0.40206379955E+02  0.48654482987E+02  0.00000000000E+00 0. -1.
        -13    1    4    4    0    0 -0.23173178709E+02 -0.54778747878E+01  0.53721459471E+01  0.24410310849E+02  0.00000000000E+00 0.  1.
         13    1    4    4    0    0  0.20928450268E+02  0.72216007737E+02  0.16879005451E+03  0.18477887949E+03  0.00000000000E+00 0. -1.
         21    1    1    2  502  501 -0.49980157138E+02  0.31098280366E+01 -0.17747876073E+02  0.53128845678E+02  0.00000000000E+00 0. -1.
<scales pt_clust_5="13000.00000" pt_clust_6="13000.00000" pt_clust_7="13000.00000" pt_clust_8="13000.00000" pt_clust_9="50.07681"></scales>
<clustering>
<clus scale="   50.077">  2  9  1 -1</clus>
<clus scale="   81.053">  5  6 -1 -1</clus>
<clus scale="   94.703">  7  8 -1 -1</clus>
<clus scale="  105.264">  2  5  1 -1</clus>
<clus scale="  116.102">  1  5  2 -1</clus>
</clustering>
</event>
<event>
 9    2  0.5684583E-005  0.9624819E+02  0.7546771E-02  0.1293958E+00
         -1   -1    0    0    0  501 -0.00000000000E+00  0.00000000000E+00  0.10714221674E+03  0.10714221674E+03  0.00000000000E+00 0.  1.
          2   -1    0    0  502    0  0.00000000000E+00 -0.00000000000E+00 -0.28594925402E+03  0.28594925402E+03  0.00000000000E+00 0. -1.
         24    2    1    2    0    0  0.20326061624E+02 -0.10253821799E+02  0.51653803038E+02  0.97425896340E+02  0.79406550527E+02 0.  0.
         23    2    1    2    0    0 -0.33062078556E+02 -0.17814745341E+02 -0.24349762087E+03  0.26219905032E+03  0.89703870764E+02 0.  0.
        -13    1    3    3    0    0 -0.17567377088E+02 -0.33002171477E+02  0.31335910230E+02  0.48782121006E+02  0.00000000000E+00 0.  1.
         14    1    3    3    0    0  0.37893438711E+02  0.22748349679E+02  0.20317892808E+02  0.48643775333E+02  0.00000000000E+00 0. -1.
        -11    1    4    4    0    0 -0.60160857760E+02 -0.24869387335E+02 -0.20122590666E+03  0.21149392602E+03  0.00000000000E+00 0.  1.
         11    1    4    4    0    0  0.27098779204E+02  0.70546419946E+01 -0.42271714210E+02  0.50705124300E+02  0.00000000000E+00 0. -1.
         21    1    1    2  502  501  0.12736016932E+02  0.28068567140E+02  0.13036780545E+02  0.33466524103E+02  0.00000000000E+00 0.  1.
<scales pt_clust_5="13000.00000" pt_clust_6="13000.00000" pt_clust_7="13000.00000" pt_clust_8="13000.00000" pt_clust_9="30.82289"></scales>
<clustering>
<clus scale="   30.823">  1  9  2 -1</clus>
<clus scale="   79.407">  5  6 -1 -1</clus>
<clus scale="   86.731">  1  5  2 -1</clus>
<clus scale="   89.704">  7  8 -1 -1</clus>
<clus scale="   96.248">  2  5  1 -1</clus>
</clustering>
</event>
<event>
 9    2  0.5684583E-005  0.1211540E+03  0.7546771E-02  0.1244834E+00
          2   -1    0    0  502    0  0.00000000000E+00  0.00000000000E+00  0.55351665307E+03  0.55351665307E+03  0.00000000000E+00 0. -1.
         -1   -1    0    0    0  501 -0.00000000000E+00 -0.00000000000E+00 -0.63801848145E+02  0.63801848145E+02  0.00000000000E+00 0.  1.
         23    2    1    2    0    0  0.56909299178E+00  0.62931568991E+02  0.72940795289E+02  0.13246748209E+03  0.90920668448E+02 0.  0.
         24    2    1    2    0    0  0.26761964505E+02 -0.63130172840E+02  0.43507881079E+03  0.45195585394E+03  0.10133558528E+03 0.  0.
        -13    1    4    4    0    0 -0.11707373629E+02  0.22227086549E+02  0.54206905590E+02  0.59745247404E+02  0.00000000000E+00 0.  1.
         14    1    4    4    0    0  0.38469338133E+02 -0.85357259388E+02  0.38087190520E+03  0.39221060653E+03  0.00000000000E+00 0. -1.
        -11    1    3    3    0    0  0.27889481418E+02  0.42857287448E+01 -0.75393181549E+01  0.29206710922E+02  0.00000000000E+00 0.  1.
         11    1    3    3    0    0 -0.27320388426E+02  0.58645840246E+02  0.80480113444E+02  0.10326077117E+03  0.00000000000E+00 0. -1.
         21    1    1    2  502  501 -0.27331057497E+02  0.19860384877E+00 -0.18304801156E+02  0.32895165188E+02  0.00000000000E+00 0.  1.
<scales pt_clust_5="13000.00000" pt_clust_6="13000.00000" pt_clust_7="13000.00000" pt_clust_8="13000.00000" pt_clust_9="27.33178"></scales>
<clustering>
<clus scale="   27.332">  2  9  1 -1</clus>
<clus scale="   90.921">  7  8 -1 -1</clus>
<clus scale="  101.336">  5  6 -1 -1</clus>
<clus scale="  112.588">  2  7  1 -1</clus>
<clus scale="  121.154">  1  5  2 -1</clus>
</clustering>
</event>
<event>
 9    2  0.5684583E-005  0.1056003E+03  0.7546771E-02  0.1274198E+00
         -1   -1    0    0    0  501 -0.00000000000E+00  0.00000000000E+00  0.10257116997E+03  0.10257116997E+03  0.00000000000E+00 0.  1.
          2   -1    0    0  502    0  0.00000000000E+00 -0.00000000000E+00 -0.28368643181E+03  0.28368643181E+03  0.00000000000E+00 0. -1.
         23    2    1    2    0    0  0.15220220885E+02  0.48003718428E+02  0.50995234395E+02  0.11760958554E+03  0.93249603610E+02 0.  0.
         24    2    1    2    0    0 -0.42407388157E+02 -0.31741281216E+02 -0.20523894489E+03  0.22710660076E+03  0.81538261592E+02 0.  0.
        -13    1    4    4    0    0 -0.58527017133E+01  0.27173262637E+02 -0.54092107428E+02  0.60816086735E+02  0.00000000000E+00 0.  1.
         14    1    4    4    0    0 -0.36554686443E+02 -0.58914543853E+02 -0.15114683747E+03  0.16629051402E+03  0.00000000000E+00 0. -1.
        -11    1    3    3    0    0  0.48164721810E+02  0.49198693852E+02  0.49146636468E+02  0.84591629490E+02  0.00000000000E+00 0.  1.
         11    1    3    3    0    0 -0.32944500925E+02 -0.11949754233E+01  0.18485979262E+01  0.33017956050E+02  0.00000000000E+00 0. -1.
         21    1    1    2  502  501  0.27187167272E+02 -0.16262437212E+02 -0.26871551347E+02  0.41541415481E+02  0.00000000000E+00 0. -1.
<scales pt_clust_5="13000.00000" pt_clust_6="13000.00000" pt_clust_7="13000.00000" pt_clust_8="13000.00000" pt_clust_9="31.67979"></scales>
<clustering>
<clus scale="   31.680">  2  9  1 -1</clus>
<clus scale="   81.538">  5  6 -1 -1</clus>
<clus scale="   93.250">  7  8 -1 -1</clus>
<clus scale="   95.417">  2  5  1 -1</clus>
<clus scale="   31.680">  2  5  1 -1</clus>
</clustering>
</event>
<event>
 9    2  0.5684583E-005  0.9776465E+02  0.7546771E-02  0.1293985E+00
         -1   -1    0    0    0  501 -0.00000000000E+00  0.00000000000E+00  0.26550148934E+03  0.26550148934E+03  0.00000000000E+00 0.  1.
          2   -1    0    0  502    0  0.00000000000E+00 -0.00000000000E+00 -0.76190075960E+03  0.76190075960E+03  0.00000000000E+00 0. -1.
         23    2    1    2    0    0  0.15251033029E+02 -0.32386148137E+02  0.23532195304E+03  0.25488102858E+03  0.91139785766E+02 0.  0.
         24    2    1    2    0    0  0.67029822476E+02  0.38554902049E+02 -0.64070395448E+03  0.64967035170E+03  0.74769853672E+02 0.  0.
        -13    1    4    4    0    0  0.20297672630E+02  0.50314369099E+02 -0.23868142073E+03  0.24476999786E+03  0.00000000000E+00 0.  1.
         14    1    4    4    0    0  0.46732149846E+02 -0.11759467050E+02 -0.40202253376E+03  0.40490035384E+03  0.00000000000E+00 0. -1.
        -13    1    3    3    0    0  0.17764716470E+01 -0.56243174306E+02  0.84049629465E+02  0.10114737130E+03  0.00000000000E+00 0.  1.
         13    1    3    3    0    0  0.13474561382E+02  0.23857026170E+02  0.15127232357E+03  0.15373365728E+03  0.00000000000E+00 0. -1.
         21    1    1    2  502  501 -0.82280855505E+02 -0.61687539120E+01 -0.91017268812E+02  0.12285086866E+03  0.00000000000E+00 0.  1.
<scales pt_clust_5="13000.00000" pt_clust_6="13000.00000" pt_clust_7="13000.00000" pt_clust_8="13000.00000" pt_clust_9="82.51177"></scales>
<clustering>
<clus scale="   74.770">  5  6 -1 -1</clus>
<clus scale="   82.512">  2  9  1 -1</clus>
<clus scale="   82.716">  2  5  1 -1</clus>
<clus scale="   91.140">  7  8 -1 -1</clus>
<clus scale="   82.512">  2  5  1 -1</clus>
</clustering>
</event>
<event>
 9    2  0.5684583E-005  0.9811337E+02  0.7546771E-02  0.1291240E+00
          2   -1    0    0  502    0  0.00000000000E+00  0.00000000000E+00  0.82626273291E+03  0.82626273291E+03  0.00000000000E+00 0. -1.
         -1   -1    0    0    0  501 -0.00000000000E+00 -0.00000000000E+00 -0.18473188056E+02  0.18473188056E+02  0.00000000000E+00 0.  1.
         23    2    1    2    0    0 -0.78808360711E+01 -0.14352875747E+02  0.18206263488E+03  0.20587810686E+03  0.94714725588E+02 0.  0.
         24    2    1    2    0    0  0.83035446973E+01  0.47632480805E+02  0.44897385064E+03  0.45899855030E+03  0.82245659679E+02 0.  0.
        -13    1    4    4    0    0 -0.15186485411E+02  0.15935240753E+02  0.25483506633E+02  0.33674476200E+02  0.00000000000E+00 0.  1.
         14    1    4    4    0    0  0.23490030108E+02  0.31697240052E+02  0.42349034400E+03  0.42532407410E+03  0.00000000000E+00 0. -1.
        -13    1    3    3    0    0  0.27613859207E+02 -0.30101397029E+02  0.35054500270E+02  0.53827848857E+02  0.00000000000E+00 0.  1.
         13    1    3    3    0    0 -0.35494695278E+02  0.15748521282E+02  0.14700813462E+03  0.15205025800E+03  0.00000000000E+00 0. -1.
         21    1    1    2  502  501 -0.42270862618E+00 -0.33279605058E+02  0.17675305933E+03  0.17985926380E+03  0.00000000000E+00 0.  1.
<scales pt_clust_5="13000.00000" pt_clust_6="13000.00000" pt_clust_7="13000.00000" pt_clust_8="13000.00000" pt_clust_9="33.28229"></scales>
<clustering>
<clus scale="   33.282">  1  9  2 -1</clus>
<clus scale="   82.246">  5  6 -1 -1</clus>
<clus scale="   86.138">  1  5  2 -1</clus>
<clus scale="   94.715">  7  8 -1 -1</clus>
<clus scale="   33.282">  1  5  2 -1</clus>
</clustering>
</event>
<event>
 9    2  0.5684583E-005  0.1119153E+03  0.7546771E-02  0.1261568E+00
          2   -1    0    0  502    0  0.00000000000E+00  0.00000000000E+00  0.79726373625E+03  0.79726373625E+03  0.00000000000E+00 0. -1.
         -1   -1    0    0    0  501 -0.00000000000E+00 -0.00000000000E+00 -0.42383935743E+02  0.42383935743E+02  0.00000000000E+00 0.  1.
         23    2    1    2    0    0  0.74527806823E+02 -0.43561255599E+02  0.10271598870E+03  0.16152304455E+03  0.89928541673E+02 0.  0.
         24    2    1    2    0    0 -0.44625006202E+02  0.46325294384E+02  0.63611502304E+03  0.64407494291E+03  0.77799649584E+02 0.  0.
        -13    1    4    4    0    0 -0.44644631968E+02  0.19932273612E+01  0.16720877630E+03  0.17307770218E+03  0.00000000000E+00 0.  1.
         14    1    4    4    0    0  0.19625766418E-01  0.44332067022E+02  0.46890624674E+03  0.47099724074E+03  0.00000000000E+00 0. -1.
        -13    1    3    3    0    0  0.90367897684E+02 -0.24410680257E+02  0.57300995366E+02  0.10975264148E+03  0.00000000000E+00 0.  1.
         13    1    3    3    0    0 -0.15840090861E+02 -0.19150575342E+02  0.45414993334E+02  0.51770403070E+02  0.00000000000E+00 0. -1.
         21    1    1    2  502  501 -0.29902800621E+02 -0.27640387842E+01  0.16048788765E+02  0.34049684525E+02  0.00000000000E+00 0. -1.
<scales pt_clust_5="13000.00000" pt_clust_6="13000.00000" pt_clust_7="13000.00000" pt_clust_8="13000.00000" pt_clust_9="30.03027"></scales>
<clustering>
<clus scale="   30.030">  2  9  1 -1</clus>
<clus scale="   77.800">  5  6 -1 -1</clus>
<clus scale="   89.929">  7  8 -1 -1</clus>
<clus scale="  102.424">  1  5  2 -1</clus>
<clus scale="  102.424">  1  5  2 -1</clus>
</clustering>
</event>
<event>
 9    2  0.5684583E-005  0.9843064E+02  0.7546771E-02  0.1288729E+00
          2   -1    0    0  502    0  0.00000000000E+00  0.00000000000E+00  0.57743875560E+03  0.57743875560E+03  0.00000000000E+00 0. -1.
         -1   -1    0    0    0  501 -0.00000000000E+00 -0.00000000000E+00 -0.40851591317E+02  0.40851591317E+02  0.00000000000E+00 0.  1.
         23    2    1    2    0    0  0.70387924896E+02 -0.48890546512E+02  0.13164397920E+03  0.18150324034E+03  0.90931531845E+02 0.  0.
         24    2    1    2    0    0 -0.12099149789E+02  0.25592741449E+02  0.31900602380E+03  0.33036547009E+03  0.81087130703E+02 0.  0.
        -13    1    4    4    0    0  0.25658787686E+02  0.33047023028E+02  0.10689718524E+03  0.11479323730E+03  0.00000000000E+00 0.  1.
         14    1    4    4    0    0 -0.37757937475E+02 -0.74542815796E+01  0.21210883856E+03  0.21557223279E+03  0.00000000000E+00 0. -1.
        -13    1    3    3    0    0  0.32705129697E+02  0.23882267862E+02  0.61482967906E+02  0.73621624332E+02  0.00000000000E+00 0. -1.
         13    1    3    3    0    0  0.37682795199E+02 -0.72772814375E+02  0.70161011298E+02  0.10788161601E+03  0.00000000000E+00 0.  1.
         21    1    1    2  502  501 -0.58288775107E+02  0.23297805064E+02  0.85937161277E+02  0.10642163649E+03  0.00000000000E+00 0. -1.
<scales pt_clust_5="13000.00000" pt_clust_6="13000.00000" pt_clust_7="13000.00000" pt_clust_8="13000.00000" pt_clust_9="62.77236"></scales>
<clustering>
<clus scale="   62.772">  2  9  1 -1</clus>
<clus scale="   81.087">  5  6 -1 -1</clus>
<clus scale="   89.416">  1  5  2 -1</clus>
<clus scale="   90.932">  7  8 -1 -1</clus>
<clus scale="   89.416">  1  5  2 -1</clus>
</clustering>
</event>
<event>
 9    2  0.5684583E-005  0.1776588E+03  0.7546771E-02  0.1175391E+00
         -1   -1    0    0    0  501 -0.00000000000E+00  0.00000000000E+00  0.99421372514E+02  0.99421372514E+02  0.00000000000E+00 0.  1.
          2   -1    0    0  502    0  0.00000000000E+00 -0.00000000000E+00 -0.53083797494E+03  0.53083797494E+03  0.00000000000E+00 0. -1.
         23    2    1    2    0    0 -0.30804920145E+01 -0.10924539306E+03 -0.20739034426E+02  0.15971729620E+03  0.11461004241E+03 0.  0.
         24    2    1    2    0    0 -0.74774824988E+01  0.14161679144E+03 -0.40441403429E+03  0.43592110220E+03  0.79782628728E+02 0.  0.
        -13    1    4    4    0    0  0.35871505520E+02  0.52132059736E+02 -0.15859650019E+03  0.17075528230E+03  0.00000000000E+00 0.  1.
         14    1    4    4    0    0 -0.43348988019E+02  0.89484731700E+02 -0.24581753410E+03  0.26516581990E+03  0.00000000000E+00 0. -1.
        -13    1    3    3    0    0 -0.23400732385E+02 -0.10581931338E+03  0.23517687061E+02  0.11089816484E+03  0.00000000000E+00 0.  1.
         13    1    3    3    0    0  0.20320240370E+02 -0.34260796833E+01 -0.44256721487E+02  0.48819131368E+02  0.00000000000E+00 0. -1.
         21    1    1    2  502  501  0.10557974513E+02 -0.32371398377E+02 -0.62635337059E+01  0.34620949051E+02  0.00000000000E+00 0. -1.
<scales pt_clust_5="13000.00000" pt_clust_6="13000.00000" pt_clust_7="13000.00000" pt_clust_8="13000.00000" pt_clust_9="34.04964"></scales>
<clustering>
<clus scale="   34.050">  1  9  2 -1</clus>
<clus scale="   79.783">  5  6 -1 -1</clus>
<clus scale="  114.610">  7  8 -1 -1</clus>
<clus scale="  157.456">  2  5  1 -1</clus>
<clus scale="  157.456">  2  5  1 -1</clus>
</clustering>
</event>
<event>
 9    2  0.5684583E-005  0.1520502E+03  0.7546771E-02  0.1199427E+00
          2   -1    0    0  502    0  0.00000000000E+00  0.00000000000E+00  0.60358408214E+02  0.60358408214E+02  0.00000000000E+00 0. -1.
         -1   -1    0    0    0  501 -0.00000000000E+00 -0.00000000000E+00 -0.61738037847E+03  0.61738037847E+03  0.00000000000E+00 0.  1.
         24    2    1    2    0    0 -0.68414010540E+02  0.69551031355E+02 -0.19847241334E+03  0.23519982599E+03  0.80061454451E+02 0.  0.
         23    2    1    2    0    0  0.12199636036E+03 -0.83934640460E+02 -0.15614302001E+03  0.23266670763E+03  0.88459133685E+02 0.  0.
        -13    1    3    3    0    0 -0.59819792186E+02  0.13244820174E+02 -0.14353584033E+03  0.15606527563E+03  0.00000000000E+00 0.  1.
         14    1    3    3    0    0 -0.85942183541E+01  0.56306211181E+02 -0.54936573011E+02  0.79134550362E+02  0.00000000000E+00 0. -1.
        -11    1    4    4    0    0  0.10007094481E+01 -0.25502428492E+02 -0.66269504996E+02  0.71014242028E+02  0.00000000000E+00 0.  1.
         11    1    4    4    0    0  0.12099565091E+03 -0.58432211968E+02 -0.89873515011E+02  0.16165246560E+03  0.00000000000E+00 0. -1.
         21    1    1    2  502  501 -0.53582349817E+02  0.14383609105E+02 -0.20240653691E+03  0.20987225307E+03  0.00000000000E+00 0.  1.
<scales pt_clust_5="13000.00000" pt_clust_6="13000.00000" pt_clust_7="13000.00000" pt_clust_8="13000.00000" pt_clust_9="55.47933"></scales>
<clustering>
<clus scale="   55.479">  2  9  1 -1</clus>
<clus scale="   80.061">  5  6 -1 -1</clus>
<clus scale="   88.459">  7  8 -1 -1</clus>
<clus scale="  147.323">  2  5  1 -1</clus>
<clus scale="  152.050">  1  5  2 -1</clus>
</clustering>
</event>
<event>
 9    2  0.5684583E-005  0.9011874E+02  0.7546771E-02  0.1308526E+00
         -1   -1    0    0    0  501 -0.00000000000E+00  0.00000000000E+00  0.20564136872E+02  0.20564136872E+02  0.00000000000E+00 0.  1.
          2   -1    0    0  502    0  0.00000000000E+00 -0.00000000000E+00 -0.11205392744E+04  0.11205392744E+04  0.00000000000E+00 0. -1.
         23    2    1    2    0    0  0.65502208480E+01 -0.36672338889E+02 -0.14416244406E+03  0.17382929936E+03  0.89699772612E+02 0.  0.
         24    2    1    2    0    0 -0.21188559763E+01  0.48168386335E+01 -0.89377759831E+03  0.89739734236E+03  0.80348636251E+02 0.  0.
        -13    1    4    4    0    0  0.22994563879E+02  0.54878103465E+01 -0.84904784519E+02  0.88134490778E+02  0.00000000000E+00 0.  1.
         14    1    4    4    0    0 -0.25113419855E+02 -0.67097171300E+00 -0.80887281379E+03  0.80926285159E+03  0.00000000000E+00 0. -1.
        -11    1    3    3    0    0  0.10268787980E+02 -0.66361880463E+02 -0.97002712675E+02  0.11797827534E+03  0.00000000000E+00 0. -1.
         11    1    3    3    0    0 -0.37185671321E+01  0.29689541574E+02 -0.47159731382E+02  0.55851024023E+02  0.00000000000E+00 0.  1.
         21    1    1    2  502  501 -0.44313648717E+01  0.31855500256E+02 -0.62035095133E+02  0.69876769526E+02  0.00000000000E+00 0.  1.
<scales pt_clust_5="13000.00000" pt_clust_6="13000.00000" pt_clust_7="13000.00000" pt_clust_8="13000.00000" pt_clust_9="32.16224"></scales>
<clustering>
<clus scale="   32.162">  1  9  2 -1</clus>
<clus scale="   80.349">  5  6 -1 -1</clus>
<clus scale="   80.816">  2  5  1 -1</clus>
<clus scale="   89.700">  7  8 -1 -1</clus>
<clus scale="   80.816">  2  5  1 -1</clus>
</clustering>
</event>
<event>
 9    2  0.5684583E-005  0.1475627E+03  0.7546771E-02  0.1204397E+00
          2   -1    0    0  502    0  0.00000000000E+00  0.00000000000E+00  0.19950952590E+03  0.19950952590E+03  0.00000000000E+00 0. -1.
         -1   -1    0    0    0  501 -0.00000000000E+00 -0.00000000000E+00 -0.16364064336E+03  0.16364064336E+03  0.00000000000E+00 0.  1.
         24    2    1    2    0    0  0.95677162280E+02 -0.37404414878E+02 -0.36662695251E+02  0.13634654129E+03  0.81810857867E+02 0.  0.
         23    2    1    2    0    0 -0.10391518514E+03  0.76705052076E+02  0.93499519434E+02  0.18150396261E+03  0.86715036703E+02 0.  0.
        -11    1    3    3    0    0  0.86542854840E+02 -0.33292897554E+02 -0.60345108639E+02  0.11063279301E+03  0.00000000000E+00 0.  1.
         12    1    3    3    0    0  0.91343074394E+01 -0.41115173239E+01  0.23682413388E+02  0.25713748287E+02  0.00000000000E+00 0. -1.
        -13    1    4    4    0    0 -0.69789963627E+02  0.79659317876E+02  0.31196420030E+02  0.11040589916E+03  0.00000000000E+00 0.  1.
         13    1    4    4    0    0 -0.34125221515E+02 -0.29542657997E+01  0.62303099405E+02  0.71098063442E+02  0.00000000000E+00 0. -1.
         21    1    1    2  502  501  0.82380228621E+01 -0.39300637199E+02 -0.20967941651E+02  0.45299665363E+02  0.00000000000E+00 0. -1.
<scales pt_clust_5="13000.00000" pt_clust_6="13000.00000" pt_clust_7="13000.00000" pt_clust_8="13000.00000" pt_clust_9="40.15476"></scales>
<clustering>
<clus scale="   40.155">  2  9  1 -1</clus>
<clus scale="   81.811">  5  6 -1 -1</clus>
<clus scale="   86.715">  7  8 -1 -1</clus>
<clus scale="  144.735">  2  5  1 -1</clus>
<clus scale="  147.563">  1  5  2 -1</clus>
</clustering>
</event>
<event>
 9    2  0.5684583E-005  0.1956740E+03  0.7546771E-02  0.1181143E+00
          2   -1    0    0  502    0  0.00000000000E+00  0.00000000000E+00  0.18670391149E+03  0.18670391149E+03  0.00000000000E+00 0. -1.
         -1   -1    0    0    0  501 -0.00000000000E+00 -0.00000000000E+00 -0.52511580840E+03  0.52511580840E+03  0.00000000000E+00 0.  1.
         24    2    1    2    0    0 -0.63708752036E+02  0.14624808138E+02 -0.11794233462E+03  0.15692547586E+03  0.80265313668E+02 0.  0.
         23    2    1    2    0    0  0.15796117353E+03 -0.94005766462E+02  0.87490853906E+02  0.22319487194E+03  0.91501283435E+02 0.  0.
        -13    1    3    3    0    0 -0.59377263209E+02  0.39290089582E+02 -0.57560318342E+02  0.91556325686E+02  0.00000000000E+00 0.  1.
         14    1    3    3    0    0 -0.43314888274E+01 -0.24665281445E+02 -0.60382016278E+02  0.65369150170E+02  0.00000000000E+00 0. -1.
        -13    1    4    4    0    0  0.19324902074E+02  0.76986164928E+01 -0.12523817793E+02  0.24280991499E+02  0.00000000000E+00 0.  1.
         13    1    4    4    0    0  0.13863627146E+03 -0.10170438296E+03  0.10001467170E+03  0.19891388044E+03  0.00000000000E+00 0. -1.
         21    1    1    2  502  501 -0.94252421494E+02  0.79380958325E+02 -0.30796041620E+03  0.33169937209E+03  0.00000000000E+00 0.  1.
<scales pt_clust_5="13000.00000" pt_clust_6="13000.00000" pt_clust_7="13000.00000" pt_clust_8="13000.00000" pt_clust_9="172.96193"></scales>
<clustering>
<clus scale="   80.265">  5  6 -1 -1</clus>
<clus scale="   91.501">  7  8 -1 -1</clus>
<clus scale="  103.514">  2  5  1 -1</clus>
<clus scale="  172.962">  2  9  1 -1</clus>
<clus scale="  195.674">  1  5  2 -1</clus>
</clustering>
</event>
<event>
 9    2  0.5684583E-005  0.1521209E+03  0.7546771E-02  0.1199901E+00
         -1   -1    0    0    0  501 -0.00000000000E+00  0.00000000000E+00  0.18523344982E+03  0.18523344982E+03  0.00000000000E+00 0.  1.
          2   -1    0    0  502    0  0.00000000000E+00 -0.00000000000E+00 -0.25490176121E+03  0.25490176121E+03  0.00000000000E+00 0. -1.
         24    2    1    2    0    0 -0.31889631951E+02  0.14009856393E+03  0.19826617499E+02  0.16618366089E+03  0.81113242711E+02 0.  0.
         23    2    1    2    0    0  0.16612215569E+02 -0.11242640065E+03 -0.14754552598E+03  0.20785298818E+03  0.92290417651E+02 0.  0.
        -11    1    3    3    0    0  0.22093769908E+02  0.37924098414E+02  0.24996369788E+02  0.50509310150E+02  0.00000000000E+00 0.  1.
         12    1    3    3    0    0 -0.53983401859E+02  0.10217446552E+03 -0.51697522894E+01  0.11567435074E+03  0.00000000000E+00 0. -1.
        -11    1    4    4    0    0  0.51957125700E+02 -0.40396624800E+02 -0.59347917463E+02  0.88620570487E+02  0.00000000000E+00 0.  1.
         11    1    4    4    0    0 -0.35344910131E+02 -0.72029775855E+02 -0.88197608516E+02  0.11923241770E+03  0.00000000000E+00 0. -1.
         21    1    1    2  502  501  0.15277416383E+02 -0.27672163275E+02  0.58050597083E+02  0.66098561961E+02  0.00000000000E+00 0.  1.
<scales pt_clust_5="13000.00000" pt_clust_6="13000.00000" pt_clust_7="13000.00000" pt_clust_8="13000.00000" pt_clust_9="31.60930"></scales>
<clustering>
<clus scale="   31.609">  1  9  2 -1</clus>
<clus scale="   81.113">  5  6 -1 -1</clus>
<clus scale="   92.290">  7  8 -1 -1</clus>
<clus scale="  145.611">  1  5  2 -1</clus>
<clus scale="  152.121">  2  5  1 -1</clus>
</clustering>
</event>
<event>
 9    2  0.5684583E-005  0.4965836E+03  0.7546771E-02  0.1014816E+00
         -1   -1    0    0    0  501 -0.00000000000E+00  0.00000000000E+00  0.26345219021E+03  0.26345219021E+03  0.00000000000E+00 0.  1.
          2   -1    0    0  502    0  0.00000000000E+00 -0.00000000000E+00 -0.19518456385E+04  0.19518456385E+04  0.00000000000E+00 0. -1.
         23    2    1    2    0    0  0.45381420838E+03 -0.21347317169E+03 -0.83918546221E+02  0.51593936773E+03  0.87366916043E+02 0.  0.
         24    2    1    2    0    0 -0.42829848502E+03  0.10327793802E+03 -0.12827733859E+04  0.13583512658E+04  0.74193510387E+02 0.  0.
        -13    1    4    4    0    0 -0.22915388431E+03  0.21145535578E+02 -0.61203032313E+03  0.65386524055E+03  0.00000000000E+00 0.  1.
         14    1    4    4    0    0 -0.19914460071E+03  0.82132402438E+02 -0.67074306280E+03  0.70448602528E+03  0.00000000000E+00 0. -1.
        -13    1    3    3    0    0  0.41295542172E+03 -0.21878057000E+03 -0.70564158146E+02  0.47262714539E+03  0.00000000000E+00 0.  1.
         13    1    3    3    0    0  0.40858786652E+02  0.53073983112E+01 -0.13354388076E+02  0.43312222344E+02  0.00000000000E+00 0. -1.
         21    1    1    2  502  501 -0.25515723358E+02  0.11019523367E+03 -0.32170151612E+03  0.34100719514E+03  0.00000000000E+00 0. -1.
<scales pt_clust_5="13000.00000" pt_clust_6="13000.00000" pt_clust_7="13000.00000" pt_clust_8="13000.00000" pt_clust_9="113.11075"></scales>
<clustering>
<clus scale="   74.194">  5  6 -1 -1</clus>
<clus scale="   87.367">  7  8 -1 -1</clus>
<clus scale="  113.111">  2  9  1 -1</clus>
<clus scale="  494.436">  2  5  1 -1</clus>
<clus scale="  113.111">  2  5  1 -1</clus>
</clustering>
</event>
<event>
 9    2  0.5684583E-005  0.1131383E+03  0.7546771E-02  0.1258914E+00
         -1   -1    0    0    0  501 -0.00000000000E+00  0.00000000000E+00  0.14249964787E+03  0.14249964787E+03  0.00000000000E+00 0.  1.
          2   -1    0    0  502    0  0.00000000000E+00 -0.00000000000E+00 -0.44332654173E+03  0.44332654173E+03  0.00000000000E+00 0. -1.
         23    2    1    2    0    0 -0.81496519778E+01 -0.15189946718E+02  0.60414516498E+02  0.11070711954E+03  0.91153722928E+02 0.  0.
         24    2    1    2    0    0 -0.66150845825E+02  0.30869457774E+02 -0.38144286751E+03  0.39654102026E+03  0.80107813246E+02 0.  0.
        -11    1    4    4    0    0 -0.27686106320E+02  0.11095601039E+02 -0.29501028692E+02  0.41951681009E+02  0.00000000000E+00 0.  1.
         12    1    4    4    0    0 -0.38464739505E+02  0.19773856735E+02 -0.35194183882E+03  0.35458933925E+03  0.00000000000E+00 0. -1.
        -13    1    3    3    0    0  0.37727412781E+02 -0.11711331670E+02  0.49664369350E+02  0.63459140773E+02  0.00000000000E+00 0. -1.
         13    1    3    3    0    0 -0.45877064759E+02 -0.34786150476E+01  0.10750147149E+02  0.47247978764E+02  0.00000000000E+00 0.  1.
         21    1    1    2  502  501  0.74300497803E+02 -0.15679511056E+02  0.20201457146E+02  0.78578049807E+02  0.00000000000E+00 0.  1.
<scales pt_clust_5="13000.00000" pt_clust_6="13000.00000" pt_clust_7="13000.00000" pt_clust_8="13000.00000" pt_clust_9="75.93689"></scales>
<clustering>
<clus scale="   75.937">  1  9  2 -1</clus>
<clus scale="   80.108">  5  6 -1 -1</clus>
<clus scale="   91.154">  7  8 -1 -1</clus>
<clus scale="  104.444">  2  5  1 -1</clus>
<clus scale="  104.444">  2  5  1 -1</clus>
</clustering>
</event>
<event>
 9    2  0.5684583E-005  0.9142142E+02  0.7546771E-02  0.1307884E+00
         -1   -1    0    0    0  501 -0.00000000000E+00  0.00000000000E+00  0.40312280228E+02  0.40312280228E+02  0.00000000000E+00 0.  1.
          2   -1    0    0  502    0  0.00000000000E+00 -0.00000000000E+00 -0.37239722963E+03  0.37239722963E+03  0.00000000000E+00 0. -1.
         23    2    1    2    0    0  0.16821290084E+02  0.15002468672E+02 -0.56611819522E+02  0.10943049979E+03  0.90896129225E+02 0.  0.
         24    2    1    2    0    0  0.28880619584E+01 -0.86761120701E+01 -0.27104327341E+03  0.28211051994E+03  0.77706329078E+02 0.  0.
        -11    1    4    4    0    0 -0.31538046544E+02  0.88913332158E+01 -0.68765588584E+02  0.76173554200E+02  0.00000000000E+00 0.  1.
         12    1    4    4    0    0  0.34426108503E+02 -0.17567445286E+02 -0.20227768483E+03  0.20593696574E+03  0.00000000000E+00 0. -1.
        -11    1    3    3    0    0 -0.16933562935E+02  0.24184942818E+02  0.12428860588E+02  0.32033319970E+02  0.00000000000E+00 0.  1.
         11    1    3    3    0    0  0.33754853019E+02 -0.91824741459E+01 -0.69040680110E+02  0.77397179818E+02  0.00000000000E+00 0. -1.
         21    1    1    2  502  501 -0.19709352042E+02 -0.63263566020E+01 -0.44298564664E+01  0.21168490123E+02  0.00000000000E+00 0. -1.
<scales pt_clust_5="13000.00000" pt_clust_6="13000.00000" pt_clust_7="13000.00000" pt_clust_8="13000.00000" pt_clust_9="20.69979"></scales>
<clustering>
<clus scale="   20.700">  1  9  2 -1</clus>
<clus scale="   77.706">  5  6 -1 -1</clus>
<clus scale="   78.320">  2  5  1 -1</clus>
<clus scale="   90.896">  7  8 -1 -1</clus>
<clus scale="   78.320">  2  5  1 -1</clus>
</clustering>
</event>
<event>
 9    2  0.5684583E-005  0.1320197E+03  0.7546771E-02  0.1228077E+00
         -1   -1    0    0    0  501 -0.00000000000E+00  0.00000000000E+00  0.56727802549E+02  0.56727802549E+02  0.00000000000E+00 0.  1.
          2   -1    0    0  502    0  0.00000000000E+00 -0.00000000000E+00 -0.54539459635E+03  0.54539459635E+03  0.00000000000E+00 0. -1.
         23    2    1    2    0    0 -0.55017426728E+02  0.11157490979E+03 -0.24553728192E+03  0.29072278622E+03  0.93569780789E+02 0.  0.
         24    2    1    2    0    0  0.12342304609E+02 -0.76139642741E+02 -0.22859251003E+03  0.25405723200E+03  0.79630168970E+02 0.  0.
        -13    1    4    4    0    0 -0.29208622432E+02 -0.59103767601E+02 -0.13316835170E+03  0.14859410777E+03  0.00000000000E+00 0.  1.
         14    1    4    4    0    0  0.41550927042E+02 -0.17035875140E+02 -0.95424158331E+02  0.10546312423E+03  0.00000000000E+00 0. -1.
        -11    1    3    3    0    0 -0.18074521442E+02  0.39925356439E+02 -0.14717795891E+02  0.46231330589E+02  0.00000000000E+00 0.  1.
         11    1    3    3    0    0 -0.36942905286E+02  0.71649553352E+02 -0.23081948603E+03  0.24449145563E+03  0.00000000000E+00 0. -1.
         21    1    1    2  502  501  0.42675122119E+02 -0.35435267050E+02 -0.14537001849E+02  0.57342380675E+02  0.00000000000E+00 0. -1.
<scales pt_clust_5="13000.00000" pt_clust_6="13000.00000" pt_clust_7="13000.00000" pt_clust_8="13000.00000" pt_clust_9="55.46913"></scales>
<clustering>
<clus scale="   55.469">  1  9  2 -1</clus>
<clus scale="   79.630">  5  6 -1 -1</clus>
<clus scale="   93.570">  7  8 -1 -1</clus>
<clus scale="  122.535">  2  5  1 -1</clus>
<clus scale="  122.535">  2  5  1 -1</clus>
</clustering>
</event>
<event>
 9    2  0.5684583E-005  0.1415461E+03  0.7546771E-02  0.1234620E+00
         -1   -1    0    0    0  501 -0.00000000000E+00  0.00000000000E+00  0.47564354690E+02  0.47564354690E+02  0.00000000000E+00 0.  1.
          2   -1    0    0  502    0  0.00000000000E+00 -0.00000000000E+00 -0.11933935557E+04  0.11933935557E+04  0.00000000000E+00 0. -1.
         23    2    1    2    0    0  0.10423627553E+03 -0.24703567782E+01 -0.10028856299E+03  0.17139959105E+03  0.91916919803E+02 0.  0.
         24    2    1    2    0    0  0.12792205919E+02  0.27792710682E+02 -0.66427376834E+03  0.66993185251E+03  0.81320184453E+02 0.  0.
        -13    1    4    4    0    0  0.40426280347E+02  0.34726987576E+02 -0.31301345575E+03  0.31751798577E+03  0.00000000000E+00 0.  1.
         14    1    4    4    0    0 -0.27634074428E+02 -0.69342768941E+01 -0.35126031260E+03  0.35241386674E+03  0.00000000000E+00 0. -1.
        -11    1    3    3    0    0  0.39771634391E+02 -0.44043598090E+02 -0.61425574391E+02  0.85409148363E+02  0.00000000000E+00 0. -1.
         11    1    3    3    0    0  0.64464641142E+02  0.41573241311E+02 -0.38862988598E+02  0.85990442687E+02  0.00000000000E+00 0.  1.
         21    1    1    2  502  501 -0.11702848145E+03 -0.25322353904E+02 -0.38126686970E+03  0.39962646686E+03  0.00000000000E+00 0. -1.
<scales pt_clust_5="13000.00000" pt_clust_6="13000.00000" pt_clust_7="13000.00000" pt_clust_8="13000.00000" pt_clust_9="107.64096"></scales>
<clustering>
<clus scale="   81.320">  5  6 -1 -1</clus>
<clus scale="   86.885">  2  5  1 -1</clus>
<clus scale="   91.917">  7  8 -1 -1</clus>
<clus scale="  107.641">  2  9  1 -1</clus>
<clus scale="   86.885">  2  5  1 -1</clus>
</clustering>
</event>
<event>
 9    2  0.5684583E-005  0.9057213E+02  0.7546771E-02  0.1307411E+00
          2   -1    0    0  502    0  0.00000000000E+00  0.00000000000E+00  0.12187622852E+03  0.12187622852E+03  0.00000000000E+00 0. -1.
         -1   -1    0    0    0  501 -0.00000000000E+00 -0.00000000000E+00 -0.11350458585E+03  0.11350458585E+03  0.00000000000E+00 0.  1.
         24    2    1    2    0    0 -0.23835570046E+02 -0.90786743571E+01 -0.49414303256E+01  0.84160579313E+02  0.80050163330E+02 0.  0.
         23    2    1    2    0    0  0.11909865212E+01 -0.21530936740E+02  0.44261328427E+02  0.10215374987E+03  0.89505998300E+02 0.  0.
        -11    1    3    3    0    0 -0.43735296809E+02  0.11019722294E+02  0.17169966973E+02  0.48259902945E+02  0.00000000000E+00 0.  1.
         12    1    3    3    0    0  0.19899726763E+02 -0.20098396651E+02 -0.22111397299E+02  0.35900676368E+02  0.00000000000E+00 0. -1.
        -11    1    4    4    0    0 -0.12284346920E+02 -0.46023676872E+02  0.54499597190E+02  0.72382940711E+02  0.00000000000E+00 0. -1.
         11    1    4    4    0    0  0.13475333441E+02  0.24492740132E+02 -0.10238268763E+02  0.29770809155E+02  0.00000000000E+00 0.  1.
         21    1    1    2  502  501  0.22644583525E+02  0.30609611097E+02 -0.30948255427E+02  0.49066485186E+02  0.00000000000E+00 0.  1.
<scales pt_clust_5="13000.00000" pt_clust_6="13000.00000" pt_clust_7="13000.00000" pt_clust_8="13000.00000" pt_clust_9="38.07526"></scales>
<clustering>
<clus scale="   38.075">  2  9  1 -1</clus>
<clus scale="   80.050">  5  6 -1 -1</clus>
<clus scale="   81.240">  2  5  1 -1</clus>
<clus scale="   89.506">  7  8 -1 -1</clus>
<clus scale="   90.572">  1  5  2 -1</clus>
</clustering>
</event>
<event>
 9    2  0.5684583E-005  0.1046592E+03  0.7546771E-02  0.1276521E+00
         -1   -1    0    0    0  501 -0.00000000000E+00  0.00000000000E+00  0.10307378147E+03  0.10307378147E+03  0.00000000000E+00 0.  1.
          2   -1    0    0  502    0  0.00000000000E+00 -0.00000000000E+00 -0.75702563694E+03  0.75702563694E+03  0.00000000000E+00 0. -1.
         23    2    1    2    0    0  0.38019426851E+02  0.34108935564E+02  0.71066484583E+02  0.12676903735E+03  0.91711762033E+02 0.  0.
         24    2    1    2    0    0 -0.37607190052E+02 -0.12482838143E+02 -0.59210482398E+03  0.59866835679E+03  0.79028835537E+02 0.  0.
        -11    1    4    4    0    0  0.11552510466E+02 -0.32182888542E+02 -0.18503001429E+03  0.18816297458E+03  0.00000000000E+00 0.  1.
         12    1    4    4    0    0 -0.49159700518E+02  0.19700050398E+02 -0.40707480969E+03  0.41050538221E+03  0.00000000000E+00 0. -1.
        -13    1    3    3    0    0  0.27347125285E+02  0.65565017147E+02  0.55156601233E+02  0.89938242113E+02  0.00000000000E+00 0.  1.
         13    1    3    3    0    0  0.10672301566E+02 -0.31456081583E+02  0.15909883350E+02  0.36830795232E+02  0.00000000000E+00 0. -1.
         21    1    1    2  502  501 -0.41223679857E+00 -0.21626097420E+02 -0.13291351607E+03  0.13466202428E+03  0.00000000000E+00 0. -1.
<scales pt_clust_5="13000.00000" pt_clust_6="13000.00000" pt_clust_7="13000.00000" pt_clust_8="13000.00000" pt_clust_9="21.63003"></scales>
<clustering>
<clus scale="   21.630">  2  9  1 -1</clus>
<clus scale="   79.029">  5  6 -1 -1</clus>
<clus scale="   91.712">  7  8 -1 -1</clus>
<clus scale="   93.745">  2  5  1 -1</clus>
<clus scale="   21.630">  2  5  1 -1</clus>
</clustering>
</event>
<event>
 9    2  0.5684583E-005  0.1019884E+03  0.7546771E-02  0.1286165E+00
         -1   -1    0    0    0  501 -0.00000000000E+00  0.00000000000E+00  0.12599963096E+03  0.12599963096E+03  0.00000000000E+00 0.  1.
          2   -1    0    0  502    0  0.00000000000E+00 -0.00000000000E+00 -0.36059640931E+03  0.36059640931E+03  0.00000000000E+00 0. -1.
         23    2    1    2    0    0  0.26679162657E+02  0.13784238013E+02  0.66515696895E+02  0.12291053613E+03  0.98898326680E+02 0.  0.
         24    2    1    2    0    0 -0.22043705198E+02  0.12557916692E+02 -0.31998491524E+03  0.33095072796E+03  0.80587915615E+02 0.  0.
        -13    1    4    4    0    0  0.23348238735E+02 -0.18057567002E+02 -0.12369059085E+03  0.12716358851E+03  0.00000000000E+00 0.  1.
         14    1    4    4    0    0 -0.45391943933E+02  0.30615483694E+02 -0.19629432439E+03  0.20378713945E+03  0.00000000000E+00 0. -1.
        -11    1    3    3    0    0 -0.26962174988E+02  0.25775856867E+02  0.55471799018E+02  0.66846646614E+02  0.00000000000E+00 0.  1.
         11    1    3    3    0    0  0.53641337645E+02 -0.11991618854E+02  0.11043897877E+02  0.56063889513E+02  0.00000000000E+00 0. -1.
         21    1    1    2  502  501 -0.46354574592E+01 -0.26342154706E+02  0.18872440001E+02  0.32734776186E+02  0.00000000000E+00 0. -1.
<scales pt_clust_5="13000.00000" pt_clust_6="13000.00000" pt_clust_7="13000.00000" pt_clust_8="13000.00000" pt_clust_9="26.74690"></scales>
<clustering>
<clus scale="   26.747">  1  9  2 -1</clus>
<clus scale="   80.588">  5  6 -1 -1</clus>
<clus scale="   84.351">  2  5  1 -1</clus>
<clus scale="   98.898">  7  8 -1 -1</clus>
<clus scale="   84.351">  2  5  1 -1</clus>
</clustering>
</event>
<event>
 9    2  0.5684583E-005  0.2891719E+03  0.7546771E-02  0.1091274E+00
          2   -1    0    0  502    0  0.00000000000E+00  0.00000000000E+00  0.39675126665E+03  0.39675126665E+03  0.00000000000E+00 0. -1.
         -1   -1    0    0    0  501 -0.00000000000E+00 -0.00000000000E+00 -0.37934833792E+03  0.37934833792E+03  0.00000000000E+00 0.  1.
         24    2    1    2    0    0 -0.57807836596E+02  0.33992794678E+03  0.72137397746E+02  0.36097684537E+03  0.78789109434E+02 0.  0.
         23    2    1    2    0    0 -0.26272399420E+02 -0.22579394793E+03  0.34796542140E+02  0.24745684811E+03  0.91383512949E+02 0.  0.
        -13    1    3    3    0    0 -0.31786954313E+02  0.10686107405E+03  0.58894482160E+02  0.12608830097E+03  0.00000000000E+00 0.  1.
         14    1    3    3    0    0 -0.26020882282E+02  0.23306687273E+03  0.13242915586E+02  0.23488854440E+03  0.00000000000E+00 0. -1.
        -11    1    4    4    0    0  0.15548885271E+02 -0.15394309160E+03 -0.60165344930E+01  0.15484328197E+03  0.00000000000E+00 0. -1.
         11    1    4    4    0    0 -0.41821284691E+02 -0.71850856326E+02  0.40813076633E+02  0.92613566135E+02  0.00000000000E+00 0.  1.
         21    1    1    2  502  501  0.84080236016E+02 -0.11413399886E+03 -0.89531011152E+02  0.16766591109E+03  0.00000000000E+00 0.  1.
<scales pt_clust_5="13000.00000" pt_clust_6="13000.00000" pt_clust_7="13000.00000" pt_clust_8="13000.00000" pt_clust_9="141.76056"></scales>
<clustering>
<clus scale="   78.789">  5  6 -1 -1</clus>
<clus scale="   91.384">  7  8 -1 -1</clus>
<clus scale="  141.761">  2  9  1 -1</clus>
<clus scale="  285.442">  2  5  1 -1</clus>
<clus scale="  289.172">  1  5  2 -1</clus>
</clustering>
</event>
<event>
 9    2  0.5684583E-005  0.8839889E+02  0.7546771E-02  0.1309636E+00
         -3   -1    0    0    0  501 -0.00000000000E+00  0.00000000000E+00  0.17251056320E+03  0.17251056320E+03  0.00000000000E+00 0.  1.
          4   -1    0    0  502    0  0.00000000000E+00 -0.00000000000E+00 -0.36208724760E+03  0.36208724760E+03  0.00000000000E+00 0. -1.
         23    2    1    2    0    0 -0.34689705241E+02  0.33021267772E+02  0.13255300600E+03  0.15946882772E+03  0.74607156764E+02 0.  0.
         24    2    1    2    0    0  0.38464141447E+02 -0.14758213440E+01 -0.33062080964E+03  0.34224341383E+03  0.79616369649E+02 0.  0.
        -11    1    4    4    0    0  0.16551581702E+02 -0.40317908904E+02 -0.17636455093E+03  0.18166987494E+03  0.00000000000E+00 0.  1.
         12    1    4    4    0    0  0.21912559745E+02  0.38842087560E+02 -0.15425625872E+03  0.16057353890E+03  0.00000000000E+00 0. -1.
        -11    1    3    3    0    0  0.10217172645E+02  0.37278372050E+02  0.87776612945E+02  0.95910382231E+02  0.00000000000E+00 0. -1.
         11    1    3    3    0    0 -0.44906877886E+02 -0.42571042780E+01  0.44776393056E+02  0.63558445492E+02  0.00000000000E+00 0.  1.
         21    1    1    2  502  501 -0.37744362055E+01 -0.31545446428E+02  0.84911192401E+01  0.32885569251E+02  0.00000000000E+00 0. -1.
<scales pt_clust_5="13000.00000" pt_clust_6="13000.00000" pt_clust_7="13000.00000" pt_clust_8="13000.00000" pt_clust_9="31.77045"></scales>
<clustering>
<clus scale="   31.770">  1  9  2 -1</clus>
<clus scale="   74.607">  7  8 -1 -1</clus>
<clus scale="   79.616">  5  6 -1 -1</clus>
<clus scale="   83.916">  1  7  2 -1</clus>
<clus scale="   88.399">  2  5  1 -1</clus>
</clustering>
</event>
<event>
 9    2  0.5684583E-005  0.1406330E+03  0.7546771E-02  0.1214031E+00
          2   -1    0    0  502    0  0.00000000000E+00  0.00000000000E+00  0.28722631799E+03  0.28722631799E+03  0.00000000000E+00 0. -1.
         -1   -1    0    0    0  501 -0.00000000000E+00 -0.00000000000E+00 -0.13728769127E+03  0.13728769127E+03  0.00000000000E+00 0.  1.
         24    2    1    2    0    0  0.87742239216E+02  0.86314071172E+02 -0.50409187800E+02  0.15634687295E+03  0.82185394323E+02 0.  0.
         23    2    1    2    0    0 -0.46230842704E+02 -0.38159523631E+02  0.15990014332E+03  0.19281416295E+03  0.89531031163E+02 0.  0.
        -11    1    3    3    0    0  0.10049555367E+03  0.88624579144E+02 -0.40333324650E+02  0.13993015906E+03  0.00000000000E+00 0.  1.
         12    1    3    3    0    0 -0.12753314455E+02 -0.23105079713E+01 -0.10075863151E+02  0.16416713889E+02  0.00000000000E+00 0. -1.
        -11    1    4    4    0    0 -0.33521990767E+02  0.79992141359E+01  0.13404111962E+03  0.13840062515E+03  0.00000000000E+00 0.  1.
         11    1    4    4    0    0 -0.12708851937E+02 -0.46158737767E+02  0.25859023694E+02  0.54413537803E+02  0.00000000000E+00 0. -1.
         21    1    1    2  502  501 -0.41511396512E+02 -0.48154547541E+02  0.40447671198E+02  0.75352973363E+02  0.00000000000E+00 0.  1.
<scales pt_clust_5="13000.00000" pt_clust_6="13000.00000" pt_clust_7="13000.00000" pt_clust_8="13000.00000" pt_clust_9="63.57717"></scales>
<clustering>
<clus scale="   63.577">  1  9  2 -1</clus>
<clus scale="   82.185">  5  6 -1 -1</clus>
<clus scale="   89.531">  7  8 -1 -1</clus>
<clus scale="  136.074">  2  5  1 -1</clus>
<clus scale="   63.577">  1  5  2 -1</clus>
</clustering>
</event>
<event>
 9    2  0.5684583E-005  0.1027761E+03  0.7546771E-02  0.1278342E+00
         -1   -1    0    0    0  501 -0.00000000000E+00  0.00000000000E+00  0.85992574487E+02  0.85992574487E+02  0.00000000000E+00 0.  1.
          2   -1    0    0  502    0  0.00000000000E+00 -0.00000000000E+00 -0.22229517567E+03  0.22229517567E+03  0.00000000000E+00 0. -1.
         23    2    1    2    0    0  0.28060196866E+02 -0.68156516384E+02 -0.10975438220E+02  0.11719961867E+03  0.90457752568E+02 0.  0.
         24    2    1    2    0    0 -0.74907695897E+01  0.41396039622E+02 -0.12730397918E+03  0.15727789253E+03  0.82220974451E+02 0.  0.
        -13    1    4    4    0    0  0.24157448669E+02 -0.93638016797E+01 -0.14743092552E+02  0.29809761590E+02  0.00000000000E+00 0.  1.
         14    1    4    4    0    0 -0.31648218259E+02  0.50759841301E+02 -0.11256088663E+03  0.12746813094E+03  0.00000000000E+00 0. -1.
        -13    1    3    3    0    0 -0.32904819369E+02 -0.18758782841E+02 -0.77907197975E+01  0.38669295136E+02  0.00000000000E+00 0. -1.
         13    1    3    3    0    0  0.60965016235E+02 -0.49397733543E+02 -0.31847184222E+01  0.78530323539E+02  0.00000000000E+00 0.  1.
         21    1    1    2  502  501 -0.20569427276E+02  0.26760476762E+02  0.19768162219E+01  0.33810238943E+02  0.00000000000E+00 0. -1.
<scales pt_clust_5="13000.00000" pt_clust_6="13000.00000" pt_clust_7="13000.00000" pt_clust_8="13000.00000" pt_clust_9="33.75240"></scales>
<clustering>
<clus scale="   33.752">  1  9  2 -1</clus>
<clus scale="   82.221">  5  6 -1 -1</clus>
<clus scale="   90.458">  7  8 -1 -1</clus>
<clus scale="   95.607">  2  5  1 -1</clus>
<clus scale="   95.607">  2  5  1 -1</clus>
</clustering>
</event>
<event>
 9    2  0.5684583E-005  0.1133903E+03  0.7546771E-02  0.1257671E+00
          2   -1    0    0  502    0  0.00000000000E+00  0.00000000000E+00  0.24676965969E+03  0.24676965969E+03  0.00000000000E+00 0. -1.
         -1   -1    0    0    0  501 -0.00000000000E+00 -0.00000000000E+00 -0.75389597651E+02  0.75389597651E+02  0.00000000000E+00 0.  1.
         23    2    1    2    0    0  0.17792069814E+02  0.45306670858E+02  0.47710350999E+02  0.11384028919E+03  0.91181586293E+02 0.  0.
         24    2    1    2    0    0 -0.26620777097E+02 -0.74756898439E+02  0.13379170022E+03  0.17595051681E+03  0.82225942858E+02 0.  0.
        -13    1    4    4    0    0 -0.41303402626E+02 -0.48747656492E+01  0.62287374287E+02  0.74896270963E+02  0.00000000000E+00 0.  1.
         14    1    4    4    0    0  0.14682625529E+02 -0.69882132790E+02  0.71504325937E+02  0.10105424585E+03  0.00000000000E+00 0. -1.
        -11    1    3    3    0    0 -0.11224497025E+02  0.21546235707E+02  0.67284212708E+02  0.71535969179E+02  0.00000000000E+00 0. -1.
         11    1    3    3    0    0  0.29016566839E+02  0.23760435152E+02 -0.19573861709E+02  0.42304320015E+02  0.00000000000E+00 0.  1.
         21    1    1    2  502  501  0.88287072828E+01  0.29450227581E+02 -0.10121989186E+02  0.32368451337E+02  0.00000000000E+00 0.  1.
<scales pt_clust_5="13000.00000" pt_clust_6="13000.00000" pt_clust_7="13000.00000" pt_clust_8="13000.00000" pt_clust_9="30.74511"></scales>
<clustering>
<clus scale="   30.745">  2  9  1 -1</clus>
<clus scale="   82.226">  5  6 -1 -1</clus>
<clus scale="   91.182">  7  8 -1 -1</clus>
<clus scale="  106.322">  1  5  2 -1</clus>
<clus scale="  106.322">  1  5  2 -1</clus>
</clustering>
</event>
<event>
 9    2  0.5684583E-005  0.2057623E+03  0.7546771E-02  0.1146597E+00
         -1   -1    0    0    0  501 -0.00000000000E+00  0.00000000000E+00  0.78228399453E+02  0.78228399453E+02  0.00000000000E+00 0.  1.
          2   -1    0    0  502    0  0.00000000000E+00 -0.00000000000E+00 -0.11555616927E+04  0.11555616927E+04  0.00000000000E+00 0. -1.
         23    2    1    2    0    0  0.15950974448E+03 -0.31711548487E+02 -0.21163797849E+03  0.28230356332E+03  0.91954809744E+02 0.  0.
         24    2    1    2    0    0 -0.18787785618E+03  0.34973790146E+02 -0.89049444677E+03  0.91366604583E+03  0.72691325011E+02 0.  0.
        -11    1    4    4    0    0 -0.45739779896E+02  0.34589226604E+02 -0.17391668948E+03  0.18312716058E+03  0.00000000000E+00 0.  1.
         12    1    4    4    0    0 -0.14213807628E+03  0.38456354144E+00 -0.71657775730E+03  0.73053888526E+03  0.00000000000E+00 0. -1.
        -11    1    3    3    0    0  0.67420189086E+02  0.19646207202E+01 -0.15506695371E+03  0.16910086270E+03  0.00000000000E+00 0. -1.
         11    1    3    3    0    0  0.92089555394E+02 -0.33676169207E+02 -0.56571024777E+02  0.11320270063E+03  0.00000000000E+00 0.  1.
         21    1    1    2  502  501  0.28368111701E+02 -0.32622416588E+01  0.24799132042E+02  0.37820482971E+02  0.00000000000E+00 0.  1.
<scales pt_clust_5="13000.00000" pt_clust_6="13000.00000" pt_clust_7="13000.00000" pt_clust_8="13000.00000" pt_clust_9="28.55507"></scales>
<clustering>
<clus scale="   28.555">  1  9  2 -1</clus>
<clus scale="   72.691">  5  6 -1 -1</clus>
<clus scale="   91.955">  7  8 -1 -1</clus>
<clus scale="  197.905">  2  5  1 -1</clus>
<clus scale="  197.905">  2  5  1 -1</clus>
</clustering>
</event>
<event>
 9    2  0.5684583E-005  0.1014204E+03  0.7546771E-02  0.1281640E+00
         -1   -1    0    0    0  501 -0.00000000000E+00  0.00000000000E+00  0.13609158068E+03  0.13609158068E+03  0.00000000000E+00 0.  1.
          2   -1    0    0  502    0  0.00000000000E+00 -0.00000000000E+00 -0.42445756408E+03  0.42445756408E+03  0.00000000000E+00 0. -1.
         23    2    1    2    0    0  0.40091841457E+02  0.24966481899E+02  0.10257235473E+03  0.14386319296E+03  0.89133884485E+02 0.  0.
         24    2    1    2    0    0 -0.62165494853E+02 -0.31858209877E+02 -0.37183320703E+03  0.38669015004E+03  0.79936499785E+02 0.  0.
        -11    1    4    4    0    0 -0.75261319716E+01  0.22492877344E+02 -0.44717428675E+02  0.50618382244E+02  0.00000000000E+00 0.  1.
         12    1    4    4    0    0 -0.54639362882E+02 -0.54351087221E+02 -0.32711577836E+03  0.33607176780E+03  0.00000000000E+00 0. -1.
        -11    1    3    3    0    0  0.39349742062E+02  0.24114411946E+01  0.11250084914E+03  0.11920846575E+03  0.00000000000E+00 0.  1.
         11    1    3    3    0    0  0.74209939489E+00  0.22555040704E+02 -0.99284944068E+01  0.24654727211E+02  0.00000000000E+00 0. -1.
         21    1    1    2  502  501  0.22073653396E+02  0.68917279781E+01 -0.19105131100E+02  0.29995801758E+02  0.00000000000E+00 0.  1.
<scales pt_clust_5="13000.00000" pt_clust_6="13000.00000" pt_clust_7="13000.00000" pt_clust_8="13000.00000" pt_clust_9="23.12449"></scales>
<clustering>
<clus scale="   23.124">  2  9  1 -1</clus>
<clus scale="   79.936">  5  6 -1 -1</clus>
<clus scale="   89.134">  7  8 -1 -1</clus>
<clus scale="   93.440">  2  5  1 -1</clus>
<clus scale="   23.124">  2  5  1 -1</clus>
</clustering>
</event>
<event>
 9    2  0.5684583E-005  0.1998514E+03  0.7546771E-02  0.1184097E+00
          2   -1    0    0  502    0  0.00000000000E+00  0.00000000000E+00  0.22959961700E+04  0.22959961700E+04  0.00000000000E+00 0. -1.
         -1   -1    0    0    0  501 -0.00000000000E+00 -0.00000000000E+00 -0.44790555860E+02  0.44790555860E+02  0.00000000000E+00 0.  1.
         23    2    1    2    0    0  0.10913611971E+02  0.87843174680E+01  0.45581402701E+02  0.10172733204E+03  0.89858303189E+02 0.  0.
         24    2    1    2    0    0 -0.24998864037E+02 -0.18759127664E+03  0.12817308345E+04  0.12979168462E+04  0.77063462746E+02 0.  0.
        -11    1    4    4    0    0 -0.30458113187E+02 -0.35465103202E+02  0.19221741700E+03  0.19782063998E+03  0.00000000000E+00 0.  1.
         12    1    4    4    0    0  0.54592491501E+01 -0.15212617344E+03  0.10895134175E+04  0.11000962062E+04  0.00000000000E+00 0. -1.
        -11    1    3    3    0    0  0.33514081082E+02  0.74785480956E+01 -0.14687032769E+02  0.37347439591E+02  0.00000000000E+00 0.  1.
         11    1    3    3    0    0 -0.22600469111E+02  0.13057693724E+01  0.60268435470E+02  0.64379892449E+02  0.00000000000E+00 0. -1.
         21    1    1    2  502  501  0.14085252066E+02  0.17880695917E+03  0.92389337697E+03  0.94114254764E+03  0.00000000000E+00 0.  1.
<scales pt_clust_5="13000.00000" pt_clust_6="13000.00000" pt_clust_7="13000.00000" pt_clust_8="13000.00000" pt_clust_9="184.39580"></scales>
<clustering>
<clus scale="   77.063">  5  6 -1 -1</clus>
<clus scale="   89.858">  7  8 -1 -1</clus>
<clus scale="   90.944">  2  7  1 -1</clus>
<clus scale="  184.396">  2  9  1 -1</clus>
<clus scale="  199.851">  1  5  2 -1</clus>
</clustering>
</event>
<event>
 9    2  0.5684583E-005  0.1199734E+03  0.7546771E-02  0.1244502E+00
         -1   -1    0    0    0  501 -0.00000000000E+00  0.00000000000E+00  0.12911747640E+03  0.12911747640E+03  0.00000000000E+00 0.  1.
          2   -1    0    0  502    0  0.00000000000E+00 -0.00000000000E+00 -0.36026066205E+03  0.36026066205E+03  0.00000000000E+00 0. -1.
         23    2    1    2    0    0  0.75902521927E+02  0.12231257940E+03 -0.86379602276E+01  0.17155012683E+03  0.92915401011E+02 0.  0.
         24    2    1    2    0    0 -0.45936853563E+02 -0.45882909673E+02 -0.20687781188E+03  0.23425976556E+03  0.88677916047E+02 0.  0.
        -13    1    4    4    0    0 -0.29485229405E+02 -0.25074192633E+02 -0.16554666520E+02  0.42096922367E+02  0.00000000000E+00 0.  1.
         14    1    4    4    0    0 -0.16451624159E+02 -0.20808717041E+02 -0.19032314536E+03  0.19216284319E+03  0.00000000000E+00 0. -1.
        -13    1    3    3    0    0 -0.64695501581E+00  0.27074060664E+02 -0.37251500826E+02  0.46055375641E+02  0.00000000000E+00 0. -1.
         13    1    3    3    0    0  0.76549476943E+02  0.95238518734E+02  0.28613540598E+02  0.12549475119E+03  0.00000000000E+00 0.  1.
         21    1    1    2  502  501 -0.29965668364E+02 -0.76429669725E+02 -0.15627413543E+02  0.83568246056E+02  0.00000000000E+00 0.  1.
<scales pt_clust_5="13000.00000" pt_clust_6="13000.00000" pt_clust_7="13000.00000" pt_clust_8="13000.00000" pt_clust_9="82.09407"></scales>
<clustering>
<clus scale="   82.094">  1  9  2 -1</clus>
<clus scale="   88.678">  5  6 -1 -1</clus>
<clus scale="   92.915">  7  8 -1 -1</clus>
<clus scale="  116.722">  2  5  1 -1</clus>
<clus scale="  116.722">  2  5  1 -1</clus>
</clustering>
</event>
<event>
 9    2  0.5684583E-005  0.9863458E+02  0.7546771E-02  0.1288900E+00
         -1   -1    0    0    0  501 -0.00000000000E+00  0.00000000000E+00  0.30067090177E+03  0.30067090177E+03  0.00000000000E+00 0.  1.
          2   -1    0    0  502    0  0.00000000000E+00 -0.00000000000E+00 -0.63315679571E+02  0.63315679571E+02  0.00000000000E+00 0. -1.
         23    2    1    2    0    0 -0.44399402485E+02  0.10222943446E+02  0.11871985147E+03  0.15740522021E+03  0.92769524639E+02 0.  0.
         24    2    1    2    0    0  0.58652120346E+01 -0.36357095851E+02  0.12588079356E+02  0.90762943932E+02  0.81995201801E+02 0.  0.
        -11    1    4    4    0    0 -0.37946507139E+02 -0.13390639897E+02  0.85007640403E+01  0.41127966522E+02  0.00000000000E+00 0.  1.
         12    1    4    4    0    0  0.43811719174E+02 -0.22966455954E+02  0.40873153156E+01  0.49634977411E+02  0.00000000000E+00 0. -1.
        -11    1    3    3    0    0 -0.55629140711E+02  0.29592873726E+02  0.11939873265E+03  0.13500517335E+03  0.00000000000E+00 0.  1.
         11    1    3    3    0    0  0.11229738225E+02 -0.19369930279E+02 -0.67888118364E+00  0.22400046859E+02  0.00000000000E+00 0. -1.
         21    1    1    2  502  501  0.38534190450E+02  0.26134152405E+02  0.10604729138E+03  0.11581841720E+03  0.00000000000E+00 0.  1.
<scales pt_clust_5="13000.00000" pt_clust_6="13000.00000" pt_clust_7="13000.00000" pt_clust_8="13000.00000" pt_clust_9="46.56047"></scales>
<clustering>
<clus scale="   46.560">  1  9  2 -1</clus>
<clus scale="   81.995">  5  6 -1 -1</clus>
<clus scale="   88.577">  2  5  1 -1</clus>
<clus scale="   92.770">  7  8 -1 -1</clus>
<clus scale="   88.577">  2  5  1 -1</clus>
</clustering>
</event>
<event>
 9    2  0.5684583E-005  0.1081175E+03  0.7546771E-02  0.1268938E+00
          2   -1    0    0  502    0  0.00000000000E+00  0.00000000000E+00  0.12921214150E+04  0.12921214150E+04  0.00000000000E+00 0. -1.
         -1   -1    0    0    0  501 -0.00000000000E+00 -0.00000000000E+00 -0.74174728725E+02  0.74174728725E+02  0.00000000000E+00 0.  1.
         23    2    1    2    0    0  0.42390879144E+02 -0.43218066345E+01  0.60101344339E+01  0.10064561362E+03  0.90982158570E+02 0.  0.
         24    2    1    2    0    0 -0.46792997087E+02 -0.36875421707E+02  0.12195120496E+04  0.12235319068E+04  0.79191580157E+02 0.  0.
        -11    1    4    4    0    0 -0.19890062330E+02 -0.58369999432E+01  0.63651350437E+02  0.66941613069E+02  0.00000000000E+00 0.  1.
         12    1    4    4    0    0 -0.26902934757E+02 -0.31038421764E+02  0.11558606992E+04  0.11565902937E+04  0.00000000000E+00 0. -1.
        -13    1    3    3    0    0 -0.21347496194E+02  0.20421226173E+02 -0.85199519053E+01  0.30746246155E+02  0.00000000000E+00 0.  1.
         13    1    3    3    0    0  0.63738375337E+02 -0.24743032808E+02  0.14530086339E+02  0.69899367466E+02  0.00000000000E+00 0. -1.
         21    1    1    2  502  501  0.44021179436E+01  0.41197228342E+02 -0.75754977895E+01  0.42118623341E+02  0.00000000000E+00 0. -1.
<scales pt_clust_5="13000.00000" pt_clust_6="13000.00000" pt_clust_7="13000.00000" pt_clust_8="13000.00000" pt_clust_9="41.43175"></scales>
<clustering>
<clus scale="   41.432">  2  9  1 -1</clus>
<clus scale="   79.192">  5  6 -1 -1</clus>
<clus scale="   90.982">  7  8 -1 -1</clus>
<clus scale="   98.402">  1  5  2 -1</clus>
<clus scale="   98.402">  1  5  2 -1</clus>
</clustering>
</event>
<event>
 9    2  0.5684583E-005  0.1192898E+03  0.7546771E-02  0.1248909E+00
         -1   -1    0    0    0  501 -0.00000000000E+00  0.00000000000E+00  0.24278855379E+02  0.24278855379E+02  0.00000000000E+00 0.  1.
          2   -1    0    0  502    0  0.00000000000E+00 -0.00000000000E+00 -0.84145993389E+03  0.84145993389E+03  0.00000000000E+00 0. -1.
         23    2    1    2    0    0 -0.87639205144E+02  0.42389805307E+02 -0.43788936898E+03  0.45774673785E+03  0.91145217502E+02 0.  0.
         24    2    1    2    0    0  0.63243238364E+02 -0.35953101752E+01 -0.30377851244E+03  0.31966074902E+03  0.76739666363E+02 0.  0.
        -11    1    4    4    0    0  0.67565161872E+01 -0.33888749300E+02 -0.87230872486E+02  0.93826024934E+02  0.00000000000E+00 0.  1.
         12    1    4    4    0    0  0.56486722176E+02  0.30293439125E+02 -0.21654763995E+03  0.22583472409E+03  0.00000000000E+00 0. -1.
        -13    1    3    3    0    0 -0.73016814480E+02  0.49237874697E+01 -0.38166928312E+03  0.38862210508E+03  0.00000000000E+00 0. -1.
         13    1    3    3    0    0 -0.14622390664E+02  0.37466017837E+02 -0.56220085862E+02  0.69124632770E+02  0.00000000000E+00 0.  1.
         21    1    1    2  502  501  0.24395966781E+02 -0.38794495132E+02 -0.75513197084E+02  0.88331302388E+02  0.00000000000E+00 0. -1.
<scales pt_clust_5="13000.00000" pt_clust_6="13000.00000" pt_clust_7="13000.00000" pt_clust_8="13000.00000" pt_clust_9="45.82768"></scales>
<clustering>
<clus scale="   45.828">  1  9  2 -1</clus>
<clus scale="   76.740">  5  6 -1 -1</clus>
<clus scale="   91.145">  7  8 -1 -1</clus>
<clus scale="  108.681">  2  5  1 -1</clus>
<clus scale="  108.681">  2  5  1 -1</clus>
</clustering>
</event>
<event>
 9    2  0.5684583E-005  0.9023283E+02  0.7546771E-02  0.1309068E+00
          2   -1    0    0  502    0  0.00000000000E+00  0.00000000000E+00  0.17682143528E+03  0.17682143528E+03  0.00000000000E+00 0. -1.
         -1   -1    0    0    0  501 -0.00000000000E+00 -0.00000000000E+00 -0.32912578453E+03  0.32912578453E+03  0.00000000000E+00 0.  1.
         23    2    1    2    0    0 -0.14238737876E+02  0.51838228711E+01 -0.20604492096E+03  0.22517694661E+03  0.89557434958E+02 0.  0.
         24    2    1    2    0    0 -0.11401391980E+02  0.43134680208E+01  0.15581225354E+03  0.17509982783E+03  0.78955010019E+02 0.  0.
        -13    1    4    4    0    0 -0.17310551871E+02 -0.35026747611E+02  0.63154458307E+02  0.74263139297E+02  0.00000000000E+00 0.  1.
         14    1    4    4    0    0  0.59091598906E+01  0.39340215632E+02  0.92657795236E+02  0.10083668853E+03  0.00000000000E+00 0. -1.
        -13    1    3    3    0    0  0.20717442648E+02  0.12241916770E+02 -0.10241890478E+02  0.26152882760E+02  0.00000000000E+00 0. -1.
         13    1    3    3    0    0 -0.34956180524E+02 -0.70580938990E+01 -0.19580303048E+03  0.19902406385E+03  0.00000000000E+00 0.  1.
         21    1    1    2  502  501  0.25640129856E+02 -0.94972908919E+01 -0.10207168183E+03  0.10567044537E+03  0.00000000000E+00 0.  1.
<scales pt_clust_5="13000.00000" pt_clust_6="13000.00000" pt_clust_7="13000.00000" pt_clust_8="13000.00000" pt_clust_9="27.34255"></scales>
<clustering>
<clus scale="   27.343">  2  9  1 -1</clus>
<clus scale="   78.955">  5  6 -1 -1</clus>
<clus scale="   79.720">  1  5  2 -1</clus>
<clus scale="   89.557">  7  8 -1 -1</clus>
<clus scale="   79.720">  1  5  2 -1</clus>
</clustering>
</event>
<event>
 9    2  0.5684583E-005  0.1233217E+03  0.7546771E-02  0.1240950E+00
          2   -1    0    0  502    0  0.00000000000E+00  0.00000000000E+00  0.29657535451E+03  0.29657535451E+03  0.00000000000E+00 0. -1.
         -1   -1    0    0    0  501 -0.00000000000E+00 -0.00000000000E+00 -0.15300746952E+03  0.15300746952E+03  0.00000000000E+00 0.  1.
         23    2    1    2    0    0  0.90887291364E+01 -0.64278932222E+02 -0.16356862924E+02  0.11332053866E+03  0.91430910482E+02 0.  0.
         24    2    1    2    0    0  0.30408599054E+02  0.82940090534E+02  0.22680596634E+03  0.25637877555E+03  0.80531910878E+02 0.  0.
        -11    1    4    4    0    0  0.48573483622E+02  0.17676345211E+02  0.92917614242E+02  0.10632741663E+03  0.00000000000E+00 0.  1.
         12    1    4    4    0    0 -0.18164884568E+02  0.65263745323E+02  0.13388835210E+03  0.15005135891E+03  0.00000000000E+00 0. -1.
        -13    1    3    3    0    0  0.20948395291E+02  0.59391218969E+01  0.23234265677E+02  0.31842417240E+02  0.00000000000E+00 0. -1.
         13    1    3    3    0    0 -0.11859666155E+02 -0.70218054119E+02 -0.39591128601E+02  0.81478121415E+02  0.00000000000E+00 0.  1.
         21    1    1    2  502  501 -0.39497328191E+02 -0.18661158312E+02 -0.66881218431E+02  0.79883509829E+02  0.00000000000E+00 0.  1.
<scales pt_clust_5="13000.00000" pt_clust_6="13000.00000" pt_clust_7="13000.00000" pt_clust_8="13000.00000" pt_clust_9="43.68384"></scales>
<clustering>
<clus scale="   43.684">  2  9  1 -1</clus>
<clus scale="   80.532">  5  6 -1 -1</clus>
<clus scale="   91.431">  7  8 -1 -1</clus>
<clus scale="  115.473">  1  5  2 -1</clus>
<clus scale="  115.473">  1  5  2 -1</clus>
</clustering>
</event>
<event>
 9    2  0.5684583E-005  0.1102420E+03  0.7546771E-02  0.1264943E+00
         -1   -1    0    0    0  501 -0.00000000000E+00  0.00000000000E+00  0.65083823963E+02  0.65083823963E+02  0.00000000000E+00 0.  1.
          2   -1    0    0  502    0  0.00000000000E+00 -0.00000000000E+00 -0.29709200859E+03  0.29709200859E+03  0.00000000000E+00 0. -1.
         23    2    1    2    0    0  0.72426164858E+02 -0.18443963971E+02 -0.38553016341E+02  0.12495125763E+03  0.92416192036E+02 0.  0.
         24    2    1    2    0    0 -0.45223906221E+02  0.34748394789E+02 -0.17420128370E+03  0.20012323518E+03  0.80315436768E+02 0.  0.
        -13    1    4    4    0    0 -0.17588478544E+02  0.33181341297E+02 -0.16748023981E+03  0.17163911767E+03  0.00000000000E+00 0.  1.
         14    1    4    4    0    0 -0.27635427677E+02  0.15670534921E+01 -0.67210438897E+01  0.28484117513E+02  0.00000000000E+00 0. -1.
        -13    1    3    3    0    0  0.32925963552E+02 -0.55491986318E+02 -0.17586348364E+02  0.66878690702E+02  0.00000000000E+00 0. -1.
         13    1    3    3    0    0  0.39500201306E+02  0.37048022347E+02 -0.20966667977E+02  0.58072566924E+02  0.00000000000E+00 0.  1.
         21    1    1    2  502  501 -0.27202258637E+02 -0.16304430818E+02 -0.19253884592E+02  0.37101339749E+02  0.00000000000E+00 0. -1.
<scales pt_clust_5="13000.00000" pt_clust_6="13000.00000" pt_clust_7="13000.00000" pt_clust_8="13000.00000" pt_clust_9="31.71431"></scales>
<clustering>
<clus scale="   31.714">  1  9  2 -1</clus>
<clus scale="   80.315">  5  6 -1 -1</clus>
<clus scale="   92.416">  7  8 -1 -1</clus>
<clus scale="  100.315">  2  5  1 -1</clus>
<clus scale="  100.315">  2  5  1 -1</clus>
</clustering>
</event>
<event>
 9    2  0.5684583E-005  0.2011701E+03  0.7546771E-02  0.1149807E+00
          2   -1    0    0  502    0  0.00000000000E+00  0.00000000000E+00  0.17408736974E+04  0.17408736974E+04  0.00000000000E+00 0. -1.
         -1   -1    0    0    0  501 -0.00000000000E+00 -0.00000000000E+00 -0.67332343760E+02  0.67332343760E+02  0.00000000000E+00 0.  1.
         23    2    1    2    0    0  0.20603248687E+03  0.88650614861E+02  0.38287166672E+03  0.45327612176E+03  0.92521414965E+02 0.  0.
         24    2    1    2    0    0 -0.14587226501E+03 -0.87293361307E+02  0.12800332650E+04  0.12938215902E+04  0.81180655925E+02 0.  0.
        -11    1    4    4    0    0 -0.42281231050E+02 -0.51286133926E+02  0.27945240143E+03  0.28724835021E+03  0.00000000000E+00 0.  1.
         12    1    4    4    0    0 -0.10359103396E+03 -0.36007227381E+02  0.10005808636E+04  0.10065732399E+04  0.00000000000E+00 0. -1.
        -11    1    3    3    0    0  0.61957422015E+02  0.68327234098E+02  0.10608006766E+03  0.14057138335E+03  0.00000000000E+00 0.  1.
         11    1    3    3    0    0  0.14407506485E+03  0.20323380764E+02  0.27679159906E+03  0.31270473842E+03  0.00000000000E+00 0. -1.
         21    1    1    2  502  501 -0.60160221856E+02 -0.13572535539E+01  0.10636421861E+02  0.61108329228E+02  0.00000000000E+00 0.  1.
<scales pt_clust_5="13000.00000" pt_clust_6="13000.00000" pt_clust_7="13000.00000" pt_clust_8="13000.00000" pt_clust_9="60.17553"></scales>
<clustering>
<clus scale="   60.176">  2  9  1 -1</clus>
<clus scale="   81.181">  5  6 -1 -1</clus>
<clus scale="   92.521">  7  8 -1 -1</clus>
<clus scale="  196.213">  1  5  2 -1</clus>
<clus scale="  196.213">  1  5  2 -1</clus>
</clustering>
</event>
<event>
 9    2  0.5684583E-005  0.1017528E+03  0.7546771E-02  0.1282178E+00
         -1   -1    0    0    0  501 -0.00000000000E+00  0.00000000000E+00  0.14302552795E+03  0.14302552795E+03  0.00000000000E+00 0.  1.
          2   -1    0    0  502    0  0.00000000000E+00 -0.00000000000E+00 -0.12161385203E+03  0.12161385203E+03  0.00000000000E+00 0. -1.
         23    2    1    2    0    0  0.48690935353E+02 -0.35752784540E+02  0.38797289735E+02  0.11603969583E+03  0.91164206403E+02 0.  0.
         24    2    1    2    0    0 -0.22938755669E+02  0.33961864799E+02 -0.53398078505E+02  0.10429077121E+03  0.79659371076E+02 0.  0.
        -13    1    4    4    0    0 -0.83191482513E+01  0.32764785731E+02  0.13055220161E+02  0.36237800500E+02  0.00000000000E+00 0.  1.
         14    1    4    4    0    0 -0.14619607418E+02  0.11970790681E+01 -0.66453298667E+02  0.68052970714E+02  0.00000000000E+00 0. -1.
        -13    1    3    3    0    0  0.42967695266E+02  0.24020144921E+02  0.15145754159E+02  0.51503243272E+02  0.00000000000E+00 0. -1.
         13    1    3    3    0    0  0.57232400871E+01 -0.59772929461E+02  0.23651535576E+02  0.64536452556E+02  0.00000000000E+00 0.  1.
         21    1    1    2  502  501 -0.25752179684E+02  0.17909197405E+01  0.36012464696E+02  0.44308912934E+02  0.00000000000E+00 0.  1.
<scales pt_clust_5="13000.00000" pt_clust_6="13000.00000" pt_clust_7="13000.00000" pt_clust_8="13000.00000" pt_clust_9="25.81438"></scales>
<clustering>
<clus scale="   25.814">  1  9  2 -1</clus>
<clus scale="   79.659">  5  6 -1 -1</clus>
<clus scale="   91.164">  7  8 -1 -1</clus>
<clus scale="   91.588">  2  5  1 -1</clus>
<clus scale="   91.588">  2  5  1 -1</clus>
</clustering>
</event>
<event>
 9    2  0.5684583E-005  0.3931383E+03  0.7546771E-02  0.1046349E+00
          2   -1    0    0  502    0  0.00000000000E+00  0.00000000000E+00  0.17000567685E+04  0.17000567685E+04  0.00000000000E+00 0. -1.
         -1   -1    0    0    0  501 -0.00000000000E+00 -0.00000000000E+00 -0.51428404235E+03  0.51428404235E+03  0.00000000000E+00 0.  1.
         23    2    1    2    0    0  0.15724986171E+03  0.35527607778E+03 -0.23511483741E+03  0.46330105905E+03  0.91762051496E+02 0.  0.
         24    2    1    2    0    0 -0.13462656787E+03 -0.35737154201E+03  0.15609509264E+04  0.16091456011E+04  0.83324899431E+02 0.  0.
        -11    1    4    4    0    0 -0.10901214356E+02 -0.86543670488E+02  0.48373740125E+03  0.49153892699E+03  0.00000000000E+00 0.  1.
         12    1    4    4    0    0 -0.12372535352E+03 -0.27082787152E+03  0.10772135252E+04  0.11176066741E+04  0.00000000000E+00 0. -1.
        -13    1    3    3    0    0  0.15300608233E+03  0.26954120471E+03 -0.15790747960E+03  0.34784780347E+03  0.00000000000E+00 0.  1.
         13    1    3    3    0    0  0.42437793859E+01  0.85734873073E+02 -0.77207357810E+02  0.11545325558E+03  0.00000000000E+00 0. -1.
         21    1    1    2  502  501 -0.22623293843E+02  0.20954642232E+01 -0.14006336287E+03  0.14189415074E+03  0.00000000000E+00 0. -1.
<scales pt_clust_5="13000.00000" pt_clust_6="13000.00000" pt_clust_7="13000.00000" pt_clust_8="13000.00000" pt_clust_9="22.72013"></scales>
<clustering>
<clus scale="   22.720">  2  9  1 -1</clus>
<clus scale="   83.325">  5  6 -1 -1</clus>
<clus scale="   91.762">  7  8 -1 -1</clus>
<clus scale="  391.255">  1  5  2 -1</clus>
<clus scale="  391.255">  1  5  2 -1</clus>
</clustering>
</event>
<event>
 9    2  0.5684583E-005  0.1385329E+03  0.7546771E-02  0.1217648E+00
          2   -1    0    0  502    0  0.00000000000E+00  0.00000000000E+00  0.59767684954E+03  0.59767684954E+03  0.00000000000E+00 0. -1.
         -1   -1    0    0    0  501 -0.00000000000E+00 -0.00000000000E+00 -0.10425541765E+03  0.10425541765E+03  0.00000000000E+00 0.  1.
         24    2    1    2    0    0 -0.53887028003E+02 -0.69455718903E+02 -0.38026995351E+02  0.12431563031E+03  0.79249068686E+02 0.  0.
         23    2    1    2    0    0  0.87680180763E+02  0.62684050236E+02  0.52384852141E+03  0.54232370221E+03  0.89892270733E+02 0.  0.
        -13    1    3    3    0    0 -0.16806656410E+02  0.14775907314E+02  0.46715765976E+01  0.22860769116E+02  0.00000000000E+00 0.  1.
         14    1    3    3    0    0 -0.37080371592E+02 -0.84231626217E+02 -0.42698571948E+02  0.10145486119E+03  0.00000000000E+00 0. -1.
        -11    1    4    4    0    0  0.47924806762E+02  0.81612117409E+02  0.31630419541E+03  0.33016006549E+03  0.00000000000E+00 0.  1.
         11    1    4    4    0    0  0.39755374002E+02 -0.18928067174E+02  0.20754432600E+03  0.21216363671E+03  0.00000000000E+00 0. -1.
         21    1    1    2  502  501 -0.33793152761E+02  0.67716686673E+01  0.75999058269E+01  0.35292934684E+02  0.00000000000E+00 0.  1.
<scales pt_clust_5="13000.00000" pt_clust_6="13000.00000" pt_clust_7="13000.00000" pt_clust_8="13000.00000" pt_clust_9="34.46495"></scales>
<clustering>
<clus scale="   34.465">  2  9  1 -1</clus>
<clus scale="   79.249">  5  6 -1 -1</clus>
<clus scale="   89.892">  7  8 -1 -1</clus>
<clus scale="  131.876">  2  5  1 -1</clus>
<clus scale="  138.533">  1  5  2 -1</clus>
</clustering>
</event>
<event>
 9    2  0.5684583E-005  0.9680605E+02  0.7546771E-02  0.1295592E+00
          2   -1    0    0  502    0  0.00000000000E+00  0.00000000000E+00  0.40477231209E+03  0.40477231209E+03  0.00000000000E+00 0. -1.
         -1   -1    0    0    0  501 -0.00000000000E+00 -0.00000000000E+00 -0.38954977678E+03  0.38954977678E+03  0.00000000000E+00 0.  1.
         23    2    1    2    0    0 -0.72491096746E+01  0.12513045631E+01 -0.25965575480E+03  0.27642526504E+03  0.94528835797E+02 0.  0.
         24    2    1    2    0    0 -0.97808319571E+01 -0.18862010692E+02  0.39077051415E+03  0.39944361165E+03  0.80013524110E+02 0.  0.
        -11    1    4    4    0    0 -0.37598437013E+02  0.68635641848E+01  0.11752148421E+03  0.12358013688E+03  0.00000000000E+00 0.  1.
         12    1    4    4    0    0  0.27817605056E+02 -0.25725574877E+02  0.27324902993E+03  0.27586347477E+03  0.00000000000E+00 0. -1.
        -11    1    3    3    0    0  0.36164564881E+02 -0.18747782120E+02 -0.17012662128E+03  0.17493548055E+03  0.00000000000E+00 0.  1.
         11    1    3    3    0    0 -0.43413674555E+02  0.19999086683E+02 -0.89529133513E+02  0.10148978448E+03  0.00000000000E+00 0. -1.
         21    1    1    2  502  501  0.17029941632E+02  0.17610706129E+02 -0.11589222404E+03  0.11845321218E+03  0.00000000000E+00 0. -1.
<scales pt_clust_5="13000.00000" pt_clust_6="13000.00000" pt_clust_7="13000.00000" pt_clust_8="13000.00000" pt_clust_9="24.49808"></scales>
<clustering>
<clus scale="   24.498">  2  9  1 -1</clus>
<clus scale="   80.014">  5  6 -1 -1</clus>
<clus scale="   82.691">  1  5  2 -1</clus>
<clus scale="   94.529">  7  8 -1 -1</clus>
<clus scale="   82.691">  1  5  2 -1</clus>
</clustering>
</event>
<event>
 9    2  0.5684583E-005  0.2100320E+03  0.7546771E-02  0.1170342E+00
         -1   -1    0    0    0  501 -0.00000000000E+00  0.00000000000E+00  0.11669290876E+04  0.11669290876E+04  0.00000000000E+00 0.  1.
          2   -1    0    0  502    0  0.00000000000E+00 -0.00000000000E+00 -0.21623676012E+03  0.21623676012E+03  0.00000000000E+00 0. -1.
         23    2    1    2    0    0  0.13096990301E+03  0.48123377390E+02  0.50448321135E+03  0.53736499066E+03  0.12160940634E+03 0.  0.
         24    2    1    2    0    0  0.46203735492E+02  0.53819823593E+02 -0.16763437410E+03  0.19881805598E+03  0.79974854907E+02 0.  0.
        -13    1    4    4    0    0 -0.20085691986E+02  0.16826756680E+02 -0.20553317514E+02  0.33301856161E+02  0.00000000000E+00 0.  1.
         14    1    4    4    0    0  0.66289427479E+02  0.36993066913E+02 -0.14708105658E+03  0.16551619981E+03  0.00000000000E+00 0. -1.
        -11    1    3    3    0    0  0.12027075853E+03  0.84025189954E+02  0.42189806693E+03  0.44668027356E+03  0.00000000000E+00 0. -1.
         11    1    3    3    0    0  0.10699144480E+02 -0.35901812564E+02  0.82585144419E+02  0.90684717106E+02  0.00000000000E+00 0.  1.
         21    1    1    2  502  501 -0.17717363850E+03 -0.10194320098E+03  0.61384349018E+03  0.64698280104E+03  0.00000000000E+00 0.  1.
<scales pt_clust_5="13000.00000" pt_clust_6="13000.00000" pt_clust_7="13000.00000" pt_clust_8="13000.00000" pt_clust_9="171.24428"></scales>
<clustering>
<clus scale="   79.975">  5  6 -1 -1</clus>
<clus scale="  106.899">  2  5  1 -1</clus>
<clus scale="  121.609">  7  8 -1 -1</clus>
<clus scale="  171.244">  2  9  1 -1</clus>
<clus scale="  106.899">  2  5  1 -1</clus>
</clustering>
</event>
<event>
 9    2  0.5684583E-005  0.1477232E+03  0.7546771E-02  0.1204375E+00
          2   -1    0    0  502    0  0.00000000000E+00  0.00000000000E+00  0.76216206933E+02  0.76216206933E+02  0.00000000000E+00 0. -1.
         -1   -1    0    0    0  501 -0.00000000000E+00 -0.00000000000E+00 -0.48600576550E+03  0.48600576550E+03  0.00000000000E+00 0.  1.
         24    2    1    2    0    0  0.11739167645E+03  0.53550491259E+02 -0.29775152597E+03  0.33455543353E+03  0.81381239093E+02 0.  0.
         23    2    1    2    0    0 -0.11451068720E+03 -0.23638105853E+02 -0.42566325224E+02  0.15197394332E+03  0.87250959153E+02 0.  0.
        -11    1    3    3    0    0  0.12446979356E+03  0.37376114682E+02 -0.28349068664E+03  0.31186002127E+03  0.00000000000E+00 0.  1.
         12    1    3    3    0    0 -0.70781171033E+01  0.16174376577E+02 -0.14260839330E+02  0.22695412263E+02  0.00000000000E+00 0. -1.
        -13    1    4    4    0    0 -0.88896527717E+02 -0.15134467181E+02 -0.69495926578E+02  0.11384783067E+03  0.00000000000E+00 0.  1.
         13    1    4    4    0    0 -0.25614159487E+02 -0.85036386717E+01  0.26929601354E+02  0.38126112652E+02  0.00000000000E+00 0. -1.
         21    1    1    2  502  501 -0.28809892499E+01 -0.29912385407E+02 -0.69471707373E+02  0.75692595576E+02  0.00000000000E+00 0. -1.
<scales pt_clust_5="13000.00000" pt_clust_6="13000.00000" pt_clust_7="13000.00000" pt_clust_8="13000.00000" pt_clust_9="30.05081"></scales>
<clustering>
<clus scale="   30.051">  2  9  1 -1</clus>
<clus scale="   81.381">  5  6 -1 -1</clus>
<clus scale="   87.251">  7  8 -1 -1</clus>
<clus scale="  144.334">  2  5  1 -1</clus>
<clus scale="  147.723">  1  5  2 -1</clus>
</clustering>
</event>
<event>
 9    2  0.6388531E-005  0.9608157E+02  0.7546771E-02  0.1294042E+00
         -1   -1    0    0    0  501 -0.00000000000E+00  0.00000000000E+00  0.75808386041E+02  0.75808386041E+02  0.00000000000E+00 0.  1.
          2   -1    0    0  502    0  0.00000000000E+00 -0.00000000000E+00 -0.52738948801E+03  0.52738948801E+03  0.00000000000E+00 0. -1.
         24    2    1    2    0    0  0.74093994091E+01 -0.61618779063E+01 -0.17610342315E+02  0.83409433658E+02  0.80957652682E+02 0.  0.
         23    2    1    2    0    0 -0.15883295569E+02 -0.33805399055E+02 -0.46067276908E+03  0.47098078268E+03  0.90600294706E+02 0.  0.
        -11    1    3    3    0    0  0.21922826437E+02  0.32545364187E+02 -0.14927230542E+02  0.41983726141E+02  0.00000000000E+00 0.  1.
         12    1    3    3    0    0 -0.14513427028E+02 -0.38707242093E+02 -0.26831117735E+01  0.41425707517E+02  0.00000000000E+00 0. -1.
        -11    1    4    4    0    0  0.35278954833E+02 -0.29624843844E+02 -0.19212143959E+03  0.19756741527E+03  0.00000000000E+00 0.  1.
         11    1    4    4    0    0 -0.51162250402E+02 -0.41805552112E+01 -0.26855132949E+03  0.27341336741E+03  0.00000000000E+00 0. -1.
         21    1    1    2  502  501  0.84738961601E+01  0.39967276962E+02  0.26702009426E+02  0.48807657711E+02  0.00000000000E+00 0.  1.
<scales pt_clust_5="13000.00000" pt_clust_6="13000.00000" pt_clust_7="13000.00000" pt_clust_8="13000.00000" pt_clust_9="40.85572"></scales>
<clustering>
<clus scale="   40.856">  1  9  2 -1</clus>
<clus scale="   80.958">  5  6 -1 -1</clus>
<clus scale="   87.048">  1  5  2 -1</clus>
<clus scale="   90.600">  7  8 -1 -1</clus>
<clus scale="   96.082">  2  5  1 -1</clus>
</clustering>
</event>
<event>
 9    2  0.5684583E-005  0.1030532E+03  0.7546771E-02  0.1278801E+00
         -1   -1    0    0    0  501 -0.00000000000E+00  0.00000000000E+00  0.52468912838E+02  0.52468912838E+02  0.00000000000E+00 0.  1.
          2   -1    0    0  502    0  0.00000000000E+00 -0.00000000000E+00 -0.56282391052E+03  0.56282391052E+03  0.00000000000E+00 0. -1.
         23    2    1    2    0    0 -0.42963962970E+02  0.16092842830E+02 -0.20961467595E+02  0.10431720850E+03  0.91311637604E+02 0.  0.
         24    2    1    2    0    0  0.66290160828E+02  0.52523337062E+01 -0.44019792261E+03  0.45249539715E+03  0.80968518195E+02 0.  0.
        -13    1    4    4    0    0  0.30412555077E+02  0.19923248155E+02 -0.58797152404E+02  0.69130054637E+02  0.00000000000E+00 0.  1.
         14    1    4    4    0    0  0.35877605751E+02 -0.14670914448E+02 -0.38140077021E+03  0.38336534251E+03  0.00000000000E+00 0. -1.
        -13    1    3    3    0    0 -0.59568036962E+02  0.37668254077E+02 -0.28569787686E+02  0.76049202239E+02  0.00000000000E+00 0.  1.
         13    1    3    3    0    0  0.16604073991E+02 -0.21575411247E+02  0.76083200912E+01  0.28268006265E+02  0.00000000000E+00 0. -1.
         21    1    1    2  502  501 -0.23326197857E+02 -0.21345176536E+02 -0.49195607477E+02  0.58480217706E+02  0.00000000000E+00 0. -1.
<scales pt_clust_5="13000.00000" pt_clust_6="13000.00000" pt_clust_7="13000.00000" pt_clust_8="13000.00000" pt_clust_9="31.61848"></scales>
<clustering>
<clus scale="   31.618">  2  9  1 -1</clus>
<clus scale="   80.969">  5  6 -1 -1</clus>
<clus scale="   91.312">  7  8 -1 -1</clus>
<clus scale="   94.011">  2  5  1 -1</clus>
<clus scale="   31.618">  2  5  1 -1</clus>
</clustering>
</event>
<event>
 9    2  0.5684583E-005  0.9430569E+02  0.7546771E-02  0.1299492E+00
          2   -1    0    0  502    0  0.00000000000E+00  0.00000000000E+00  0.92268606647E+02  0.92268606647E+02  0.00000000000E+00 0. -1.
         -1   -1    0    0    0  501 -0.00000000000E+00 -0.00000000000E+00 -0.26980960232E+03  0.26980960232E+03  0.00000000000E+00 0.  1.
         23    2    1    2    0    0  0.41415983646E+01 -0.34935455176E+01 -0.19719100986E+02  0.93404604980E+02  0.91138463837E+02 0.  0.
         24    2    1    2    0    0  0.44244198782E+02 -0.51331903880E+01  0.11885669981E+02  0.91992355849E+02  0.79607949442E+02 0.  0.
        -13    1    4    4    0    0  0.10743425039E+01  0.31970027995E+02 -0.55337321244E+01  0.32463195977E+02  0.00000000000E+00 0.  1.
         14    1    4    4    0    0  0.43169856278E+02 -0.37103218383E+02  0.17419402105E+02  0.59529159872E+02  0.00000000000E+00 0. -1.
        -13    1    3    3    0    0 -0.37642703979E+02 -0.22580506423E+02 -0.17976434113E+02  0.47434213566E+02  0.00000000000E+00 0.  1.
         13    1    3    3    0    0  0.41784302344E+02  0.19086960905E+02 -0.17426668731E+01  0.45970391415E+02  0.00000000000E+00 0. -1.
         21    1    1    2  502  501 -0.48385797146E+02  0.86267359056E+01 -0.16970756467E+03  0.17668124814E+03  0.00000000000E+00 0.  1.
<scales pt_clust_5="13000.00000" pt_clust_6="13000.00000" pt_clust_7="13000.00000" pt_clust_8="13000.00000" pt_clust_9="49.14881"></scales>
<clustering>
<clus scale="   49.149">  2  9  1 -1</clus>
<clus scale="   79.608">  5  6 -1 -1</clus>
<clus scale="   83.215">  1  5  2 -1</clus>
<clus scale="   91.138">  7  8 -1 -1</clus>
<clus scale="   83.215">  1  5  2 -1</clus>
</clustering>
</event>
<event>
 9    2  0.5684583E-005  0.1339320E+03  0.7546771E-02  0.1225333E+00
         -1   -1    0    0    0  501 -0.00000000000E+00  0.00000000000E+00  0.29537475980E+03  0.29537475980E+03  0.00000000000E+00 0.  1.
          2   -1    0    0  502    0  0.00000000000E+00 -0.00000000000E+00 -0.80131422456E+02  0.80131422456E+02  0.00000000000E+00 0. -1.
         24    2    1    2    0    0  0.36377930568E+02  0.95240105214E+02  0.73116405247E+02  0.14951082746E+03  0.81323104571E+02 0.  0.
         23    2    1    2    0    0 -0.50254413321E+02 -0.71833917761E+02  0.66620324531E+02  0.14573543846E+03  0.95472156065E+02 0.  0.
        -13    1    3    3    0    0  0.60239956358E+02  0.54796273735E+02  0.58714033018E+02  0.10039333459E+03  0.00000000000E+00 0.  1.
         14    1    3    3    0    0 -0.23862025790E+02  0.40443831478E+02  0.14402372229E+02  0.49117492865E+02  0.00000000000E+00 0. -1.
        -11    1    4    4    0    0 -0.16335238483E+02 -0.72289146472E+02  0.80196611951E+02  0.10919733185E+03  0.00000000000E+00 0.  1.
         11    1    4    4    0    0 -0.33919174838E+02  0.45522871120E+00 -0.13576287420E+02  0.36538106615E+02  0.00000000000E+00 0. -1.
         21    1    1    2  502  501  0.13876482753E+02 -0.23406187453E+02  0.75506607561E+02  0.80259916334E+02  0.00000000000E+00 0. -1.
<scales pt_clust_5="13000.00000" pt_clust_6="13000.00000" pt_clust_7="13000.00000" pt_clust_8="13000.00000" pt_clust_9="27.21041"></scales>
<clustering>
<clus scale="   27.210">  1  9  2 -1</clus>
<clus scale="   81.323">  5  6 -1 -1</clus>
<clus scale="   95.472">  7  8 -1 -1</clus>
<clus scale="  124.243">  1  5  2 -1</clus>
<clus scale="  133.932">  2  5  1 -1</clus>
</clustering>
</event>
<event>
 9    2  0.5684583E-005  0.1272081E+03  0.7546771E-02  0.1234780E+00
          2   -1    0    0  502    0  0.00000000000E+00  0.00000000000E+00  0.46927532172E+03  0.46927532172E+03  0.00000000000E+00 0. -1.
         -1   -1    0    0    0  501 -0.00000000000E+00 -0.00000000000E+00 -0.73653994170E+02  0.73653994170E+02  0.00000000000E+00 0.  1.
         23    2    1    2    0    0 -0.42230242963E+02  0.48358577649E+02  0.13218170301E+03  0.17287069145E+03  0.91051237769E+02 0.  0.
         24    2    1    2    0    0  0.83738973337E+02 -0.66824062593E+02  0.28870587931E+03  0.31807466093E+03  0.79641284378E+02 0.  0.
        -13    1    4    4    0    0 -0.29024894877E+01 -0.35490150030E+02  0.44029503413E+02  0.56626604748E+02  0.00000000000E+00 0.  1.
         14    1    4    4    0    0  0.86641462825E+02 -0.31333912562E+02  0.24467637590E+03  0.26144805618E+03  0.00000000000E+00 0. -1.
        -13    1    3    3    0    0  0.27827203697E+02  0.97661835344E+01  0.50956659742E+02  0.58875400453E+02  0.00000000000E+00 0.  1.
         13    1    3    3    0    0 -0.70057446660E+02  0.38592394115E+02  0.81225043271E+02  0.11399529100E+03  0.00000000000E+00 0. -1.
         21    1    1    2  502  501 -0.41508730375E+02  0.18465484944E+02 -0.25266254777E+02  0.51983963508E+02  0.00000000000E+00 0.  1.
<scales pt_clust_5="13000.00000" pt_clust_6="13000.00000" pt_clust_7="13000.00000" pt_clust_8="13000.00000" pt_clust_9="45.43070"></scales>
<clustering>
<clus scale="   45.431">  2  9  1 -1</clus>
<clus scale="   79.641">  5  6 -1 -1</clus>
<clus scale="   91.051">  7  8 -1 -1</clus>
<clus scale="  119.308">  1  5  2 -1</clus>
<clus scale="  119.308">  1  5  2 -1</clus>
</clustering>
</event>
<event>
 9    2  0.5684583E-005  0.2334006E+03  0.7546771E-02  0.1124961E+00
         -1   -1    0    0    0  501 -0.00000000000E+00  0.00000000000E+00  0.25389911716E+02  0.25389911716E+02  0.00000000000E+00 0.  1.
          2   -1    0    0  502    0  0.00000000000E+00 -0.00000000000E+00 -0.25550356752E+04  0.25550356752E+04  0.00000000000E+00 0. -1.
         23    2    1    2    0    0 -0.21600151077E+03 -0.72591974072E+02 -0.10715878176E+04  0.10993061767E+04  0.90815042268E+02 0.  0.
         24    2    1    2    0    0  0.18496241008E+03  0.93192457331E+02 -0.12911757724E+04  0.13101297454E+04  0.80057148859E+02 0.  0.
        -13    1    4    4    0    0  0.14177059949E+03  0.10508038519E+03 -0.98283111644E+03  0.99854784245E+03  0.00000000000E+00 0.  1.
         14    1    4    4    0    0  0.43191810598E+02 -0.11887927856E+02 -0.30834465600E+03  0.31158190290E+03  0.00000000000E+00 0. -1.
        -11    1    3    3    0    0 -0.16301181164E+03 -0.93611836096E+02 -0.84514415637E+03  0.86579713077E+03  0.00000000000E+00 0. -1.
         11    1    3    3    0    0 -0.52989699130E+02  0.21019862025E+02 -0.22644366124E+03  0.23350904592E+03  0.00000000000E+00 0.  1.
         21    1    1    2  502  501  0.31039100691E+02 -0.20600483260E+02 -0.16688217342E+03  0.17098966486E+03  0.00000000000E+00 0.  1.
<scales pt_clust_5="13000.00000" pt_clust_6="13000.00000" pt_clust_7="13000.00000" pt_clust_8="13000.00000" pt_clust_9="37.25326"></scales>
<clustering>
<clus scale="   37.253">  1  9  2 -1</clus>
<clus scale="   80.057">  5  6 -1 -1</clus>
<clus scale="   90.815">  7  8 -1 -1</clus>
<clus scale="  229.429">  2  5  1 -1</clus>
<clus scale="  229.429">  2  5  1 -1</clus>
</clustering>
</event>
<event>
 9    2  0.5684583E-005  0.9257994E+02  0.7546771E-02  0.1302344E+00
          2   -1    0    0  502    0  0.00000000000E+00  0.00000000000E+00  0.37272251556E+03  0.37272251556E+03  0.00000000000E+00 0. -1.
         -1   -1    0    0    0  501 -0.00000000000E+00 -0.00000000000E+00 -0.90398032632E+02  0.90398032632E+02  0.00000000000E+00 0.  1.
         23    2    1    2    0    0 -0.22677157392E+02  0.44478617932E+02 -0.16368494558E+02  0.10486771864E+03  0.90756321427E+02 0.  0.
         24    2    1    2    0    0  0.35842453592E+01 -0.15125788787E+02  0.31044026253E+03  0.32131874536E+03  0.81430603724E+02 0.  0.
        -13    1    4    4    0    0 -0.22459152394E+02 -0.26004755344E+02  0.58823091922E+02  0.68123541966E+02  0.00000000000E+00 0.  1.
         14    1    4    4    0    0  0.26043397754E+02  0.10878966557E+02  0.25161717061E+03  0.25319520340E+03  0.00000000000E+00 0. -1.
        -13    1    3    3    0    0  0.14145921694E+02  0.60184343148E+02 -0.56040721275E+00  0.61826986964E+02  0.00000000000E+00 0.  1.
         13    1    3    3    0    0 -0.36823079087E+02 -0.15705725217E+02 -0.15808087345E+02  0.43040731680E+02  0.00000000000E+00 0. -1.
         21    1    1    2  502  501  0.19092912033E+02 -0.29352829144E+02 -0.11747285043E+02  0.36934084185E+02  0.00000000000E+00 0.  1.
<scales pt_clust_5="13000.00000" pt_clust_6="13000.00000" pt_clust_7="13000.00000" pt_clust_8="13000.00000" pt_clust_9="35.01611"></scales>
<clustering>
<clus scale="   35.016">  2  9  1 -1</clus>
<clus scale="   81.431">  5  6 -1 -1</clus>
<clus scale="   83.458">  1  5  2 -1</clus>
<clus scale="   90.756">  7  8 -1 -1</clus>
<clus scale="   83.458">  1  5  2 -1</clus>
</clustering>
</event>
<event>
 9    2  0.5684583E-005  0.9911654E+02  0.7546771E-02  0.1285945E+00
          4   -1    0    0  502    0  0.00000000000E+00  0.00000000000E+00  0.54749422552E+03  0.54749422552E+03  0.00000000000E+00 0. -1.
         -3   -1    0    0    0  501 -0.00000000000E+00 -0.00000000000E+00 -0.53436650254E+02  0.53436650254E+02  0.00000000000E+00 0.  1.
         23    2    1    2    0    0 -0.33520290254E+01 -0.24056266152E+02  0.14215319658E+02  0.94639681966E+02  0.90358475252E+02 0.  0.
         24    2    1    2    0    0 -0.17583933774E+02  0.39256811554E+02  0.46907936389E+03  0.47826957792E+03  0.82801253325E+02 0.  0.
        -13    1    4    4    0    0 -0.18653929739E+00  0.61918687859E+02  0.26135025680E+03  0.26858502459E+03  0.00000000000E+00 0.  1.
         14    1    4    4    0    0 -0.17397394477E+02 -0.22661876305E+02  0.20772910709E+03  0.20968455333E+03  0.00000000000E+00 0. -1.
        -11    1    3    3    0    0 -0.40148310809E+02 -0.20329931083E+01 -0.14827440580E+02  0.42847087602E+02  0.00000000000E+00 0. -1.
         11    1    3    3    0    0  0.36796281784E+02 -0.22023273044E+02  0.29042760239E+02  0.51792594364E+02  0.00000000000E+00 0.  1.
         21    1    1    2  502  501  0.20935962800E+02 -0.15200545402E+02  0.10762891713E+02  0.28021615887E+02  0.00000000000E+00 0.  1.
<scales pt_clust_5="13000.00000" pt_clust_6="13000.00000" pt_clust_7="13000.00000" pt_clust_8="13000.00000" pt_clust_9="25.87221"></scales>
<clustering>
<clus scale="   25.872">  2  9  1 -1</clus>
<clus scale="   82.801">  5  6 -1 -1</clus>
<clus scale="   90.358">  7  8 -1 -1</clus>
<clus scale="   92.279">  1  5  2 -1</clus>
<clus scale="   92.279">  1  5  2 -1</clus>
</clustering>
</event>
<event>
 9    2  0.5684583E-005  0.1255842E+03  0.7546771E-02  0.1238311E+00
         -1   -1    0    0    0  501 -0.00000000000E+00  0.00000000000E+00  0.63595093378E+02  0.63595093378E+02  0.00000000000E+00 0.  1.
          2   -1    0    0  502    0  0.00000000000E+00 -0.00000000000E+00 -0.38660030590E+03  0.38660030590E+03  0.00000000000E+00 0. -1.
         24    2    1    2    0    0  0.36451351010E+01 -0.80267312151E+02 -0.66728051699E+02  0.13119931283E+03  0.79400871499E+02 0.  0.
         23    2    1    2    0    0 -0.26445125004E+02  0.81936238217E+02 -0.26545923164E+03  0.29436002997E+03  0.93628691186E+02 0.  0.
        -11    1    3    3    0    0  0.39954568938E+02 -0.53295839784E+02 -0.30556858539E+02  0.73283939039E+02  0.00000000000E+00 0.  1.
         12    1    3    3    0    0 -0.36309433837E+02 -0.26971472367E+02 -0.36171193160E+02  0.57915373795E+02  0.00000000000E+00 0. -1.
        -11    1    4    4    0    0  0.35254753695E+02  0.26460851024E+02 -0.85502991368E+02  0.96196859761E+02  0.00000000000E+00 0.  1.
         11    1    4    4    0    0 -0.61699878699E+02  0.55475387194E+02 -0.17995624027E+03  0.19816317021E+03  0.00000000000E+00 0. -1.
         21    1    1    2  502  501  0.22799989903E+02 -0.16689260664E+01  0.91820708190E+01  0.24636056469E+02  0.00000000000E+00 0.  1.
<scales pt_clust_5="13000.00000" pt_clust_6="13000.00000" pt_clust_7="13000.00000" pt_clust_8="13000.00000" pt_clust_9="22.86099"></scales>
<clustering>
<clus scale="   22.861">  1  9  2 -1</clus>
<clus scale="   79.401">  5  6 -1 -1</clus>
<clus scale="   93.629">  7  8 -1 -1</clus>
<clus scale="  115.367">  1  5  2 -1</clus>
<clus scale="  125.584">  2  5  1 -1</clus>
</clustering>
</event>
<event>
 9    2  0.5684583E-005  0.1087446E+03  0.7546771E-02  0.1267123E+00
         -1   -1    0    0    0  501 -0.00000000000E+00  0.00000000000E+00  0.35543508454E+02  0.35543508454E+02  0.00000000000E+00 0.  1.
          2   -1    0    0  502    0  0.00000000000E+00 -0.00000000000E+00 -0.48702654749E+03  0.48702654749E+03  0.00000000000E+00 0. -1.
         23    2    1    2    0    0  0.13178508539E+02  0.51079270948E+02 -0.14323696252E+03  0.17743062066E+03  0.90454589203E+02 0.  0.
         24    2    1    2    0    0  0.17220706127E+01 -0.64776614230E+02 -0.30817051475E+03  0.32489961855E+03  0.79948237595E+02 0.  0.
        -11    1    4    4    0    0  0.18651287609E+02 -0.35301933013E+02 -0.47627798498E+02  0.62149048213E+02  0.00000000000E+00 0.  1.
         12    1    4    4    0    0 -0.16929216996E+02 -0.29474681216E+02 -0.26054271625E+03  0.26275057033E+03  0.00000000000E+00 0. -1.
        -11    1    3    3    0    0 -0.37377034303E+02  0.29816885214E+02 -0.84353829118E+02  0.96962146346E+02  0.00000000000E+00 0.  1.
         11    1    3    3    0    0  0.50555542842E+02  0.21262385734E+02 -0.58883133402E+02  0.80468474314E+02  0.00000000000E+00 0. -1.
         21    1    1    2  502  501 -0.14900579152E+02  0.13697343281E+02 -0.75561771491E-01  0.20239816739E+02  0.00000000000E+00 0. -1.
<scales pt_clust_5="13000.00000" pt_clust_6="13000.00000" pt_clust_7="13000.00000" pt_clust_8="13000.00000" pt_clust_9="20.23968"></scales>
<clustering>
<clus scale="   20.240">  1  9  2 -1</clus>
<clus scale="   79.948">  5  6 -1 -1</clus>
<clus scale="   90.455">  7  8 -1 -1</clus>
<clus scale="  100.175">  2  5  1 -1</clus>
<clus scale="  100.175">  2  5  1 -1</clus>
</clustering>
</event>
<event>
 9    2  0.5684583E-005  0.1048153E+03  0.7546771E-02  0.1274987E+00
          2   -1    0    0  502    0  0.00000000000E+00  0.00000000000E+00  0.56034749106E+03  0.56034749106E+03  0.00000000000E+00 0. -1.
         -1   -1    0    0    0  501 -0.00000000000E+00 -0.00000000000E+00 -0.18295655602E+03  0.18295655602E+03  0.00000000000E+00 0.  1.
         23    2    1    2    0    0 -0.53983565192E+02 -0.30953745432E+02 -0.13925337893E+03  0.17751762870E+03  0.90822052881E+02 0.  0.
         24    2    1    2    0    0  0.15315272306E+02  0.50221952157E+02  0.51353717223E+03  0.52247181351E+03  0.80619889633E+02 0.  0.
        -11    1    4    4    0    0  0.23434355404E+02  0.21153341438E+02  0.58840024237E+02  0.66774106654E+02  0.00000000000E+00 0.  1.
         12    1    4    4    0    0 -0.81190830983E+01  0.29068610719E+02  0.45469714800E+03  0.45569770686E+03  0.00000000000E+00 0. -1.
        -13    1    3    3    0    0 -0.17763327060E+01 -0.53283479203E+02 -0.67259806898E+02  0.85826372041E+02  0.00000000000E+00 0.  1.
         13    1    3    3    0    0 -0.52207232486E+02  0.22329733770E+02 -0.71993572033E+02  0.91691256661E+02  0.00000000000E+00 0. -1.
         21    1    1    2  502  501  0.38668292886E+02 -0.19268206725E+02  0.31071417440E+01  0.43314604868E+02  0.00000000000E+00 0.  1.
<scales pt_clust_5="13000.00000" pt_clust_6="13000.00000" pt_clust_7="13000.00000" pt_clust_8="13000.00000" pt_clust_9="43.20302"></scales>
<clustering>
<clus scale="   43.203">  2  9  1 -1</clus>
<clus scale="   80.620">  5  6 -1 -1</clus>
<clus scale="   90.822">  7  8 -1 -1</clus>
<clus scale="   96.110">  1  5  2 -1</clus>
<clus scale="   96.110">  1  5  2 -1</clus>
</clustering>
</event>
<event>
 9    2  0.5684583E-005  0.1083179E+03  0.7546771E-02  0.1267418E+00
          2   -1    0    0  502    0  0.00000000000E+00  0.00000000000E+00  0.78950450499E+03  0.78950450499E+03  0.00000000000E+00 0. -1.
         -1   -1    0    0    0  501 -0.00000000000E+00 -0.00000000000E+00 -0.39732454269E+02  0.39732454269E+02  0.00000000000E+00 0.  1.
         23    2    1    2    0    0 -0.70022573720E+02  0.26476247488E+02  0.79701248829E+02  0.14145035873E+03  0.89731613204E+02 0.  0.
         24    2    1    2    0    0  0.48486241692E+02 -0.33902333502E+02  0.64936515509E+03  0.65700212132E+03  0.80476076743E+02 0.  0.
        -11    1    4    4    0    0  0.24720359059E+02 -0.51332191182E+02  0.24385441263E+03  0.25042177334E+03  0.00000000000E+00 0.  1.
         12    1    4    4    0    0  0.23765882634E+02  0.17429857680E+02  0.40551074245E+03  0.40658034798E+03  0.00000000000E+00 0. -1.
        -11    1    3    3    0    0 -0.34064250738E+02 -0.20040180073E+02 -0.33840576407E+01  0.39666533020E+02  0.00000000000E+00 0.  1.
         11    1    3    3    0    0 -0.35958322982E+02  0.46516427561E+02  0.83085306470E+02  0.10178382571E+03  0.00000000000E+00 0. -1.
         21    1    1    2  502  501  0.21536332028E+02  0.74260860140E+01  0.20705646806E+02  0.30784479212E+02  0.00000000000E+00 0.  1.
<scales pt_clust_5="13000.00000" pt_clust_6="13000.00000" pt_clust_7="13000.00000" pt_clust_8="13000.00000" pt_clust_9="22.78070"></scales>
<clustering>
<clus scale="   22.781">  2  9  1 -1</clus>
<clus scale="   80.476">  5  6 -1 -1</clus>
<clus scale="   89.732">  7  8 -1 -1</clus>
<clus scale="  100.784">  1  5  2 -1</clus>
<clus scale="  100.784">  1  5  2 -1</clus>
</clustering>
</event>
<event>
 9    2  0.5684583E-005  0.1087999E+03  0.7546771E-02  0.1267363E+00
         -1   -1    0    0    0  501 -0.00000000000E+00  0.00000000000E+00  0.38547886091E+03  0.38547886091E+03  0.00000000000E+00 0.  1.
          2   -1    0    0  502    0  0.00000000000E+00 -0.00000000000E+00 -0.66196680562E+02  0.66196680562E+02  0.00000000000E+00 0. -1.
         23    2    1    2    0    0  0.69942140381E+02 -0.20004460907E+02  0.24773712962E+03  0.27394329287E+03  0.91537756486E+02 0.  0.
         24    2    1    2    0    0 -0.27565679448E+02 -0.33295360585E+02  0.22915064504E+02  0.94057216641E+02  0.80331887200E+02 0.  0.
        -11    1    4    4    0    0  0.27574275954E+02 -0.18413697398E+02  0.15022270043E+02  0.36401559630E+02  0.00000000000E+00 0.  1.
         12    1    4    4    0    0 -0.55139955402E+02 -0.14881663188E+02  0.78927944607E+01  0.57655657011E+02  0.00000000000E+00 0. -1.
        -11    1    3    3    0    0  0.40167900335E+02  0.35091043534E+02  0.13157849376E+03  0.14197796157E+03  0.00000000000E+00 0. -1.
         11    1    3    3    0    0  0.29774240046E+02 -0.55095504441E+02  0.11615863586E+03  0.13196533130E+03  0.00000000000E+00 0.  1.
         21    1    1    2  502  501 -0.42376460932E+02  0.53299821492E+02  0.48629986223E+02  0.83675031953E+02  0.00000000000E+00 0. -1.
<scales pt_clust_5="13000.00000" pt_clust_6="13000.00000" pt_clust_7="13000.00000" pt_clust_8="13000.00000" pt_clust_9="68.09284"></scales>
<clustering>
<clus scale="   68.093">  2  9  1 -1</clus>
<clus scale="   80.332">  5  6 -1 -1</clus>
<clus scale="   91.538">  7  8 -1 -1</clus>
<clus scale="   99.556">  2  5  1 -1</clus>
<clus scale="   68.093">  2  5  1 -1</clus>
</clustering>
</event>
<event>
 9    2  0.5684583E-005  0.1016435E+03  0.7546771E-02  0.1285436E+00
          2   -1    0    0  502    0  0.00000000000E+00  0.00000000000E+00  0.10137835884E+04  0.10137835884E+04  0.00000000000E+00 0. -1.
         -1   -1    0    0    0  501 -0.00000000000E+00 -0.00000000000E+00 -0.41669525349E+02  0.41669525349E+02  0.00000000000E+00 0.  1.
         23    2    1    2    0    0 -0.78265952044E+01  0.22426153526E+02  0.56482953561E+02  0.11281294619E+03  0.94721955372E+02 0.  0.
         24    2    1    2    0    0  0.36067018448E+02 -0.13332858486E+02  0.90778464220E+03  0.91195178916E+03  0.78131390693E+02 0.  0.
        -11    1    4    4    0    0 -0.22057624624E+02 -0.18972899173E+01  0.12634722880E+03  0.12827221343E+03  0.00000000000E+00 0.  1.
         12    1    4    4    0    0  0.58124643073E+02 -0.11435568569E+02  0.78143741340E+03  0.78367957573E+03  0.00000000000E+00 0. -1.
        -13    1    3    3    0    0 -0.25952084450E+02  0.42680428275E+02 -0.19836143669E+00  0.49951666562E+02  0.00000000000E+00 0.  1.
         13    1    3    3    0    0  0.18125489246E+02 -0.20254274749E+02  0.56681314998E+02  0.62861279623E+02  0.00000000000E+00 0. -1.
         21    1    1    2  502  501 -0.28240423244E+02 -0.90932950395E+01  0.78464672879E+01  0.30688378396E+02  0.00000000000E+00 0.  1.
<scales pt_clust_5="13000.00000" pt_clust_6="13000.00000" pt_clust_7="13000.00000" pt_clust_8="13000.00000" pt_clust_9="29.66833"></scales>
<clustering>
<clus scale="   29.668">  2  9  1 -1</clus>
<clus scale="   78.131">  5  6 -1 -1</clus>
<clus scale="   86.393">  1  5  2 -1</clus>
<clus scale="   94.722">  7  8 -1 -1</clus>
<clus scale="   86.393">  1  5  2 -1</clus>
</clustering>
</event>
<event>
 9    2  0.5684583E-005  0.1019352E+03  0.7546771E-02  0.1282179E+00
         -1   -1    0    0    0  501 -0.00000000000E+00  0.00000000000E+00  0.36843232699E+02  0.36843232699E+02  0.00000000000E+00 0.  1.
          2   -1    0    0  502    0  0.00000000000E+00 -0.00000000000E+00 -0.40802039999E+03  0.40802039999E+03  0.00000000000E+00 0. -1.
         23    2    1    2    0    0  0.43131836386E+02 -0.33204712873E+02 -0.99482622765E+02  0.14588932401E+03  0.91782320524E+02 0.  0.
         24    2    1    2    0    0 -0.20619683055E+02  0.36617369555E+02 -0.25590720475E+03  0.27126720904E+03  0.79570083422E+02 0.  0.
        -11    1    4    4    0    0  0.25209251183E+02  0.22399330511E+02 -0.16565003161E+03  0.16904783147E+03  0.00000000000E+00 0.  1.
         12    1    4    4    0    0 -0.45828934238E+02  0.14218039045E+02 -0.90257173135E+02  0.10221937757E+03  0.00000000000E+00 0. -1.
        -11    1    3    3    0    0  0.28835698657E+02 -0.27666255385E+01 -0.10748660310E+03  0.11132170309E+03  0.00000000000E+00 0. -1.
         11    1    3    3    0    0  0.14296137729E+02 -0.30438087335E+02  0.80039803346E+01  0.34567620915E+02  0.00000000000E+00 0.  1.
         21    1    1    2  502  501 -0.22512153331E+02 -0.34126566825E+01 -0.15787339783E+02  0.27707099644E+02  0.00000000000E+00 0. -1.
<scales pt_clust_5="13000.00000" pt_clust_6="13000.00000" pt_clust_7="13000.00000" pt_clust_8="13000.00000" pt_clust_9="22.76935"></scales>
<clustering>
<clus scale="   22.769">  1  9  2 -1</clus>
<clus scale="   79.570">  5  6 -1 -1</clus>
<clus scale="   91.094">  2  5  1 -1</clus>
<clus scale="   91.782">  7  8 -1 -1</clus>
<clus scale="   91.094">  2  5  1 -1</clus>
</clustering>
</event>
<event>
 9    2  0.5684583E-005  0.9201356E+02  0.7546771E-02  0.1305885E+00
          2   -1    0    0  502    0  0.00000000000E+00  0.00000000000E+00  0.15417196596E+03  0.15417196596E+03  0.00000000000E+00 0. -1.
         -1   -1    0    0    0  501 -0.00000000000E+00 -0.00000000000E+00 -0.14692370665E+03  0.14692370665E+03  0.00000000000E+00 0.  1.
         24    2    1    2    0    0 -0.10170726279E+02 -0.10227177109E+02 -0.46914316067E+02  0.92452612002E+02  0.78348539166E+02 0.  0.
         23    2    1    2    0    0  0.67438154096E+01 -0.17874631098E+02  0.11125640976E+03  0.14491581944E+03  0.90871472569E+02 0.  0.
        -11    1    3    3    0    0  0.26577969078E+02 -0.21159841204E+02 -0.29224982245E+01  0.34097922459E+02  0.00000000000E+00 0.  1.
         12    1    3    3    0    0 -0.36748695357E+02  0.10932664095E+02 -0.43991817842E+02  0.58354689544E+02  0.00000000000E+00 0. -1.
        -13    1    4    4    0    0  0.10012053266E+02 -0.53054113631E+02  0.85783013679E+02  0.10135928975E+03  0.00000000000E+00 0. -1.
         13    1    4    4    0    0 -0.32682378561E+01  0.35179482533E+02  0.25473396085E+02  0.43556529684E+02  0.00000000000E+00 0.  1.
         21    1    1    2  502  501  0.34269108691E+01  0.28101808207E+02 -0.57093834386E+02  0.63727241173E+02  0.00000000000E+00 0.  1.
<scales pt_clust_5="13000.00000" pt_clust_6="13000.00000" pt_clust_7="13000.00000" pt_clust_8="13000.00000" pt_clust_9="28.30999"></scales>
<clustering>
<clus scale="   28.310">  2  9  1 -1</clus>
<clus scale="   78.349">  5  6 -1 -1</clus>
<clus scale="   79.670">  2  5  1 -1</clus>
<clus scale="   90.871">  7  8 -1 -1</clus>
<clus scale="   92.014">  1  5  2 -1</clus>
</clustering>
</event>
<event>
 9    2  0.5684583E-005  0.9733996E+02  0.7546771E-02  0.1293563E+00
          2   -1    0    0  502    0  0.00000000000E+00  0.00000000000E+00  0.62858543535E+02  0.62858543535E+02  0.00000000000E+00 0. -1.
         -1   -1    0    0    0  501 -0.00000000000E+00 -0.00000000000E+00 -0.29009396066E+03  0.29009396066E+03  0.00000000000E+00 0.  1.
         23    2    1    2    0    0  0.35133909699E+02 -0.19644113907E+02 -0.21564660598E+03  0.23839760132E+03  0.93325638612E+02 0.  0.
         24    2    1    2    0    0 -0.26302517557E+02 -0.49315806680E+00  0.89003459051E+01  0.84499807362E+02  0.79805611659E+02 0.  0.
        -11    1    4    4    0    0  0.10197808640E+02  0.24117647496E+02 -0.19025551598E+02  0.32367079501E+02  0.00000000000E+00 0.  1.
         12    1    4    4    0    0 -0.36500326197E+02 -0.24610805563E+02  0.27925897503E+02  0.52132727862E+02  0.00000000000E+00 0. -1.
        -11    1    3    3    0    0  0.53740558300E+02  0.10374891661E+02 -0.71821207339E+02  0.90299345551E+02  0.00000000000E+00 0.  1.
         11    1    3    3    0    0 -0.18606648601E+02 -0.30019005568E+02 -0.14382539864E+03  0.14809825576E+03  0.00000000000E+00 0. -1.
         21    1    1    2  502  501 -0.88313921420E+01  0.20137271974E+02 -0.20489157055E+02  0.30055095517E+02  0.00000000000E+00 0.  1.
<scales pt_clust_5="13000.00000" pt_clust_6="13000.00000" pt_clust_7="13000.00000" pt_clust_8="13000.00000" pt_clust_9="21.98871"></scales>
<clustering>
<clus scale="   21.989">  2  9  1 -1</clus>
<clus scale="   79.806">  5  6 -1 -1</clus>
<clus scale="   84.465">  1  5  2 -1</clus>
<clus scale="   93.326">  7  8 -1 -1</clus>
<clus scale="   84.465">  1  5  2 -1</clus>
</clustering>
</event>
<event>
 9    2  0.5684583E-005  0.8676671E+02  0.7546771E-02  0.1321522E+00
         -1   -1    0    0    0  501 -0.00000000000E+00  0.00000000000E+00  0.21125221095E+02  0.21125221095E+02  0.00000000000E+00 0.  1.
          2   -1    0    0  502    0  0.00000000000E+00 -0.00000000000E+00 -0.68490886466E+03  0.68490886466E+03  0.00000000000E+00 0. -1.
         23    2    1    2    0    0 -0.46863401223E+02  0.94695383597E+01 -0.16527440700E+03  0.19063390876E+03  0.82096327746E+02 0.  0.
         24    2    1    2    0    0  0.24110603732E+02  0.48146000626E+01 -0.47349100260E+03  0.47868998175E+03  0.65923193931E+02 0.  0.
        -11    1    4    4    0    0 -0.13237733468E+02  0.23418781798E+02 -0.13649564126E+03  0.13912130322E+03  0.00000000000E+00 0.  1.
         12    1    4    4    0    0  0.37348337200E+02 -0.18604181735E+02 -0.33699536135E+03  0.33956867853E+03  0.00000000000E+00 0. -1.
        -11    1    3    3    0    0  0.18771681246E+02  0.97173157706E+01 -0.12997938978E+02  0.24814283392E+02  0.00000000000E+00 0.  1.
         11    1    3    3    0    0 -0.65635082469E+02 -0.24777741092E+00 -0.15227646803E+03  0.16581962537E+03  0.00000000000E+00 0. -1.
         21    1    1    2  502  501  0.22752797491E+02 -0.14284138422E+02 -0.25018233961E+02  0.36710195242E+02  0.00000000000E+00 0. -1.
<scales pt_clust_5="13000.00000" pt_clust_6="13000.00000" pt_clust_7="13000.00000" pt_clust_8="13000.00000" pt_clust_9="26.86497"></scales>
<clustering>
<clus scale="   26.865">  1  9  2 -1</clus>
<clus scale="   65.923">  5  6 -1 -1</clus>
<clus scale="   71.656">  2  5  1 -1</clus>
<clus scale="   82.096">  7  8 -1 -1</clus>
<clus scale="   71.656">  2  5  1 -1</clus>
</clustering>
</event>
<event>
 9    2  0.5684583E-005  0.1131168E+03  0.7546771E-02  0.1258994E+00
          2   -1    0    0  502    0  0.00000000000E+00  0.00000000000E+00  0.78081010203E+03  0.78081010203E+03  0.00000000000E+00 0. -1.
         -1   -1    0    0    0  501 -0.00000000000E+00 -0.00000000000E+00 -0.18327793902E+02  0.18327793902E+02  0.00000000000E+00 0.  1.
         23    2    1    2    0    0 -0.89514518218E+01 -0.75621000243E+02  0.38251853131E+03  0.40079430862E+03  0.92287522756E+02 0.  0.
         24    2    1    2    0    0  0.11934204617E+02  0.55490460758E+02  0.32141243465E+03  0.33635653137E+03  0.81290507297E+02 0.  0.
        -13    1    4    4    0    0  0.46299544490E+02  0.23873119256E+02  0.15520234710E+03  0.16371115475E+03  0.00000000000E+00 0.  1.
         14    1    4    4    0    0 -0.34365339873E+02  0.31617341502E+02  0.16621008755E+03  0.17264537663E+03  0.00000000000E+00 0. -1.
        -11    1    3    3    0    0 -0.93989493297E+01 -0.95694988366E+02  0.34608164552E+03  0.35919128109E+03  0.00000000000E+00 0.  1.
         11    1    3    3    0    0  0.44749750791E+00  0.20073988123E+02  0.36436885797E+02  0.41603027531E+02  0.00000000000E+00 0. -1.
         21    1    1    2  502  501 -0.29827527949E+01  0.20130539486E+02  0.58551342164E+02  0.61987055935E+02  0.00000000000E+00 0. -1.
<scales pt_clust_5="13000.00000" pt_clust_6="13000.00000" pt_clust_7="13000.00000" pt_clust_8="13000.00000" pt_clust_9="20.35032"></scales>
<clustering>
<clus scale="   20.350">  2  9  1 -1</clus>
<clus scale="   81.291">  5  6 -1 -1</clus>
<clus scale="   92.288">  7  8 -1 -1</clus>
<clus scale="  104.339">  1  5  2 -1</clus>
<clus scale="  104.339">  1  5  2 -1</clus>
</clustering>
</event>
<event>
 9    2  0.5684583E-005  0.1216425E+03  0.7546771E-02  0.1243960E+00
         -3   -1    0    0    0  501 -0.00000000000E+00  0.00000000000E+00  0.26872244328E+03  0.26872244328E+03  0.00000000000E+00 0.  1.
          4   -1    0    0  502    0  0.00000000000E+00 -0.00000000000E+00 -0.34263207241E+03  0.34263207241E+03  0.00000000000E+00 0. -1.
         23    2    1    2    0    0  0.46816360016E+02  0.66749646952E+02  0.23681587866E+03  0.26649600585E+03  0.91055333814E+02 0.  0.
         24    2    1    2    0    0 -0.52565187101E+02 -0.39629746669E+02 -0.29600168036E+03  0.31346855766E+03  0.79447631479E+02 0.  0.
        -13    1    4    4    0    0 -0.16773627795E+02 -0.20819592644E+02 -0.17290538703E+02  0.31839798302E+02  0.00000000000E+00 0.  1.
         14    1    4    4    0    0 -0.35791559305E+02 -0.18810154025E+02 -0.27871114166E+03  0.28162875935E+03  0.00000000000E+00 0. -1.
        -13    1    3    3    0    0 -0.92758104014E+01  0.49754883044E+02  0.17115659813E+03  0.17848296874E+03  0.00000000000E+00 0.  1.
         13    1    3    3    0    0  0.56092170417E+02  0.16994763908E+02  0.65659280525E+02  0.88013037111E+02  0.00000000000E+00 0. -1.
         21    1    1    2  502  501  0.57488270847E+01 -0.27119900283E+02 -0.14723827432E+02  0.31389952189E+02  0.00000000000E+00 0.  1.
<scales pt_clust_5="13000.00000" pt_clust_6="13000.00000" pt_clust_7="13000.00000" pt_clust_8="13000.00000" pt_clust_9="27.72252"></scales>
<clustering>
<clus scale="   27.723">  2  9  1 -1</clus>
<clus scale="   79.448">  5  6 -1 -1</clus>
<clus scale="   91.055">  7  8 -1 -1</clus>
<clus scale="  113.215">  2  5  1 -1</clus>
<clus scale="   27.723">  2  5  1 -1</clus>
</clustering>
</event>
<event>
 9    2  0.5684583E-005  0.1628135E+03  0.7546771E-02  0.1185958E+00
         -1   -1    0    0    0  501 -0.00000000000E+00  0.00000000000E+00  0.72973596448E+02  0.72973596448E+02  0.00000000000E+00 0.  1.
          2   -1    0    0  502    0  0.00000000000E+00 -0.00000000000E+00 -0.57359431452E+03  0.57359431452E+03  0.00000000000E+00 0. -1.
         23    2    1    2    0    0  0.13663981692E+03  0.30575308566E+02 -0.10337725222E+03  0.19315889475E+03  0.83774777133E+02 0.  0.
         24    2    1    2    0    0 -0.13988059283E+03 -0.62782637439E+01 -0.39723745209E+03  0.42889679372E+03  0.80925085583E+02 0.  0.
        -13    1    4    4    0    0 -0.62851188598E+02 -0.38606831263E+02 -0.13721113811E+03  0.15578079390E+03  0.00000000000E+00 0.  1.
         14    1    4    4    0    0 -0.77029404233E+02  0.32328567519E+02 -0.26002631398E+03  0.27311599982E+03  0.00000000000E+00 0. -1.
        -11    1    3    3    0    0  0.84291256742E+02  0.28100979027E+02 -0.10880115527E+03  0.14047196294E+03  0.00000000000E+00 0. -1.
         11    1    3    3    0    0  0.52348560178E+02  0.24743295392E+01  0.54239030469E+01  0.52686931811E+02  0.00000000000E+00 0.  1.
         21    1    1    2  502  501  0.32407759105E+01 -0.24297044822E+02 -0.60137674690E-02  0.24512222497E+02  0.00000000000E+00 0. -1.
<scales pt_clust_5="13000.00000" pt_clust_6="13000.00000" pt_clust_7="13000.00000" pt_clust_8="13000.00000" pt_clust_9="24.51222"></scales>
<clustering>
<clus scale="   24.512">  1  9  2 -1</clus>
<clus scale="   80.925">  5  6 -1 -1</clus>
<clus scale="   83.775">  7  8 -1 -1</clus>
<clus scale="  161.366">  2  5  1 -1</clus>
<clus scale="  161.366">  2  5  1 -1</clus>
</clustering>
</event>
<event>
 9    2  0.5684583E-005  0.1601803E+03  0.7546771E-02  0.1189182E+00
         -3   -1    0    0    0  501 -0.00000000000E+00  0.00000000000E+00  0.87711963412E+02  0.87711963412E+02  0.00000000000E+00 0.  1.
          4   -1    0    0  502    0  0.00000000000E+00 -0.00000000000E+00 -0.68657491295E+03  0.68657491295E+03  0.00000000000E+00 0. -1.
         23    2    1    2    0    0  0.16835643779E+02 -0.13736634964E+03 -0.10201133284E+03  0.19288298302E+03  0.87433289990E+02 0.  0.
         24    2    1    2    0    0 -0.39394189333E+02  0.12764588451E+03 -0.52264722810E+03  0.54578382894E+03  0.82912537737E+02 0.  0.
        -11    1    4    4    0    0 -0.43830262518E+02  0.18725598354E+02 -0.13867668715E+03  0.14663888811E+03  0.00000000000E+00 0.  1.
         12    1    4    4    0    0  0.44360731850E+01  0.10892028615E+03 -0.38397054095E+03  0.39914494084E+03  0.00000000000E+00 0. -1.
        -13    1    3    3    0    0 -0.35675279294E+02 -0.46335682334E+02 -0.40188856084E+02  0.70956783773E+02  0.00000000000E+00 0.  1.
         13    1    3    3    0    0  0.52510923073E+02 -0.91030667301E+02 -0.61822476757E+02  0.12192619925E+03  0.00000000000E+00 0. -1.
         21    1    1    2  502  501  0.22558545554E+02  0.97204651269E+01  0.25795611402E+02  0.35620064394E+02  0.00000000000E+00 0. -1.
<scales pt_clust_5="13000.00000" pt_clust_6="13000.00000" pt_clust_7="13000.00000" pt_clust_8="13000.00000" pt_clust_9="24.56370"></scales>
<clustering>
<clus scale="   24.564">  1  9  2 -1</clus>
<clus scale="   82.913">  5  6 -1 -1</clus>
<clus scale="   87.433">  7  8 -1 -1</clus>
<clus scale="  157.758">  2  5  1 -1</clus>
<clus scale="  157.758">  2  5  1 -1</clus>
</clustering>
</event>
<event>
 9    2  0.5684583E-005  0.1180257E+03  0.7546771E-02  0.1248313E+00
          2   -1    0    0  502    0  0.00000000000E+00  0.00000000000E+00  0.13726788373E+03  0.13726788373E+03  0.00000000000E+00 0. -1.
         -1   -1    0    0    0  501 -0.00000000000E+00 -0.00000000000E+00 -0.22410523488E+03  0.22410523488E+03  0.00000000000E+00 0.  1.
         23    2    1    2    0    0  0.10064103657E+02 -0.98732037926E+02 -0.86241984655E+02  0.16054923597E+03  0.92136180504E+02 0.  0.
         24    2    1    2    0    0  0.50991429838E+02  0.53002638976E+02  0.32033004503E+02  0.11785661986E+03  0.86340395015E+02 0.  0.
        -11    1    4    4    0    0 -0.30898767044E+01  0.34648067827E+02 -0.20400438990E+02  0.40326341927E+02  0.00000000000E+00 0.  1.
         12    1    4    4    0    0  0.54081306543E+02  0.18354571149E+02  0.52433443494E+02  0.77530277931E+02  0.00000000000E+00 0. -1.
        -13    1    3    3    0    0 -0.17156993279E+02 -0.10368156098E+03 -0.54300107869E+02  0.11829087124E+03  0.00000000000E+00 0.  1.
         13    1    3    3    0    0  0.27221096936E+02  0.49495230500E+01 -0.31941876786E+02  0.42258364727E+02  0.00000000000E+00 0. -1.
         21    1    1    2  502  501 -0.61055533496E+02  0.45729398950E+02 -0.32628371001E+02  0.82967262778E+02  0.00000000000E+00 0. -1.
<scales pt_clust_5="13000.00000" pt_clust_6="13000.00000" pt_clust_7="13000.00000" pt_clust_8="13000.00000" pt_clust_9="76.28208"></scales>
<clustering>
<clus scale="   76.282">  2  9  1 -1</clus>
<clus scale="   86.340">  5  6 -1 -1</clus>
<clus scale="   92.136">  7  8 -1 -1</clus>
<clus scale="  113.559">  1  5  2 -1</clus>
<clus scale="  113.559">  1  5  2 -1</clus>
</clustering>
</event>
<event>
 9    2  0.5684583E-005  0.9301300E+02  0.7546771E-02  0.1303682E+00
          2   -1    0    0  502    0  0.00000000000E+00  0.00000000000E+00  0.35832714676E+03  0.35832714676E+03  0.00000000000E+00 0. -1.
         -1   -1    0    0    0  501 -0.00000000000E+00 -0.00000000000E+00 -0.85278648620E+02  0.85278648620E+02  0.00000000000E+00 0.  1.
         24    2    1    2    0    0 -0.38079439401E+02  0.54381637268E+01 -0.34641955372E+02  0.94766810386E+02  0.79379253895E+02 0.  0.
         23    2    1    2    0    0  0.29356015771E+01  0.12032057949E+02  0.29218196442E+03  0.30663932603E+03  0.92217068710E+02 0.  0.
        -11    1    3    3    0    0  0.14959065202E+02 -0.18256318141E+02  0.54008481630E+01  0.24212309775E+02  0.00000000000E+00 0.  1.
         12    1    3    3    0    0 -0.53038504603E+02  0.23694481867E+02 -0.40042803535E+02  0.70554500611E+02  0.00000000000E+00 0. -1.
        -11    1    4    4    0    0  0.11777458875E+02  0.51374753729E+02  0.16812662040E+03  0.17619487604E+03  0.00000000000E+00 0. -1.
         11    1    4    4    0    0 -0.88418572979E+01 -0.39342695780E+02  0.12405534403E+03  0.13044444999E+03  0.00000000000E+00 0.  1.
         21    1    1    2  502  501  0.35143837824E+02 -0.17470221676E+02  0.15508489087E+02  0.42199658958E+02  0.00000000000E+00 0.  1.
<scales pt_clust_5="13000.00000" pt_clust_6="13000.00000" pt_clust_7="13000.00000" pt_clust_8="13000.00000" pt_clust_9="39.24663"></scales>
<clustering>
<clus scale="   39.247">  2  9  1 -1</clus>
<clus scale="   79.379">  5  6 -1 -1</clus>
<clus scale="   80.303">  2  5  1 -1</clus>
<clus scale="   92.217">  7  8 -1 -1</clus>
<clus scale="   93.013">  1  5  2 -1</clus>
</clustering>
</event>
<event>
 9    2  0.5684583E-005  0.1552975E+03  0.7546771E-02  0.1196391E+00
         -1   -1    0    0    0  501 -0.00000000000E+00  0.00000000000E+00  0.26274236866E+03  0.26274236866E+03  0.00000000000E+00 0.  1.
          2   -1    0    0  502    0  0.00000000000E+00 -0.00000000000E+00 -0.47134525277E+03  0.47134525277E+03  0.00000000000E+00 0. -1.
         23    2    1    2    0    0  0.50185892582E+02  0.75500240629E+02  0.18677814761E+03  0.22801546959E+03  0.94265941874E+02 0.  0.
         24    2    1    2    0    0 -0.48762667988E+01 -0.12624318445E+03 -0.40986992116E+03  0.43651831331E+03  0.81202007303E+02 0.  0.
        -11    1    4    4    0    0  0.15865123006E+02 -0.16677335820E+02 -0.18378432159E+02  0.29455091693E+02  0.00000000000E+00 0.  1.
         12    1    4    4    0    0 -0.20741389805E+02 -0.10956584863E+03 -0.39149148900E+03  0.40706322162E+03  0.00000000000E+00 0. -1.
        -13    1    3    3    0    0  0.18856928401E+02  0.32466077999E+02  0.41331646656E+01  0.37771854859E+02  0.00000000000E+00 0. -1.
         13    1    3    3    0    0  0.31328964181E+02  0.43034162630E+02  0.18264498295E+03  0.19024361473E+03  0.00000000000E+00 0.  1.
         21    1    1    2  502  501 -0.45309625783E+02  0.50742943824E+02  0.14488889428E+02  0.69553838523E+02  0.00000000000E+00 0. -1.
<scales pt_clust_5="13000.00000" pt_clust_6="13000.00000" pt_clust_7="13000.00000" pt_clust_8="13000.00000" pt_clust_9="68.02800"></scales>
<clustering>
<clus scale="   68.028">  1  9  2 -1</clus>
<clus scale="   81.202">  5  6 -1 -1</clus>
<clus scale="   94.266">  7  8 -1 -1</clus>
<clus scale="  147.733">  2  5  1 -1</clus>
<clus scale="  147.733">  2  5  1 -1</clus>
</clustering>
</event>
<event>
 9    2  0.5684583E-005  0.1060580E+03  0.7546771E-02  0.1273355E+00
          2   -1    0    0  502    0  0.00000000000E+00  0.00000000000E+00  0.14717259733E+04  0.14717259733E+04  0.00000000000E+00 0. -1.
         -1   -1    0    0    0  501 -0.00000000000E+00 -0.00000000000E+00 -0.71994687477E+02  0.71994687477E+02  0.00000000000E+00 0.  1.
         23    2    1    2    0    0 -0.23061871743E+02 -0.19836335223E+02  0.53621312528E+02  0.11115634034E+03  0.92494090177E+02 0.  0.
         24    2    1    2    0    0  0.48558525510E+02  0.21781021719E+02  0.13837241261E+04  0.13870815144E+04  0.80438343308E+02 0.  0.
        -13    1    4    4    0    0  0.29709140007E+02  0.11081485946E+01  0.14376365432E+03  0.14680548115E+03  0.00000000000E+00 0.  1.
         14    1    4    4    0    0  0.18849385504E+02  0.20672873125E+02  0.12399604718E+04  0.12402760332E+04  0.00000000000E+00 0. -1.
        -11    1    3    3    0    0 -0.33197286684E+02 -0.52060930544E+02  0.24058049671E+02  0.66266055309E+02  0.00000000000E+00 0.  1.
         11    1    3    3    0    0  0.10135414941E+02  0.32224595320E+02  0.29563262857E+02  0.44890285033E+02  0.00000000000E+00 0. -1.
         21    1    1    2  502  501 -0.25496653768E+02 -0.19446864960E+01 -0.37614152784E+02  0.45482806076E+02  0.00000000000E+00 0.  1.
<scales pt_clust_5="13000.00000" pt_clust_6="13000.00000" pt_clust_7="13000.00000" pt_clust_8="13000.00000" pt_clust_9="25.57071"></scales>
<clustering>
<clus scale="   25.571">  2  9  1 -1</clus>
<clus scale="   80.438">  5  6 -1 -1</clus>
<clus scale="   92.494">  7  8 -1 -1</clus>
<clus scale="   95.726">  1  5  2 -1</clus>
<clus scale="   95.726">  1  5  2 -1</clus>
</clustering>
</event>
<event>
 9    2  0.5684583E-005  0.1338840E+03  0.7546771E-02  0.1225263E+00
         -1   -1    0    0    0  501 -0.00000000000E+00  0.00000000000E+00  0.12860757145E+03  0.12860757145E+03  0.00000000000E+00 0.  1.
          2   -1    0    0  502    0  0.00000000000E+00 -0.00000000000E+00 -0.78909396739E+03  0.78909396739E+03  0.00000000000E+00 0. -1.
         23    2    1    2    0    0 -0.11685398437E+03 -0.27959340060E+02  0.31520230843E+02  0.15610728992E+03  0.94548308573E+02 0.  0.
         24    2    1    2    0    0  0.93125650876E+02 -0.10525962091E+02 -0.70402074970E+03  0.71481293383E+03  0.80803042308E+02 0.  0.
        -11    1    4    4    0    0  0.41993163984E+02 -0.76595215507E+01 -0.10137920024E+03  0.10999925606E+03  0.00000000000E+00 0.  1.
         12    1    4    4    0    0  0.51132486892E+02 -0.28664405403E+01 -0.60264154945E+03  0.60481367777E+03  0.00000000000E+00 0. -1.
        -11    1    3    3    0    0 -0.10340373622E+03  0.11760949131E+02  0.43038125010E+02  0.11261852775E+03  0.00000000000E+00 0.  1.
         11    1    3    3    0    0 -0.13450248149E+02 -0.39720289192E+02 -0.11517894167E+02  0.43488762166E+02  0.00000000000E+00 0. -1.
         21    1    1    2  502  501  0.23728333494E+02  0.38485302151E+02  0.12014122910E+02  0.46781315088E+02  0.00000000000E+00 0. -1.
<scales pt_clust_5="13000.00000" pt_clust_6="13000.00000" pt_clust_7="13000.00000" pt_clust_8="13000.00000" pt_clust_9="45.21230"></scales>
<clustering>
<clus scale="   45.212">  1  9  2 -1</clus>
<clus scale="   80.803">  5  6 -1 -1</clus>
<clus scale="   94.548">  7  8 -1 -1</clus>
<clus scale="  124.558">  2  5  1 -1</clus>
<clus scale="  124.558">  2  5  1 -1</clus>
</clustering>
</event>
<event>
 9    2  0.5684583E-005  0.1046165E+03  0.7546771E-02  0.1279437E+00
         -1   -1    0    0    0  501 -0.00000000000E+00  0.00000000000E+00  0.21669502012E+03  0.21669502012E+03  0.00000000000E+00 0.  1.
          2   -1    0    0  502    0  0.00000000000E+00 -0.00000000000E+00 -0.28502198791E+03  0.28502198791E+03  0.00000000000E+00 0. -1.
         23    2    1    2    0    0 -0.31751705363E+02  0.34024339743E+02  0.18220034385E+03  0.21052048092E+03  0.94636573793E+02 0.  0.
         24    2    1    2    0    0  0.42905760943E+02  0.18628182326E+02 -0.19005608593E+03  0.21024302084E+03  0.76765216841E+02 0.  0.
        -11    1    4    4    0    0 -0.21486504253E+02 -0.33697506467E+01 -0.50348272800E+02  0.54844996658E+02  0.00000000000E+00 0.  1.
         12    1    4    4    0    0  0.64392265196E+02  0.21997932973E+02 -0.13970781313E+03  0.15539802419E+03  0.00000000000E+00 0. -1.
        -13    1    3    3    0    0 -0.29673420432E+02  0.11734668444E+02  0.18520464975E+03  0.18793343665E+03  0.00000000000E+00 0.  1.
         13    1    3    3    0    0 -0.20782849312E+01  0.22289671299E+02 -0.30043058963E+01  0.22587044269E+02  0.00000000000E+00 0. -1.
         21    1    1    2  502  501 -0.11154055580E+02 -0.52652522069E+02 -0.60471225722E+02  0.80953506264E+02  0.00000000000E+00 0. -1.
<scales pt_clust_5="13000.00000" pt_clust_6="13000.00000" pt_clust_7="13000.00000" pt_clust_8="13000.00000" pt_clust_9="53.82101"></scales>
<clustering>
<clus scale="   53.821">  2  9  1 -1</clus>
<clus scale="   76.765">  5  6 -1 -1</clus>
<clus scale="   88.777">  2  5  1 -1</clus>
<clus scale="   94.637">  7  8 -1 -1</clus>
<clus scale="   53.821">  2  5  1 -1</clus>
</clustering>
</event>
<event>
 9    2  0.5684583E-005  0.1015579E+03  0.7546771E-02  0.1284448E+00
         -1   -1    0    0    0  501 -0.00000000000E+00  0.00000000000E+00  0.12602580781E+03  0.12602580781E+03  0.00000000000E+00 0.  1.
          2   -1    0    0  502    0  0.00000000000E+00 -0.00000000000E+00 -0.17041331962E+03  0.17041331962E+03  0.00000000000E+00 0. -1.
         23    2    1    2    0    0  0.51192009459E+02  0.31596142511E+02  0.31091005028E+02  0.11681218520E+03  0.95181395046E+02 0.  0.
         24    2    1    2    0    0 -0.20762901235E+02 -0.22438302246E+02 -0.10518485473E+03  0.13612679079E+03  0.80821247388E+02 0.  0.
        -11    1    4    4    0    0  0.25844394040E+02  0.26743927363E+01 -0.11278538786E+02  0.28324733308E+02  0.00000000000E+00 0.  1.
         12    1    4    4    0    0 -0.46607295275E+02 -0.25112694983E+02 -0.93906315944E+02  0.10780205748E+03  0.00000000000E+00 0. -1.
        -11    1    3    3    0    0  0.59527572652E+02 -0.11805755267E+02  0.38686552809E+02  0.71969140133E+02  0.00000000000E+00 0.  1.
         11    1    3    3    0    0 -0.83355631935E+01  0.43401897778E+02 -0.75955477811E+01  0.44843045064E+02  0.00000000000E+00 0. -1.
         21    1    1    2  502  501 -0.30429108224E+02 -0.91578402644E+01  0.29706337889E+02  0.43500151452E+02  0.00000000000E+00 0.  1.
<scales pt_clust_5="13000.00000" pt_clust_6="13000.00000" pt_clust_7="13000.00000" pt_clust_8="13000.00000" pt_clust_9="31.77730"></scales>
<clustering>
<clus scale="   31.777">  1  9  2 -1</clus>
<clus scale="   80.821">  5  6 -1 -1</clus>
<clus scale="   88.242">  2  5  1 -1</clus>
<clus scale="   95.181">  7  8 -1 -1</clus>
<clus scale="   88.242">  2  5  1 -1</clus>
</clustering>
</event>
<event>
 9    2  0.5684583E-005  0.9220447E+02  0.7546771E-02  0.1302365E+00
          2   -1    0    0  502    0  0.00000000000E+00  0.00000000000E+00  0.59856005153E+03  0.59856005153E+03  0.00000000000E+00 0. -1.
         -1   -1    0    0    0  501 -0.00000000000E+00 -0.00000000000E+00 -0.55107032670E+02  0.55107032670E+02  0.00000000000E+00 0.  1.
         23    2    1    2    0    0  0.15634439006E+02 -0.41695361992E+02  0.62550034178E+02  0.11772869698E+03  0.89244610047E+02 0.  0.
         24    2    1    2    0    0 -0.13015065871E+02  0.16087766753E+02  0.49802258733E+03  0.50502413737E+03  0.81207596034E+02 0.  0.
        -11    1    4    4    0    0  0.18474933063E+02  0.98475846471E+01  0.34249584067E+02  0.40141401119E+02  0.00000000000E+00 0.  1.
         12    1    4    4    0    0 -0.31489998934E+02  0.62401821062E+01  0.46377300326E+03  0.46488273625E+03  0.00000000000E+00 0. -1.
        -13    1    3    3    0    0 -0.30653854585E+02 -0.33626568012E+02  0.88139844476E+01  0.46347504776E+02  0.00000000000E+00 0.  1.
         13    1    3    3    0    0  0.46288293591E+02 -0.80687939808E+01  0.53736049730E+02  0.71381192204E+02  0.00000000000E+00 0. -1.
         21    1    1    2  502  501 -0.26193731352E+01  0.25607595239E+02 -0.17119602643E+02  0.30914249857E+02  0.00000000000E+00 0.  1.
<scales pt_clust_5="13000.00000" pt_clust_6="13000.00000" pt_clust_7="13000.00000" pt_clust_8="13000.00000" pt_clust_9="25.74121"></scales>
<clustering>
<clus scale="   25.741">  2  9  1 -1</clus>
<clus scale="   81.208">  5  6 -1 -1</clus>
<clus scale="   84.450">  1  5  2 -1</clus>
<clus scale="   89.245">  7  8 -1 -1</clus>
<clus scale="   84.450">  1  5  2 -1</clus>
</clustering>
</event>
<event>
 9    2  0.5684583E-005  0.1144041E+03  0.7546771E-02  0.1256855E+00
          2   -1    0    0  502    0  0.00000000000E+00  0.00000000000E+00  0.10871384537E+03  0.10871384537E+03  0.00000000000E+00 0. -1.
         -1   -1    0    0    0  501 -0.00000000000E+00 -0.00000000000E+00 -0.28624062238E+03  0.28624062238E+03  0.00000000000E+00 0.  1.
         24    2    1    2    0    0  0.34225118780E+02  0.68229393552E+02 -0.17108736942E+03  0.20437406363E+03  0.81677787751E+02 0.  0.
         23    2    1    2    0    0 -0.13439926666E+01 -0.65510726252E+02  0.50602527986E+02  0.12468395488E+03  0.93230956214E+02 0.  0.
        -11    1    3    3    0    0  0.45728426095E+02  0.81971688827E+02 -0.14457390339E+03  0.17237186622E+03  0.00000000000E+00 0.  1.
         12    1    3    3    0    0 -0.11503307316E+02 -0.13742295274E+02 -0.26513466030E+02  0.32002197417E+02  0.00000000000E+00 0. -1.
        -13    1    4    4    0    0  0.36705671056E+02 -0.22864494552E+01  0.30604941047E+01  0.36903939667E+02  0.00000000000E+00 0.  1.
         13    1    4    4    0    0 -0.38049663723E+02 -0.63224276797E+02  0.47542033881E+02  0.87780015217E+02  0.00000000000E+00 0. -1.
         21    1    1    2  502  501 -0.32881126113E+02 -0.27186673007E+01 -0.57041935576E+02  0.65896449226E+02  0.00000000000E+00 0.  1.
<scales pt_clust_5="13000.00000" pt_clust_6="13000.00000" pt_clust_7="13000.00000" pt_clust_8="13000.00000" pt_clust_9="32.99333"></scales>
<clustering>
<clus scale="   32.993">  2  9  1 -1</clus>
<clus scale="   81.678">  5  6 -1 -1</clus>
<clus scale="   93.231">  7  8 -1 -1</clus>
<clus scale="  105.202">  2  5  1 -1</clus>
<clus scale="  114.404">  1  5  2 -1</clus>
</clustering>
</event>
<event>
 9    2  0.5684583E-005  0.1095699E+03  0.7546771E-02  0.1265657E+00
         -1   -1    0    0    0  501 -0.00000000000E+00  0.00000000000E+00  0.29419466792E+03  0.29419466792E+03  0.00000000000E+00 0.  1.
          2   -1    0    0  502    0  0.00000000000E+00 -0.00000000000E+00 -0.51188165863E+02  0.51188165863E+02  0.00000000000E+00 0. -1.
         23    2    1    2    0    0  0.72637686258E+02 -0.77774133643E+01  0.96349339367E+02  0.15155971693E+03  0.91380692583E+02 0.  0.
         24    2    1    2    0    0 -0.46084734468E+02  0.19883418029E+02  0.93966355243E+02  0.13359076850E+03  0.80608091704E+02 0.  0.
        -11    1    4    4    0    0 -0.55114070043E+02 -0.14574706229E+02  0.71624350240E+02  0.91542505568E+02  0.00000000000E+00 0.  1.
         12    1    4    4    0    0  0.90293355753E+01  0.34458124258E+02  0.22342005003E+02  0.42048262936E+02  0.00000000000E+00 0. -1.
        -11    1    3    3    0    0  0.40864529077E+02 -0.49684046881E+02  0.55645111292E+02  0.85057584387E+02  0.00000000000E+00 0. -1.
         11    1    3    3    0    0  0.31773157182E+02  0.41906633517E+02  0.40704228076E+02  0.66502132547E+02  0.00000000000E+00 0.  1.
         21    1    1    2  502  501 -0.26552951790E+02 -0.12106004665E+02  0.52690807442E+02  0.60232348341E+02  0.00000000000E+00 0.  1.
<scales pt_clust_5="13000.00000" pt_clust_6="13000.00000" pt_clust_7="13000.00000" pt_clust_8="13000.00000" pt_clust_9="29.18244"></scales>
<clustering>
<clus scale="   29.182">  1  9  2 -1</clus>
<clus scale="   80.608">  5  6 -1 -1</clus>
<clus scale="   91.381">  7  8 -1 -1</clus>
<clus scale="  100.761">  2  5  1 -1</clus>
<clus scale="  100.761">  2  5  1 -1</clus>
</clustering>
</event>
<event>
 9    2  0.5684583E-005  0.1063214E+03  0.7546771E-02  0.1277097E+00
         -1   -1    0    0    0  501 -0.00000000000E+00  0.00000000000E+00  0.19111005313E+03  0.19111005313E+03  0.00000000000E+00 0.  1.
          2   -1    0    0  502    0  0.00000000000E+00 -0.00000000000E+00 -0.79988743760E+02  0.79988743760E+02  0.00000000000E+00 0. -1.
         23    2    1    2    0    0 -0.25381405079E+02  0.16179826388E+02  0.10589094517E+03  0.14818106230E+03  0.99190384863E+02 0.  0.
         24    2    1    2    0    0  0.42091117247E+02  0.18993096957E+01 -0.14548912247E+02  0.91337845117E+02  0.79722403216E+02 0.  0.
        -11    1    4    4    0    0  0.41163242393E+02  0.36598681713E+02 -0.48346796291E+01  0.55292405939E+02  0.00000000000E+00 0.  1.
         12    1    4    4    0    0  0.92787485475E+00 -0.34699372018E+02 -0.97142326182E+01  0.36045439178E+02  0.00000000000E+00 0. -1.
        -11    1    3    3    0    0 -0.53342398141E+01  0.52202656126E+02  0.89637187207E+02  0.10386720730E+03  0.00000000000E+00 0.  1.
         11    1    3    3    0    0 -0.20047165265E+02 -0.36022829737E+02  0.16253757967E+02  0.44313855006E+02  0.00000000000E+00 0. -1.
         21    1    1    2  502  501 -0.16709712169E+02 -0.18079136084E+02  0.19779276440E+02  0.31579889468E+02  0.00000000000E+00 0. -1.
<scales pt_clust_5="13000.00000" pt_clust_6="13000.00000" pt_clust_7="13000.00000" pt_clust_8="13000.00000" pt_clust_9="24.61848"></scales>
<clustering>
<clus scale="   24.618">  1  9  2 -1</clus>
<clus scale="   79.722">  5  6 -1 -1</clus>
<clus scale="   88.437">  2  5  1 -1</clus>
<clus scale="   99.190">  7  8 -1 -1</clus>
<clus scale="   88.437">  2  5  1 -1</clus>
</clustering>
</event>
<event>
 9    2  0.5684583E-005  0.1132957E+03  0.7546771E-02  0.1258242E+00
          2   -1    0    0  502    0  0.00000000000E+00  0.00000000000E+00  0.69313445701E+03  0.69313445701E+03  0.00000000000E+00 0. -1.
         -1   -1    0    0    0  501 -0.00000000000E+00 -0.00000000000E+00 -0.26778949866E+02  0.26778949866E+02  0.00000000000E+00 0.  1.
         24    2    1    2    0    0  0.72691820814E+02  0.14613198518E+02  0.19589282253E+03  0.22446937605E+03  0.80714660892E+02 0.  0.
         23    2    1    2    0    0 -0.65293057985E+02  0.10905557491E+02  0.44380118938E+03  0.45780384050E+03  0.90789570298E+02 0.  0.
        -13    1    3    3    0    0  0.41731063055E+02 -0.10568159981E+02  0.26750869139E+02  0.50683100032E+02  0.00000000000E+00 0.  1.
         14    1    3    3    0    0  0.30960757759E+02  0.25181358499E+02  0.16914195339E+03  0.17378627602E+03  0.00000000000E+00 0. -1.
        -13    1    4    4    0    0  0.18824285277E+02  0.20293132369E+02  0.10411111809E+03  0.10772785084E+03  0.00000000000E+00 0.  1.
         13    1    4    4    0    0 -0.84117343262E+02 -0.93875748783E+01  0.33969007129E+03  0.35007598966E+03  0.00000000000E+00 0. -1.
         21    1    1    2  502  501 -0.73987628290E+01 -0.25518756009E+02  0.26661495242E+02  0.37640190332E+02  0.00000000000E+00 0. -1.
<scales pt_clust_5="13000.00000" pt_clust_6="13000.00000" pt_clust_7="13000.00000" pt_clust_8="13000.00000" pt_clust_9="26.56969"></scales>
<clustering>
<clus scale="   26.570">  2  9  1 -1</clus>
<clus scale="   80.715">  5  6 -1 -1</clus>
<clus scale="   90.790">  7  8 -1 -1</clus>
<clus scale="  105.395">  2  5  1 -1</clus>
<clus scale="  113.296">  1  5  2 -1</clus>
</clustering>
</event>
<event>
 9    2  0.5684583E-005  0.1074388E+03  0.7546771E-02  0.1271083E+00
          2   -1    0    0  502    0  0.00000000000E+00  0.00000000000E+00  0.58017394644E+02  0.58017394644E+02  0.00000000000E+00 0. -1.
         -1   -1    0    0    0  501 -0.00000000000E+00 -0.00000000000E+00 -0.31268285275E+03  0.31268285275E+03  0.00000000000E+00 0.  1.
         23    2    1    2    0    0 -0.43216386033E+02  0.30545675798E+02 -0.10990075032E+03  0.15290640422E+03  0.92203574768E+02 0.  0.
         24    2    1    2    0    0  0.60076507248E+02 -0.56166446848E-02 -0.39140925637E+02  0.10655831712E+03  0.78825605819E+02 0.  0.
        -13    1    4    4    0    0  0.43487481828E+02 -0.14132805930E+02 -0.60640052016E+02  0.75948095353E+02  0.00000000000E+00 0.  1.
         14    1    4    4    0    0  0.16589025420E+02  0.14127189286E+02  0.21499126379E+02  0.30610221766E+02  0.00000000000E+00 0. -1.
        -13    1    3    3    0    0  0.57598846244E+01  0.47345931602E+02 -0.26017096279E+02  0.54329575822E+02  0.00000000000E+00 0. -1.
         13    1    3    3    0    0 -0.48976270657E+02 -0.16800255804E+02 -0.83883654038E+02  0.98576828399E+02  0.00000000000E+00 0.  1.
         21    1    1    2  502  501 -0.16860121215E+02 -0.30540059154E+02 -0.10562378215E+03  0.11123552605E+03  0.00000000000E+00 0.  1.
<scales pt_clust_5="13000.00000" pt_clust_6="13000.00000" pt_clust_7="13000.00000" pt_clust_8="13000.00000" pt_clust_9="34.88494"></scales>
<clustering>
<clus scale="   34.885">  2  9  1 -1</clus>
<clus scale="   78.826">  5  6 -1 -1</clus>
<clus scale="   92.204">  7  8 -1 -1</clus>
<clus scale="   96.203">  1  5  2 -1</clus>
<clus scale="   96.203">  1  5  2 -1</clus>
</clustering>
</event>
<event>
 9    2  0.5684583E-005  0.8959488E+02  0.7546771E-02  0.1305709E+00
          2   -1    0    0  502    0  0.00000000000E+00  0.00000000000E+00  0.14107576676E+03  0.14107576676E+03  0.00000000000E+00 0. -1.
         -1   -1    0    0    0  501 -0.00000000000E+00 -0.00000000000E+00 -0.16497546319E+03  0.16497546319E+03  0.00000000000E+00 0.  1.
         23    2    1    2    0    0 -0.44887774948E+02 -0.32479970962E+02 -0.70670651652E+02  0.12333256432E+03  0.84538272767E+02 0.  0.
         24    2    1    2    0    0  0.19756163398E+02  0.15837484849E+02  0.93896539803E+02  0.12677770599E+03  0.81332002498E+02 0.  0.
        -13    1    4    4    0    0 -0.24975590610E+02 -0.16258283686E+02  0.27791688394E+02  0.40749108684E+02  0.00000000000E+00 0.  1.
         14    1    4    4    0    0  0.44731754008E+02  0.32095768536E+02  0.66104851409E+02  0.86028597305E+02  0.00000000000E+00 0. -1.
        -11    1    3    3    0    0 -0.53386864848E+02 -0.10336083542E+02 -0.80920110901E+02  0.97493878318E+02  0.00000000000E+00 0.  1.
         11    1    3    3    0    0  0.84990899009E+01 -0.22143887420E+02  0.10249459249E+02  0.25838685998E+02  0.00000000000E+00 0. -1.
         21    1    1    2  502  501  0.25131611550E+02  0.16642486113E+02 -0.47125584584E+02  0.55940959640E+02  0.00000000000E+00 0. -1.
<scales pt_clust_5="13000.00000" pt_clust_6="13000.00000" pt_clust_7="13000.00000" pt_clust_8="13000.00000" pt_clust_9="30.14250"></scales>
<clustering>
<clus scale="   30.142">  2  9  1 -1</clus>
<clus scale="   81.332">  5  6 -1 -1</clus>
<clus scale="   84.538">  7  8 -1 -1</clus>
<clus scale="   86.576">  1  5  2 -1</clus>
<clus scale="   86.576">  1  5  2 -1</clus>
</clustering>
</event>
<event>
 9    2  0.5684583E-005  0.1267631E+03  0.7546771E-02  0.1235124E+00
         -1   -1    0    0    0  501 -0.00000000000E+00  0.00000000000E+00  0.30212651039E+02  0.30212651039E+02  0.00000000000E+00 0.  1.
          2   -1    0    0  502    0  0.00000000000E+00 -0.00000000000E+00 -0.18895852348E+04  0.18895852348E+04  0.00000000000E+00 0. -1.
         23    2    1    2    0    0  0.14725122212E+02  0.18249851602E+02 -0.11258762211E+03  0.14635129778E+03  0.90514327053E+02 0.  0.
         24    2    1    2    0    0 -0.84222165512E+02 -0.51226661240E+02 -0.16211602430E+04  0.16261411947E+04  0.80356128207E+02 0.  0.
        -11    1    4    4    0    0 -0.18859425162E+02 -0.15054792536E+02 -0.90590868433E+02  0.93749827409E+02  0.00000000000E+00 0.  1.
         12    1    4    4    0    0 -0.65362740350E+02 -0.36171868704E+02 -0.15305693746E+04  0.15323913672E+04  0.00000000000E+00 0. -1.
        -11    1    3    3    0    0  0.21278490264E+02 -0.24354347550E+02 -0.81262940330E+01  0.33345840028E+02  0.00000000000E+00 0.  1.
         11    1    3    3    0    0 -0.65533680513E+01  0.42604199152E+02 -0.10446132807E+03  0.11300545775E+03  0.00000000000E+00 0. -1.
         21    1    1    2  502  501  0.69497043299E+02  0.32976809638E+02 -0.12562471862E+03  0.14730539341E+03  0.00000000000E+00 0.  1.
<scales pt_clust_5="13000.00000" pt_clust_6="13000.00000" pt_clust_7="13000.00000" pt_clust_8="13000.00000" pt_clust_9="76.92405"></scales>
<clustering>
<clus scale="   76.924">  1  9  2 -1</clus>
<clus scale="   80.356">  5  6 -1 -1</clus>
<clus scale="   90.514">  7  8 -1 -1</clus>
<clus scale="  119.721">  2  5  1 -1</clus>
<clus scale="  119.721">  2  5  1 -1</clus>
</clustering>
</event>
<event>
 9    2  0.5684583E-005  0.1584546E+03  0.7546771E-02  0.1193010E+00
         -1   -1    0    0    0  501 -0.00000000000E+00  0.00000000000E+00  0.31115861369E+03  0.31115861369E+03  0.00000000000E+00 0.  1.
          2   -1    0    0  502    0  0.00000000000E+00 -0.00000000000E+00 -0.17444518287E+04  0.17444518287E+04  0.00000000000E+00 0. -1.
         23    2    1    2    0    0  0.35225718045E+02  0.12737920218E+03  0.94076463529E+02  0.18705474509E+03  0.93127784848E+02 0.  0.
         24    2    1    2    0    0  0.76020418939E+01 -0.12804379845E+03 -0.16919099219E+04  0.16985317273E+04  0.77445718490E+02 0.  0.
        -11    1    4    4    0    0  0.21429442063E+02 -0.72415093237E+01 -0.13508313004E+03  0.13696390935E+03  0.00000000000E+00 0.  1.
         12    1    4    4    0    0 -0.13827400169E+02 -0.12080228912E+03 -0.15568267919E+04  0.15615678179E+04  0.00000000000E+00 0. -1.
        -13    1    3    3    0    0  0.44688847917E+02  0.10181706738E+03  0.26670993109E+02  0.11434662309E+03  0.00000000000E+00 0.  1.
         13    1    3    3    0    0 -0.94631298721E+01  0.25562134800E+02  0.67405470420E+02  0.72708122002E+02  0.00000000000E+00 0. -1.
         21    1    1    2  502  501 -0.42827759939E+02  0.66459626392E+00  0.16454024335E+03  0.17002397005E+03  0.00000000000E+00 0. -1.
<scales pt_clust_5="13000.00000" pt_clust_6="13000.00000" pt_clust_7="13000.00000" pt_clust_8="13000.00000" pt_clust_9="42.83292"></scales>
<clustering>
<clus scale="   42.833">  1  9  2 -1</clus>
<clus scale="   77.446">  5  6 -1 -1</clus>
<clus scale="   93.128">  7  8 -1 -1</clus>
<clus scale="  149.776">  2  5  1 -1</clus>
<clus scale="  149.776">  2  5  1 -1</clus>
</clustering>
</event>
<event>
 9    2  0.5684583E-005  0.1047909E+03  0.7546771E-02  0.1274944E+00
         -1   -1    0    0    0  501 -0.00000000000E+00  0.00000000000E+00  0.12838036303E+03  0.12838036303E+03  0.00000000000E+00 0.  1.
          2   -1    0    0  502    0  0.00000000000E+00 -0.00000000000E+00 -0.36150970477E+03  0.36150970477E+03  0.00000000000E+00 0. -1.
         23    2    1    2    0    0  0.10302183573E+02  0.27171712367E+02 -0.54068508022E+02  0.11139586104E+03  0.92958040842E+02 0.  0.
         24    2    1    2    0    0 -0.34190498016E+01 -0.54660154941E+02 -0.26759379728E+03  0.28553680984E+03  0.83219030238E+02 0.  0.
        -13    1    4    4    0    0  0.24867109126E+02  0.25360786207E+00 -0.25232666090E+02  0.35427741549E+02  0.00000000000E+00 0.  1.
         14    1    4    4    0    0 -0.28286158928E+02 -0.54913762803E+02 -0.24236113119E+03  0.25010906829E+03  0.00000000000E+00 0. -1.
        -13    1    3    3    0    0  0.26784566414E+02 -0.15856868610E+02  0.98075461293E+01  0.32634969606E+02  0.00000000000E+00 0.  1.
         13    1    3    3    0    0 -0.16482382842E+02  0.43028580977E+02 -0.63876054152E+02  0.78760891431E+02  0.00000000000E+00 0. -1.
         21    1    1    2  502  501 -0.68831337709E+01  0.27488442574E+02  0.88532963556E+02  0.92957396918E+02  0.00000000000E+00 0.  1.
<scales pt_clust_5="13000.00000" pt_clust_6="13000.00000" pt_clust_7="13000.00000" pt_clust_8="13000.00000" pt_clust_9="28.33711"></scales>
<clustering>
<clus scale="   28.337">  1  9  2 -1</clus>
<clus scale="   83.219">  5  6 -1 -1</clus>
<clus scale="   92.958">  7  8 -1 -1</clus>
<clus scale="   96.257">  2  5  1 -1</clus>
<clus scale="   96.257">  2  5  1 -1</clus>
</clustering>
</event>
<event>
 9    2  0.5684583E-005  0.1133796E+03  0.7546771E-02  0.1260438E+00
          2   -1    0    0  502    0  0.00000000000E+00  0.00000000000E+00  0.58505560179E+03  0.58505560179E+03  0.00000000000E+00 0. -1.
         -1   -1    0    0    0  501 -0.00000000000E+00 -0.00000000000E+00 -0.28534257182E+02  0.28534257182E+02  0.00000000000E+00 0.  1.
         23    2    1    2    0    0 -0.39061938986E+02 -0.53494703471E+02  0.16016496086E+03  0.19610516226E+03  0.91743673363E+02 0.  0.
         24    2    1    2    0    0  0.55644020988E+02  0.38705438817E+02  0.36635058339E+03  0.38014790724E+03  0.75533524770E+02 0.  0.
        -11    1    4    4    0    0 -0.17348484937E+02  0.15575237032E+02  0.11722038405E+03  0.11951642722E+03  0.00000000000E+00 0.  1.
         12    1    4    4    0    0  0.72992505926E+02  0.23130201785E+02  0.24913019934E+03  0.26063148003E+03  0.00000000000E+00 0. -1.
        -11    1    3    3    0    0 -0.40458908900E+02 -0.74983680153E+02  0.95670486222E+02  0.12811056761E+03  0.00000000000E+00 0.  1.
         11    1    3    3    0    0  0.13969699136E+01  0.21488976681E+02  0.64494474634E+02  0.67994594653E+02  0.00000000000E+00 0. -1.
         21    1    1    2  502  501 -0.16582082002E+02  0.14789264654E+02  0.30005800357E+02  0.37336789466E+02  0.00000000000E+00 0. -1.
<scales pt_clust_5="13000.00000" pt_clust_6="13000.00000" pt_clust_7="13000.00000" pt_clust_8="13000.00000" pt_clust_9="22.21909"></scales>
<clustering>
<clus scale="   22.219">  2  9  1 -1</clus>
<clus scale="   75.534">  5  6 -1 -1</clus>
<clus scale="   91.744">  7  8 -1 -1</clus>
<clus scale="  100.714">  1  5  2 -1</clus>
<clus scale="  100.714">  1  5  2 -1</clus>
</clustering>
</event>
<event>
 9    2  0.5684583E-005  0.9689439E+02  0.7546771E-02  0.1292141E+00
         -3   -1    0    0    0  501 -0.00000000000E+00  0.00000000000E+00  0.30845947376E+03  0.30845947376E+03  0.00000000000E+00 0.  1.
          4   -1    0    0  502    0  0.00000000000E+00 -0.00000000000E+00 -0.98581974539E+02  0.98581974539E+02  0.00000000000E+00 0. -1.
         24    2    1    2    0    0  0.15376766264E+02 -0.33052315718E+02  0.18711073022E+03  0.20702976305E+03  0.80758881311E+02 0.  0.
         23    2    1    2    0    0  0.33735381016E+02  0.19930384179E+02 -0.50576245285E+02  0.11077388024E+03  0.90430082444E+02 0.  0.
        -11    1    3    3    0    0  0.38393721529E+01 -0.40787262672E+02  0.18865677484E+03  0.19305367199E+03  0.00000000000E+00 0.  1.
         12    1    3    3    0    0  0.11537394111E+02  0.77349469542E+01 -0.15460446268E+01  0.13976091058E+02  0.00000000000E+00 0. -1.
        -11    1    4    4    0    0 -0.25104488178E+02 -0.12513395917E+02 -0.25153516699E+01  0.28162872689E+02  0.00000000000E+00 0.  1.
         11    1    4    4    0    0  0.58839869194E+02  0.32443780096E+02 -0.48060893615E+02  0.82611007552E+02  0.00000000000E+00 0. -1.
         21    1    1    2  502  501 -0.49112147280E+02  0.13121931539E+02  0.73343014289E+02  0.89237805009E+02  0.00000000000E+00 0. -1.
<scales pt_clust_5="13000.00000" pt_clust_6="13000.00000" pt_clust_7="13000.00000" pt_clust_8="13000.00000" pt_clust_9="50.83491"></scales>
<clustering>
<clus scale="   50.835">  1  9  2 -1</clus>
<clus scale="   80.759">  5  6 -1 -1</clus>
<clus scale="   87.937">  1  5  2 -1</clus>
<clus scale="   90.430">  7  8 -1 -1</clus>
<clus scale="   96.894">  2  5  1 -1</clus>
</clustering>
</event>
<event>
 9    2  0.5684583E-005  0.1179926E+03  0.7546771E-02  0.1250663E+00
         -1   -1    0    0    0  501 -0.00000000000E+00  0.00000000000E+00  0.15353117447E+03  0.15353117447E+03  0.00000000000E+00 0.  1.
          2   -1    0    0  502    0  0.00000000000E+00 -0.00000000000E+00 -0.30308039864E+03  0.30308039864E+03  0.00000000000E+00 0. -1.
         24    2    1    2    0    0  0.56818029968E+02 -0.19842175241E+02  0.96897738059E+01  0.10173470543E+03  0.81449727597E+02 0.  0.
         23    2    1    2    0    0 -0.75062026840E+02  0.19705097082E+01 -0.24096237980E+03  0.26925589484E+03  0.93795936191E+02 0.  0.
        -11    1    3    3    0    0  0.44881814762E+02  0.18599009745E+02  0.29535669975E+02  0.56856453114E+02  0.00000000000E+00 0.  1.
         12    1    3    3    0    0  0.11936215206E+02 -0.38441184985E+02 -0.19845896169E+02  0.44878252320E+02  0.00000000000E+00 0. -1.
        -11    1    4    4    0    0  0.10422981467E+02  0.25305475776E+02 -0.30953046078E+02  0.41317026859E+02  0.00000000000E+00 0.  1.
         11    1    4    4    0    0 -0.85485008307E+02 -0.23334966068E+02 -0.21000933373E+03  0.22793886799E+03  0.00000000000E+00 0. -1.
         21    1    1    2  502  501  0.18243996873E+02  0.17871665532E+02  0.81723381831E+02  0.85620972832E+02  0.00000000000E+00 0.  1.
<scales pt_clust_5="13000.00000" pt_clust_6="13000.00000" pt_clust_7="13000.00000" pt_clust_8="13000.00000" pt_clust_9="25.53899"></scales>
<clustering>
<clus scale="   25.539">  1  9  2 -1</clus>
<clus scale="   81.450">  5  6 -1 -1</clus>
<clus scale="   93.796">  7  8 -1 -1</clus>
<clus scale="  108.437">  1  5  2 -1</clus>
<clus scale="  117.993">  2  5  1 -1</clus>
</clustering>
</event>
<event>
 9    2  0.5684583E-005  0.1242946E+03  0.7546771E-02  0.1241184E+00
          2   -1    0    0  502    0  0.00000000000E+00  0.00000000000E+00  0.56045533775E+03  0.56045533775E+03  0.00000000000E+00 0. -1.
         -1   -1    0    0    0  501 -0.00000000000E+00 -0.00000000000E+00 -0.61827094733E+02  0.61827094733E+02  0.00000000000E+00 0.  1.
         23    2    1    2    0    0  0.21098537580E+01  0.54998969548E+02  0.71710588118E+02  0.12833724114E+03  0.91097205672E+02 0.  0.
         24    2    1    2    0    0 -0.37377996822E+02 -0.60141272215E+02  0.43843100501E+03  0.45649065326E+03  0.10558353609E+03 0.  0.
        -11    1    4    4    0    0 -0.33923231769E+02 -0.75741875055E+02  0.18743519204E+03  0.20498675203E+03  0.00000000000E+00 0.  1.
         12    1    4    4    0    0 -0.34547650537E+01  0.15600602840E+02  0.25099581296E+03  0.25150390123E+03  0.00000000000E+00 0. -1.
        -13    1    3    3    0    0  0.21887372468E+02  0.74851413280E+02  0.57676597249E+02  0.96996809297E+02  0.00000000000E+00 0.  1.
         13    1    3    3    0    0 -0.19777518710E+02 -0.19852443732E+02  0.14033990868E+02  0.31340431844E+02  0.00000000000E+00 0. -1.
         21    1    1    2  502  501  0.35268143064E+02  0.51423026675E+01 -0.11513350110E+02  0.37454538079E+02  0.00000000000E+00 0.  1.
<scales pt_clust_5="13000.00000" pt_clust_6="13000.00000" pt_clust_7="13000.00000" pt_clust_8="13000.00000" pt_clust_9="35.64106"></scales>
<clustering>
<clus scale="   35.641">  2  9  1 -1</clus>
<clus scale="   91.097">  7  8 -1 -1</clus>
<clus scale="  105.584">  5  6 -1 -1</clus>
<clus scale="  112.250">  2  7  1 -1</clus>
<clus scale="  124.295">  1  5  2 -1</clus>
</clustering>
</event>
<event>
 9    2  0.5684583E-005  0.1177695E+03  0.7546771E-02  0.1248960E+00
         -1   -1    0    0    0  501 -0.00000000000E+00  0.00000000000E+00  0.14416788282E+03  0.14416788282E+03  0.00000000000E+00 0.  1.
          2   -1    0    0  502    0  0.00000000000E+00 -0.00000000000E+00 -0.16316286793E+03  0.16316286793E+03  0.00000000000E+00 0. -1.
         24    2    1    2    0    0 -0.65823801791E+02  0.61215369528E+01  0.17425255876E+01  0.10668019513E+03  0.83710104168E+02 0.  0.
         23    2    1    2    0    0  0.77815704851E+02 -0.27802163291E+02 -0.73226585474E+02  0.14260782767E+03  0.90258603393E+02 0.  0.
        -11    1    3    3    0    0  0.25290300754E+01 -0.29415011693E+02  0.25894834764E+01  0.29636874510E+02  0.00000000000E+00 0.  1.
         12    1    3    3    0    0 -0.68352831867E+02  0.35536548646E+02 -0.84695788880E+00  0.77043320616E+02  0.00000000000E+00 0. -1.
        -11    1    4    4    0    0  0.78133716586E+02 -0.49882332166E+02 -0.36241120804E+02  0.99531620941E+02  0.00000000000E+00 0.  1.
         11    1    4    4    0    0 -0.31801173468E+00  0.22080168875E+02 -0.36985464671E+02  0.43076206726E+02  0.00000000000E+00 0. -1.
         21    1    1    2  502  501 -0.11991903060E+02  0.21680626338E+02  0.52489074774E+02  0.58042727952E+02  0.00000000000E+00 0. -1.
<scales pt_clust_5="13000.00000" pt_clust_6="13000.00000" pt_clust_7="13000.00000" pt_clust_8="13000.00000" pt_clust_9="24.77610"></scales>
<clustering>
<clus scale="   24.776">  1  9  2 -1</clus>
<clus scale="   83.710">  5  6 -1 -1</clus>
<clus scale="   90.259">  7  8 -1 -1</clus>
<clus scale="  112.829">  1  5  2 -1</clus>
<clus scale="  117.769">  2  5  1 -1</clus>
</clustering>
</event>
<event>
 9    2  0.5684583E-005  0.9505539E+02  0.7546771E-02  0.1295604E+00
         -1   -1    0    0    0  501 -0.00000000000E+00  0.00000000000E+00  0.74027293234E+02  0.74027293234E+02  0.00000000000E+00 0.  1.
          2   -1    0    0  502    0  0.00000000000E+00 -0.00000000000E+00 -0.28767639857E+03  0.28767639857E+03  0.00000000000E+00 0. -1.
         23    2    1    2    0    0  0.18835170660E+02  0.22834014645E+02  0.79213759372E+01  0.94506650919E+02  0.89401359009E+02 0.  0.
         24    2    1    2    0    0 -0.34350351445E+02  0.35877799418E+00 -0.22246690749E+03  0.23927876649E+03  0.81134011367E+02 0.  0.
        -11    1    4    4    0    0 -0.21382056089E+02  0.30732618939E+02 -0.43959469162E+02  0.57741848936E+02  0.00000000000E+00 0.  1.
         12    1    4    4    0    0 -0.12968295355E+02 -0.30373840945E+02 -0.17850743832E+03  0.18153691755E+03  0.00000000000E+00 0. -1.
        -13    1    3    3    0    0  0.28887202825E+02  0.53476186821E+02 -0.18566108852E+01  0.60808059070E+02  0.00000000000E+00 0.  1.
         13    1    3    3    0    0 -0.10052032165E+02 -0.30642172176E+02  0.97779868224E+01  0.33698591849E+02  0.00000000000E+00 0. -1.
         21    1    1    2  502  501  0.15515180785E+02 -0.23192792639E+02  0.89642621372E+00  0.27918274394E+02  0.00000000000E+00 0. -1.
<scales pt_clust_5="13000.00000" pt_clust_6="13000.00000" pt_clust_7="13000.00000" pt_clust_8="13000.00000" pt_clust_9="27.90388"></scales>
<clustering>
<clus scale="   27.904">  1  9  2 -1</clus>
<clus scale="   81.134">  5  6 -1 -1</clus>
<clus scale="   87.325">  2  5  1 -1</clus>
<clus scale="   89.401">  7  8 -1 -1</clus>
<clus scale="   87.325">  2  5  1 -1</clus>
</clustering>
</event>
<event>
 9    2  0.5684583E-005  0.8589171E+02  0.7546771E-02  0.1313347E+00
          2   -1    0    0  502    0  0.00000000000E+00  0.00000000000E+00  0.11358459401E+04  0.11358459401E+04  0.00000000000E+00 0. -1.
         -1   -1    0    0    0  501 -0.00000000000E+00 -0.00000000000E+00 -0.11435062050E+02  0.11435062050E+02  0.00000000000E+00 0.  1.
         23    2    1    2    0    0 -0.21530361710E+02 -0.12542064418E+01  0.19475997791E+03  0.20966794837E+03  0.74592694476E+02 0.  0.
         24    2    1    2    0    0  0.48516378005E+02 -0.30641628105E+01  0.80810104204E+03  0.81302869926E+03  0.75000957556E+02 0.  0.
        -11    1    4    4    0    0  0.15992299252E+02 -0.23361560967E+02  0.10110597274E+03  0.10499492317E+03  0.00000000000E+00 0.  1.
         12    1    4    4    0    0  0.32524078753E+02  0.20297398157E+02  0.70699506930E+03  0.70803377609E+03  0.00000000000E+00 0. -1.
        -13    1    3    3    0    0  0.36085254430E+01 -0.32269146953E+02  0.50932564051E+02  0.60402362386E+02  0.00000000000E+00 0.  1.
         13    1    3    3    0    0 -0.25138887153E+02  0.31014940511E+02  0.14382741386E+03  0.14926558598E+03  0.00000000000E+00 0. -1.
         21    1    1    2  502  501 -0.26986016295E+02  0.43183692522E+01  0.12154985811E+03  0.12458435454E+03  0.00000000000E+00 0. -1.
<scales pt_clust_5="13000.00000" pt_clust_6="13000.00000" pt_clust_7="13000.00000" pt_clust_8="13000.00000" pt_clust_9="27.32935"></scales>
<clustering>
<clus scale="   27.329">  2  9  1 -1</clus>
<clus scale="   74.593">  7  8 -1 -1</clus>
<clus scale="   75.001">  5  6 -1 -1</clus>
<clus scale="   85.535">  2  7  1 -1</clus>
<clus scale="   85.892">  1  5  2 -1</clus>
</clustering>
</event>
<event>
 9    2  0.5684583E-005  0.1223476E+03  0.7546771E-02  0.1242245E+00
         -3   -1    0    0    0  501 -0.00000000000E+00  0.00000000000E+00  0.72757909554E+03  0.72757909554E+03  0.00000000000E+00 0.  1.
          4   -1    0    0  502    0  0.00000000000E+00 -0.00000000000E+00 -0.56469059947E+02  0.56469059947E+02  0.00000000000E+00 0. -1.
         23    2    1    2    0    0 -0.22764308236E+01  0.11217526627E+03  0.35772876623E+03  0.38580358553E+03  0.91027819490E+02 0.  0.
         24    2    1    2    0    0 -0.17745578698E+02 -0.74008548390E+02  0.35124716492E+02  0.11666991123E+03  0.81153876557E+02 0.  0.
        -11    1    4    4    0    0 -0.15999317644E+02 -0.14463445863E+02  0.50699914200E+02  0.55096739751E+02  0.00000000000E+00 0.  1.
         12    1    4    4    0    0 -0.17462610546E+01 -0.59545102528E+02 -0.15575197708E+02  0.61573171482E+02  0.00000000000E+00 0. -1.
        -13    1    3    3    0    0 -0.37587030379E+02  0.13997150069E+02  0.10326338026E+03  0.11077919825E+03  0.00000000000E+00 0. -1.
         13    1    3    3    0    0  0.35310599555E+02  0.98178116200E+02  0.25446538597E+03  0.27502438728E+03  0.00000000000E+00 0.  1.
         21    1    1    2  502  501  0.20022009522E+02 -0.38166717879E+02  0.27825655287E+03  0.28157465872E+03  0.00000000000E+00 0.  1.
<scales pt_clust_5="13000.00000" pt_clust_6="13000.00000" pt_clust_7="13000.00000" pt_clust_8="13000.00000" pt_clust_9="43.09964"></scales>
<clustering>
<clus scale="   43.100">  1  9  2 -1</clus>
<clus scale="   81.154">  5  6 -1 -1</clus>
<clus scale="   91.028">  7  8 -1 -1</clus>
<clus scale="  115.190">  2  5  1 -1</clus>
<clus scale="  115.190">  2  5  1 -1</clus>
</clustering>
</event>
<event>
 9    2  0.5684583E-005  0.1613872E+03  0.7546771E-02  0.1188856E+00
         -1   -1    0    0    0  501 -0.00000000000E+00  0.00000000000E+00  0.68924777076E+02  0.68924777076E+02  0.00000000000E+00 0.  1.
          2   -1    0    0  502    0  0.00000000000E+00 -0.00000000000E+00 -0.55797868772E+03  0.55797868772E+03  0.00000000000E+00 0. -1.
         24    2    1    2    0    0 -0.96329937233E+02  0.84179492125E+02 -0.11958678037E+03  0.19239282776E+03  0.79676586482E+02 0.  0.
         23    2    1    2    0    0  0.13804660515E+03 -0.54349500209E+02 -0.25078716594E+03  0.30522396822E+03  0.90866576955E+02 0.  0.
        -13    1    3    3    0    0 -0.54077676311E+02  0.30282636935E+02 -0.94437012776E+01  0.62694630303E+02  0.00000000000E+00 0.  1.
         14    1    3    3    0    0 -0.42252260922E+02  0.53896855190E+02 -0.11014307909E+03  0.12969819746E+03  0.00000000000E+00 0. -1.
        -11    1    4    4    0    0  0.11054818986E+03 -0.45944354320E+01 -0.12347005440E+03  0.16579163264E+03  0.00000000000E+00 0.  1.
         11    1    4    4    0    0  0.27498415285E+02 -0.49755064777E+02 -0.12731711154E+03  0.13943233558E+03  0.00000000000E+00 0. -1.
         21    1    1    2  502  501 -0.41716667916E+02 -0.29829991916E+02 -0.11867996433E+03  0.12928666881E+03  0.00000000000E+00 0.  1.
<scales pt_clust_5="13000.00000" pt_clust_6="13000.00000" pt_clust_7="13000.00000" pt_clust_8="13000.00000" pt_clust_9="51.28459"></scales>
<clustering>
<clus scale="   51.285">  2  9  1 -1</clus>
<clus scale="   79.677">  5  6 -1 -1</clus>
<clus scale="   90.867">  7  8 -1 -1</clus>
<clus scale="  155.362">  1  5  2 -1</clus>
<clus scale="   51.285">  2  5  1 -1</clus>
</clustering>
</event>
<event>
 9    2  0.5684583E-005  0.1016360E+03  0.7546771E-02  0.1282004E+00
         -1   -1    0    0    0  501 -0.00000000000E+00  0.00000000000E+00  0.39697720771E+03  0.39697720771E+03  0.00000000000E+00 0.  1.
          2   -1    0    0  502    0  0.00000000000E+00 -0.00000000000E+00 -0.42549945599E+02  0.42549945599E+02  0.00000000000E+00 0. -1.
         23    2    1    2    0    0  0.24651161581E+02  0.14176207381E+02  0.25202337460E+03  0.26904480933E+03  0.89781309083E+02 0.  0.
         24    2    1    2    0    0 -0.47015455265E+02 -0.24214062892E+02  0.39385700905E+02  0.10286421018E+03  0.78949594199E+02 0.  0.
        -11    1    4    4    0    0 -0.23923218387E+01 -0.28244418519E+02  0.49399349414E+02  0.56954070125E+02  0.00000000000E+00 0.  1.
         12    1    4    4    0    0 -0.44623133426E+02  0.40303556266E+01 -0.10013648509E+02  0.45910140053E+02  0.00000000000E+00 0. -1.
        -13    1    3    3    0    0  0.23824103344E+02 -0.29860875771E+02  0.18459233326E+03  0.18850355249E+03  0.00000000000E+00 0.  1.
         13    1    3    3    0    0  0.82705823668E+00  0.44037083151E+02  0.67431041334E+02  0.80541256839E+02  0.00000000000E+00 0. -1.
         21    1    1    2  502  501  0.22364293684E+02  0.10037855512E+02  0.63018186608E+02  0.67618133800E+02  0.00000000000E+00 0.  1.
<scales pt_clust_5="13000.00000" pt_clust_6="13000.00000" pt_clust_7="13000.00000" pt_clust_8="13000.00000" pt_clust_9="24.51367"></scales>
<clustering>
<clus scale="   24.514">  1  9  2 -1</clus>
<clus scale="   78.950">  5  6 -1 -1</clus>
<clus scale="   89.781">  7  8 -1 -1</clus>
<clus scale="   92.207">  2  5  1 -1</clus>
<clus scale="   92.207">  2  5  1 -1</clus>
</clustering>
</event>
<event>
 9    2  0.5684583E-005  0.9294383E+02  0.7546771E-02  0.1300819E+00
         -1   -1    0    0    0  501 -0.00000000000E+00  0.00000000000E+00  0.35849096680E+03  0.35849096680E+03  0.00000000000E+00 0.  1.
          2   -1    0    0  502    0  0.00000000000E+00 -0.00000000000E+00 -0.47023926229E+02  0.47023926229E+02  0.00000000000E+00 0. -1.
         24    2    1    2    0    0 -0.24578535923E+02 -0.38779526292E+02  0.19658075103E+03  0.21746609477E+03  0.80867512696E+02 0.  0.
         23    2    1    2    0    0  0.23742129624E+02 -0.46578144263E+00  0.34653005944E+02  0.98727616277E+02  0.89344309966E+02 0.  0.
        -11    1    3    3    0    0  0.93229898319E+01 -0.53268487541E+02  0.13837177863E+03  0.14856378774E+03  0.00000000000E+00 0.  1.
         12    1    3    3    0    0 -0.33901525755E+02  0.14488961249E+02  0.58208972400E+02  0.68902307033E+02  0.00000000000E+00 0. -1.
        -11    1    4    4    0    0  0.39445051664E+02  0.35541865781E+02  0.18041688676E+02  0.56077079580E+02  0.00000000000E+00 0. -1.
         11    1    4    4    0    0 -0.15702922040E+02 -0.36007647224E+02  0.16611317268E+02  0.42650536697E+02  0.00000000000E+00 0.  1.
         21    1    1    2  502  501  0.83640629895E+00  0.39245307735E+02  0.80233283592E+02  0.89321181982E+02  0.00000000000E+00 0. -1.
<scales pt_clust_5="13000.00000" pt_clust_6="13000.00000" pt_clust_7="13000.00000" pt_clust_8="13000.00000" pt_clust_9="39.25422"></scales>
<clustering>
<clus scale="   39.254">  1  9  2 -1</clus>
<clus scale="   80.868">  5  6 -1 -1</clus>
<clus scale="   84.828">  1  5  2 -1</clus>
<clus scale="   89.344">  7  8 -1 -1</clus>
<clus scale="   92.944">  2  5  1 -1</clus>
</clustering>
</event>
<event>
 9    2  0.5684583E-005  0.9883877E+02  0.7546771E-02  0.1287741E+00
         -1   -1    0    0    0  501 -0.00000000000E+00  0.00000000000E+00  0.47653574548E+03  0.47653574548E+03  0.00000000000E+00 0.  1.
          2   -1    0    0  502    0  0.00000000000E+00 -0.00000000000E+00 -0.25203023874E+03  0.25203023874E+03  0.00000000000E+00 0. -1.
         24    2    1    2    0    0  0.59445557274E+02 -0.22396332417E+02  0.22555921503E+03  0.24781347709E+03  0.80617553658E+02 0.  0.
         23    2    1    2    0    0 -0.17513634782E+02  0.35533842218E+02 -0.22860047425E+03  0.24900175527E+03  0.90411923744E+02 0.  0.
        -11    1    3    3    0    0  0.51668641280E+02 -0.63095803054E+01  0.22389734614E+03  0.22986839910E+03  0.00000000000E+00 0.  1.
         12    1    3    3    0    0  0.77769159941E+01 -0.16086752112E+02  0.16618688867E+01  0.17945077990E+02  0.00000000000E+00 0. -1.
        -11    1    4    4    0    0 -0.14102193556E+02 -0.28120690555E+02 -0.47165079578E+02  0.56693825343E+02  0.00000000000E+00 0.  1.
         11    1    4    4    0    0 -0.34114412259E+01  0.63654532773E+02 -0.18143539468E+03  0.19230792993E+03  0.00000000000E+00 0. -1.
         21    1    1    2  502  501 -0.41931922492E+02 -0.13137509801E+02  0.22754676597E+03  0.23175075186E+03  0.00000000000E+00 0. -1.
<scales pt_clust_5="13000.00000" pt_clust_6="13000.00000" pt_clust_7="13000.00000" pt_clust_8="13000.00000" pt_clust_9="43.94178"></scales>
<clustering>
<clus scale="   43.942">  1  9  2 -1</clus>
<clus scale="   80.618">  5  6 -1 -1</clus>
<clus scale="   89.967">  1  5  2 -1</clus>
<clus scale="   90.412">  7  8 -1 -1</clus>
<clus scale="   98.839">  2  5  1 -1</clus>
</clustering>
</event>
<event>
 9    2  0.5684583E-005  0.9663509E+02  0.7546771E-02  0.1293638E+00
         -1   -1    0    0    0  501 -0.00000000000E+00  0.00000000000E+00  0.15329682071E+03  0.15329682071E+03  0.00000000000E+00 0.  1.
          2   -1    0    0  502    0  0.00000000000E+00 -0.00000000000E+00 -0.15675316998E+03  0.15675316998E+03  0.00000000000E+00 0. -1.
         23    2    1    2    0    0 -0.19649087572E+02  0.20135394140E+02  0.35490177758E+02  0.10304895812E+03  0.92563569041E+02 0.  0.
         24    2    1    2    0    0 -0.15838144352E+02 -0.27649533694E+02 -0.10187330171E+03  0.13436781087E+03  0.81616147102E+02 0.  0.
        -13    1    4    4    0    0  0.27684696948E+02  0.87681516626E+01 -0.22217120963E+02  0.36563963032E+02  0.00000000000E+00 0.  1.
         14    1    4    4    0    0 -0.43522841301E+02 -0.36417685357E+02 -0.79656180745E+02  0.97803847841E+02  0.00000000000E+00 0. -1.
        -11    1    3    3    0    0 -0.41468130856E+02 -0.12300993959E+02  0.45414510173E+02  0.62716808459E+02  0.00000000000E+00 0.  1.
         11    1    3    3    0    0  0.21819043284E+02  0.32436388099E+02 -0.99243324152E+01  0.40332149665E+02  0.00000000000E+00 0. -1.
         21    1    1    2  502  501  0.35487231925E+02  0.75141395539E+01  0.62926774673E+02  0.72633221694E+02  0.00000000000E+00 0. -1.
<scales pt_clust_5="13000.00000" pt_clust_6="13000.00000" pt_clust_7="13000.00000" pt_clust_8="13000.00000" pt_clust_9="36.27404"></scales>
<clustering>
<clus scale="   36.274">  1  9  2 -1</clus>
<clus scale="   81.616">  5  6 -1 -1</clus>
<clus scale="   86.206">  2  5  1 -1</clus>
<clus scale="   92.564">  7  8 -1 -1</clus>
<clus scale="   86.206">  2  5  1 -1</clus>
</clustering>
</event>
<event>
 9    2  0.5684583E-005  0.1027126E+03  0.7546771E-02  0.1279696E+00
          2   -1    0    0  502    0  0.00000000000E+00  0.00000000000E+00  0.71203373678E+02  0.71203373678E+02  0.00000000000E+00 0. -1.
         -1   -1    0    0    0  501 -0.00000000000E+00 -0.00000000000E+00 -0.38819205763E+03  0.38819205763E+03  0.00000000000E+00 0.  1.
         24    2    1    2    0    0  0.25278702947E+02 -0.29984314427E+02 -0.50941146620E+02  0.10315565875E+03  0.80672285068E+02 0.  0.
         23    2    1    2    0    0  0.24210272139E+02  0.64445323632E+02 -0.38274981155E+02  0.12061919375E+03  0.91349212937E+02 0.  0.
        -13    1    3    3    0    0 -0.20731558366E+02 -0.32899246498E+02 -0.39971031475E+02  0.55765950988E+02  0.00000000000E+00 0.  1.
         14    1    3    3    0    0  0.46010261313E+02  0.29149320714E+01 -0.10970115144E+02  0.47389707758E+02  0.00000000000E+00 0. -1.
        -13    1    4    4    0    0  0.11502732862E+02  0.37329447158E+02  0.27887766264E+02  0.47995083036E+02  0.00000000000E+00 0. -1.
         13    1    4    4    0    0  0.12707539278E+02  0.27115876474E+02 -0.66162747419E+02  0.72624110718E+02  0.00000000000E+00 0.  1.
         21    1    1    2  502  501 -0.49488975087E+02 -0.34461009206E+02 -0.22777255618E+03  0.23562057881E+03  0.00000000000E+00 0.  1.
<scales pt_clust_5="13000.00000" pt_clust_6="13000.00000" pt_clust_7="13000.00000" pt_clust_8="13000.00000" pt_clust_9="60.30522"></scales>
<clustering>
<clus scale="   60.305">  2  9  1 -1</clus>
<clus scale="   80.672">  5  6 -1 -1</clus>
<clus scale="   91.349">  7  8 -1 -1</clus>
<clus scale="   93.345">  2  5  1 -1</clus>
<clus scale="  102.713">  1  5  2 -1</clus>
</clustering>
</event>
<event>
 9    2  0.5684583E-005  0.2843345E+03  0.7546771E-02  0.1093799E+00
         -1   -1    0    0    0  501 -0.00000000000E+00  0.00000000000E+00  0.74511531005E+02  0.74511531005E+02  0.00000000000E+00 0.  1.
          2   -1    0    0  502    0  0.00000000000E+00 -0.00000000000E+00 -0.17505831081E+04  0.17505831081E+04  0.00000000000E+00 0. -1.
         24    2    1    2    0    0  0.25470451245E+03 -0.13631706283E+03 -0.34171114934E+03  0.45478345890E+03  0.81269641460E+02 0.  0.
         23    2    1    2    0    0 -0.19074050556E+03  0.96563147244E+02 -0.10907414014E+04  0.11153170666E+04  0.92244091479E+02 0.  0.
        -13    1    3    3    0    0  0.97222798696E+02 -0.49723990679E+02 -0.72428930906E+02  0.13103700953E+03  0.00000000000E+00 0.  1.
         14    1    3    3    0    0  0.15748171376E+03 -0.86593072148E+02 -0.26928221843E+03  0.32374644937E+03  0.00000000000E+00 0. -1.
        -11    1    4    4    0    0 -0.20007467334E+02 -0.18117396253E+02 -0.11321976268E+03  0.11639266926E+03  0.00000000000E+00 0.  1.
         11    1    4    4    0    0 -0.17073303822E+03  0.11468054350E+03 -0.97752163869E+03  0.99892439729E+03  0.00000000000E+00 0. -1.
         21    1    1    2  502  501 -0.63964006898E+02  0.39753915583E+02 -0.24361902642E+03  0.25499411369E+03  0.00000000000E+00 0. -1.
<scales pt_clust_5="13000.00000" pt_clust_6="13000.00000" pt_clust_7="13000.00000" pt_clust_8="13000.00000" pt_clust_9="75.31114"></scales>
<clustering>
<clus scale="   75.311">  2  9  1 -1</clus>
<clus scale="   81.270">  5  6 -1 -1</clus>
<clus scale="   92.244">  7  8 -1 -1</clus>
<clus scale="  280.966">  1  5  2 -1</clus>
<clus scale="   75.311">  2  5  1 -1</clus>
</clustering>
</event>
<event>
 9    2  0.5684583E-005  0.9897474E+02  0.7546771E-02  0.1286709E+00
          2   -1    0    0  502    0  0.00000000000E+00  0.00000000000E+00  0.58712380719E+03  0.58712380719E+03  0.00000000000E+00 0. -1.
         -1   -1    0    0    0  501 -0.00000000000E+00 -0.00000000000E+00 -0.34529923455E+02  0.34529923455E+02  0.00000000000E+00 0.  1.
         23    2    1    2    0    0 -0.26242495705E+02  0.95202011355E+01  0.96240926243E+02  0.13557140558E+03  0.91312580268E+02 0.  0.
         24    2    1    2    0    0  0.27388518870E+02 -0.30943023771E+02  0.45525731537E+03  0.46460091146E+03  0.82989047769E+02 0.  0.
        -13    1    4    4    0    0  0.48313479260E+01  0.23355229217E+02  0.53649612987E+02  0.58711920665E+02  0.00000000000E+00 0.  1.
         14    1    4    4    0    0  0.22557170944E+02 -0.54298252988E+02  0.40160770238E+03  0.40588899080E+03  0.00000000000E+00 0. -1.
        -11    1    3    3    0    0  0.25592874629E+02  0.20448148335E+02  0.98068019598E+01  0.34194961131E+02  0.00000000000E+00 0.  1.
         11    1    3    3    0    0 -0.51835370334E+02 -0.10927947200E+02  0.86434124283E+02  0.10137644444E+03  0.00000000000E+00 0. -1.
         21    1    1    2  502  501 -0.11460231646E+01  0.21422822636E+02  0.10956421214E+01  0.21481413604E+02  0.00000000000E+00 0.  1.
<scales pt_clust_5="13000.00000" pt_clust_6="13000.00000" pt_clust_7="13000.00000" pt_clust_8="13000.00000" pt_clust_9="21.45345"></scales>
<clustering>
<clus scale="   21.453">  2  9  1 -1</clus>
<clus scale="   82.989">  5  6 -1 -1</clus>
<clus scale="   91.313">  7  8 -1 -1</clus>
<clus scale="   91.352">  1  5  2 -1</clus>
<clus scale="   91.352">  1  5  2 -1</clus>
</clustering>
</event>
<event>
 9    2  0.5684583E-005  0.9757727E+02  0.7546771E-02  0.1292479E+00
          2   -1    0    0  502    0  0.00000000000E+00  0.00000000000E+00  0.40716771201E+03  0.40716771201E+03  0.00000000000E+00 0. -1.
         -1   -1    0    0    0  501 -0.00000000000E+00 -0.00000000000E+00 -0.14824734496E+03  0.14824734496E+03  0.00000000000E+00 0.  1.
         23    2    1    2    0    0  0.15198690689E+02 -0.90292816671E+02 -0.47422800816E+02  0.13893818807E+03  0.93118768919E+02 0.  0.
         24    2    1    2    0    0 -0.13391352965E+02  0.22198680118E+02  0.33282824340E+03  0.34339104860E+03  0.80440430897E+02 0.  0.
        -13    1    4    4    0    0  0.97789543413E+01  0.41052122838E+02  0.98403789652E+02  0.10707105377E+03  0.00000000000E+00 0.  1.
         14    1    4    4    0    0 -0.23170307306E+02 -0.18853442720E+02  0.23442445375E+03  0.23631999483E+03  0.00000000000E+00 0. -1.
        -13    1    3    3    0    0  0.38411382056E+02 -0.98686984237E+02 -0.39186684211E+02  0.11291656809E+03  0.00000000000E+00 0. -1.
         13    1    3    3    0    0 -0.23212691367E+02  0.83941675655E+01 -0.82361166052E+01  0.26021619980E+02  0.00000000000E+00 0.  1.
         21    1    1    2  502  501 -0.18073377237E+01  0.68094136553E+02 -0.26485075531E+02  0.73085820297E+02  0.00000000000E+00 0.  1.
<scales pt_clust_5="13000.00000" pt_clust_6="13000.00000" pt_clust_7="13000.00000" pt_clust_8="13000.00000" pt_clust_9="68.11812"></scales>
<clustering>
<clus scale="   68.118">  2  9  1 -1</clus>
<clus scale="   80.440">  5  6 -1 -1</clus>
<clus scale="   85.562">  1  5  2 -1</clus>
<clus scale="   93.119">  7  8 -1 -1</clus>
<clus scale="   85.562">  1  5  2 -1</clus>
</clustering>
</event>
<event>
 9    2  0.5684583E-005  0.1234414E+03  0.7546771E-02  0.1240839E+00
          2   -1    0    0  502    0  0.00000000000E+00  0.00000000000E+00  0.29080409849E+03  0.29080409849E+03  0.00000000000E+00 0. -1.
         -1   -1    0    0    0  501 -0.00000000000E+00 -0.00000000000E+00 -0.16503927787E+03  0.16503927787E+03  0.00000000000E+00 0.  1.
         23    2    1    2    0    0 -0.73215779456E+02 -0.11417170578E+02 -0.98047984524E+02  0.15293836441E+03  0.91026555974E+02 0.  0.
         24    2    1    2    0    0  0.75231546489E+02  0.38971909820E+02  0.24289041388E+03  0.26932998959E+03  0.79776530366E+02 0.  0.
        -11    1    4    4    0    0  0.18601372579E+02 -0.16736350109E+02  0.18005599950E+02  0.30827229949E+02  0.00000000000E+00 0.  1.
         12    1    4    4    0    0  0.56630173910E+02  0.55708259929E+02  0.22488481393E+03  0.23850275964E+03  0.00000000000E+00 0. -1.
        -11    1    3    3    0    0 -0.31700254228E+02  0.32220570148E+02 -0.10054468893E+02  0.46305114226E+02  0.00000000000E+00 0. -1.
         11    1    3    3    0    0 -0.41515525229E+02 -0.43637740726E+02 -0.87993515631E+02  0.10663325018E+03  0.00000000000E+00 0.  1.
         21    1    1    2  502  501 -0.20157670322E+01 -0.27554739242E+02 -0.19077608731E+02  0.33575022358E+02  0.00000000000E+00 0.  1.
<scales pt_clust_5="13000.00000" pt_clust_6="13000.00000" pt_clust_7="13000.00000" pt_clust_8="13000.00000" pt_clust_9="27.62837"></scales>
<clustering>
<clus scale="   27.628">  2  9  1 -1</clus>
<clus scale="   79.777">  5  6 -1 -1</clus>
<clus scale="   91.027">  7  8 -1 -1</clus>
<clus scale="  115.396">  1  5  2 -1</clus>
<clus scale="  115.396">  1  5  2 -1</clus>
</clustering>
</event>
<event>
 9    2  0.5684583E-005  0.1210496E+03  0.7546771E-02  0.1248168E+00
         -1   -1    0    0    0  501 -0.00000000000E+00  0.00000000000E+00  0.28686261050E+03  0.28686261050E+03  0.00000000000E+00 0.  1.
          2   -1    0    0  502    0  0.00000000000E+00 -0.00000000000E+00 -0.54081550990E+03  0.54081550990E+03  0.00000000000E+00 0. -1.
         23    2    1    2    0    0  0.41330026625E+02  0.53827659897E+02  0.25770609245E+03  0.28492910062E+03  0.10082943132E+03 0.  0.
         24    2    1    2    0    0 -0.18242270456E+02 -0.29283204407E+02 -0.49892160797E+03  0.50672519811E+03  0.81592701901E+02 0.  0.
        -13    1    4    4    0    0 -0.11798698396E+02  0.28227292080E+02 -0.16007374931E+03  0.16297114628E+03  0.00000000000E+00 0.  1.
         14    1    4    4    0    0 -0.64435720599E+01 -0.57510496487E+02 -0.33884785866E+03  0.34375405182E+03  0.00000000000E+00 0. -1.
        -13    1    3    3    0    0  0.39518538720E+02 -0.18635667230E+02  0.59014021651E+02  0.73427908502E+02  0.00000000000E+00 0. -1.
         13    1    3    3    0    0  0.18114879051E+01  0.72463327127E+02  0.19869207080E+03  0.21150119211E+03  0.00000000000E+00 0.  1.
         21    1    1    2  502  501 -0.23087756169E+02 -0.24544455490E+02 -0.12737383870E+02  0.36023821675E+02  0.00000000000E+00 0. -1.
<scales pt_clust_5="13000.00000" pt_clust_6="13000.00000" pt_clust_7="13000.00000" pt_clust_8="13000.00000" pt_clust_9="33.69681"></scales>
<clustering>
<clus scale="   33.697">  2  9  1 -1</clus>
<clus scale="   81.593">  5  6 -1 -1</clus>
<clus scale="  100.829">  7  8 -1 -1</clus>
<clus scale="  105.564">  2  5  1 -1</clus>
<clus scale="   33.697">  2  5  1 -1</clus>
</clustering>
</event>
<event>
 9    2  0.6604637E-005  0.9596409E+02  0.7546771E-02  0.1293836E+00
         -1   -1    0    0    0  501 -0.00000000000E+00  0.00000000000E+00  0.81540225043E+02  0.81540225043E+02  0.00000000000E+00 0.  1.
          2   -1    0    0  502    0  0.00000000000E+00 -0.00000000000E+00 -0.31423425718E+03  0.31423425718E+03  0.00000000000E+00 0. -1.
         24    2    1    2    0    0 -0.94712536819E+01 -0.49178894127E+02  0.23064951953E+02  0.97688077486E+02  0.80639321677E+02 0.  0.
         23    2    1    2    0    0  0.26172562240E+02  0.21119962796E+02 -0.24609401704E+03  0.26403278638E+03  0.89554403690E+02 0.  0.
        -13    1    3    3    0    0 -0.40999512217E+02 -0.42546939910E+02  0.27488443747E+02  0.65167604202E+02  0.00000000000E+00 0.  1.
         14    1    3    3    0    0  0.31528258535E+02 -0.66319542171E+01 -0.44234917941E+01  0.32520473284E+02  0.00000000000E+00 0. -1.
        -11    1    4    4    0    0 -0.23496784331E+02 -0.16071530517E+01 -0.18423675626E+02  0.29901733034E+02  0.00000000000E+00 0.  1.
         11    1    4    4    0    0  0.49669346572E+02  0.22727115848E+02 -0.22767034141E+03  0.23413105335E+03  0.00000000000E+00 0. -1.
         21    1    1    2  502  501 -0.16701308559E+02  0.28058931331E+02 -0.96649670537E+01  0.34053618356E+02  0.00000000000E+00 0.  1.
<scales pt_clust_5="13000.00000" pt_clust_6="13000.00000" pt_clust_7="13000.00000" pt_clust_8="13000.00000" pt_clust_9="32.65329"></scales>
<clustering>
<clus scale="   32.653">  1  9  2 -1</clus>
<clus scale="   80.639">  5  6 -1 -1</clus>
<clus scale="   87.703">  1  5  2 -1</clus>
<clus scale="   89.554">  7  8 -1 -1</clus>
<clus scale="   95.964">  2  5  1 -1</clus>
</clustering>
</event>
<event>
 9    2  0.5684583E-005  0.1011956E+03  0.7546771E-02  0.1282002E+00
         -1   -1    0    0    0  501 -0.00000000000E+00  0.00000000000E+00  0.82513805694E+02  0.82513805694E+02  0.00000000000E+00 0.  1.
          2   -1    0    0  502    0  0.00000000000E+00 -0.00000000000E+00 -0.25107578876E+03  0.25107578876E+03  0.00000000000E+00 0. -1.
         24    2    1    2    0    0  0.51658006917E+02 -0.27260219394E+02 -0.17944485562E+02  0.10465813628E+03  0.84968533518E+02 0.  0.
         23    2    1    2    0    0 -0.24783806478E+02  0.21914130102E+02 -0.16900465407E+03  0.19593311205E+03  0.93449158045E+02 0.  0.
        -13    1    3    3    0    0  0.60728656878E+02  0.86907996139E+01  0.41655535087E+01  0.61488629845E+02  0.00000000000E+00 0.  1.
         14    1    3    3    0    0 -0.90706499614E+01 -0.35951019008E+02 -0.22110039071E+02  0.43169506439E+02  0.00000000000E+00 0. -1.
        -13    1    4    4    0    0  0.90241890568E+01 -0.20202286637E+02 -0.42214772520E+01  0.22525302299E+02  0.00000000000E+00 0.  1.
         13    1    4    4    0    0 -0.33807995535E+02  0.42116416738E+02 -0.16478317682E+03  0.17340780975E+03  0.00000000000E+00 0. -1.
         21    1    1    2  502  501 -0.26874200439E+02  0.53460892926E+01  0.18387156566E+02  0.32998346118E+02  0.00000000000E+00 0.  1.
<scales pt_clust_5="13000.00000" pt_clust_6="13000.00000" pt_clust_7="13000.00000" pt_clust_8="13000.00000" pt_clust_9="27.40079"></scales>
<clustering>
<clus scale="   27.401">  1  9  2 -1</clus>
<clus scale="   84.969">  5  6 -1 -1</clus>
<clus scale="   93.421">  1  5  2 -1</clus>
<clus scale="   93.449">  7  8 -1 -1</clus>
<clus scale="  101.196">  2  5  1 -1</clus>
</clustering>
</event>
<event>
 9    2  0.5684583E-005  0.9079580E+02  0.7546771E-02  0.1308285E+00
         -1   -1    0    0    0  501 -0.00000000000E+00  0.00000000000E+00  0.90698217169E+02  0.90698217169E+02  0.00000000000E+00 0.  1.
          2   -1    0    0  502    0  0.00000000000E+00 -0.00000000000E+00 -0.11733526267E+03  0.11733526267E+03  0.00000000000E+00 0. -1.
         23    2    1    2    0    0  0.25023785148E+02  0.58640743248E+00  0.12178796601E+02  0.94440959984E+02  0.90245432789E+02 0.  0.
         24    2    1    2    0    0 -0.27595814311E+00 -0.81433930654E+01 -0.37737509326E+02  0.87694145875E+02  0.78738507778E+02 0.  0.
        -13    1    4    4    0    0  0.24291856722E+02  0.26465328891E+02 -0.11160187313E+02  0.37617252919E+02  0.00000000000E+00 0.  1.
         14    1    4    4    0    0 -0.24567814865E+02 -0.34608721957E+02 -0.26577322013E+02  0.50076892956E+02  0.00000000000E+00 0. -1.
        -11    1    3    3    0    0  0.32451939845E+01  0.44502847404E+02  0.65388208608E+01  0.45097570770E+02  0.00000000000E+00 0. -1.
         11    1    3    3    0    0  0.21778591164E+02 -0.43916439972E+02  0.56399757403E+01  0.49343389215E+02  0.00000000000E+00 0.  1.
         21    1    1    2  502  501 -0.24747827005E+02  0.75569856329E+01 -0.10783327790E+01  0.25898373982E+02  0.00000000000E+00 0. -1.
<scales pt_clust_5="13000.00000" pt_clust_6="13000.00000" pt_clust_7="13000.00000" pt_clust_8="13000.00000" pt_clust_9="25.87591"></scales>
<clustering>
<clus scale="   25.876">  1  9  2 -1</clus>
<clus scale="   78.739">  5  6 -1 -1</clus>
<clus scale="   79.369">  2  5  1 -1</clus>
<clus scale="   90.245">  7  8 -1 -1</clus>
<clus scale="   79.369">  2  5  1 -1</clus>
</clustering>
</event>
<event>
 9    2  0.5684583E-005  0.1126692E+03  0.7546771E-02  0.1257651E+00
         -1   -1    0    0    0  501 -0.00000000000E+00  0.00000000000E+00  0.21556755287E+03  0.21556755287E+03  0.00000000000E+00 0.  1.
          2   -1    0    0  502    0  0.00000000000E+00 -0.00000000000E+00 -0.56224624549E+03  0.56224624549E+03  0.00000000000E+00 0. -1.
         23    2    1    2    0    0 -0.80980494603E+02  0.38292652691E+02  0.16133246454E+03  0.20368557986E+03  0.86229250092E+02 0.  0.
         24    2    1    2    0    0  0.53707777969E+02 -0.48122671659E+02 -0.52796938283E+03  0.53893218012E+03  0.80597199859E+02 0.  0.
        -11    1    4    4    0    0  0.30077668572E+02 -0.45983999400E-01 -0.52907505237E+02  0.60859447678E+02  0.00000000000E+00 0.  1.
         12    1    4    4    0    0  0.23630109397E+02 -0.48076687659E+02 -0.47506187759E+03  0.47807273244E+03  0.00000000000E+00 0. -1.
        -13    1    3    3    0    0 -0.65972498413E+00  0.23823536779E+02  0.96658861600E+02  0.99553662250E+02  0.00000000000E+00 0.  1.
         13    1    3    3    0    0 -0.80320769619E+02  0.14469115912E+02  0.64673602940E+02  0.10413191761E+03  0.00000000000E+00 0. -1.
         21    1    1    2  502  501  0.27272716634E+02  0.98300189678E+01  0.19958225666E+02  0.35196038374E+02  0.00000000000E+00 0. -1.
<scales pt_clust_5="13000.00000" pt_clust_6="13000.00000" pt_clust_7="13000.00000" pt_clust_8="13000.00000" pt_clust_9="28.99018"></scales>
<clustering>
<clus scale="   28.990">  1  9  2 -1</clus>
<clus scale="   80.597">  5  6 -1 -1</clus>
<clus scale="   86.229">  7  8 -1 -1</clus>
<clus scale="  108.419">  2  5  1 -1</clus>
<clus scale="  108.419">  2  5  1 -1</clus>
</clustering>
</event>
<event>
 9    2  0.5684583E-005  0.1492077E+03  0.7546771E-02  0.1203785E+00
          2   -1    0    0  502    0  0.00000000000E+00  0.00000000000E+00  0.83303323656E+03  0.83303323656E+03  0.00000000000E+00 0. -1.
         -1   -1    0    0    0  501 -0.00000000000E+00 -0.00000000000E+00 -0.30959422348E+02  0.30959422348E+02  0.00000000000E+00 0.  1.
         24    2    1    2    0    0  0.10740347045E+03 -0.41423906327E+02  0.28639295401E+03  0.31911046495E+03  0.80988389652E+02 0.  0.
         23    2    1    2    0    0 -0.10105745004E+03  0.64612099663E+02  0.44362134187E+03  0.46891813358E+03  0.93257650683E+02 0.  0.
        -11    1    3    3    0    0 -0.58739780484E+01 -0.24704793008E+02  0.66652792427E+02  0.71326188417E+02  0.00000000000E+00 0.  1.
         12    1    3    3    0    0  0.11327744850E+03 -0.16719113319E+02  0.21974016158E+03  0.24778427654E+03  0.00000000000E+00 0. -1.
        -11    1    4    4    0    0 -0.45463207064E+02  0.60828352250E+02  0.13142386742E+03  0.15178677334E+03  0.00000000000E+00 0. -1.
         11    1    4    4    0    0 -0.55594242971E+02  0.37837474134E+01  0.31219747445E+03  0.31713136024E+03  0.00000000000E+00 0.  1.
         21    1    1    2  502  501 -0.63460204115E+01 -0.23188193336E+02  0.72059518337E+02  0.75964060372E+02  0.00000000000E+00 0. -1.
<scales pt_clust_5="13000.00000" pt_clust_6="13000.00000" pt_clust_7="13000.00000" pt_clust_8="13000.00000" pt_clust_9="24.04089"></scales>
<clustering>
<clus scale="   24.041">  1  9  2 -1</clus>
<clus scale="   80.988">  5  6 -1 -1</clus>
<clus scale="   93.258">  7  8 -1 -1</clus>
<clus scale="  141.863">  2  5  1 -1</clus>
<clus scale="   24.041">  1  5  2 -1</clus>
</clustering>
</event>
<event>
 9    2  0.5684583E-005  0.1055460E+03  0.7546771E-02  0.1278028E+00
         -1   -1    0    0    0  501 -0.00000000000E+00  0.00000000000E+00  0.62246492439E+02  0.62246492439E+02  0.00000000000E+00 0.  1.
          2   -1    0    0  502    0  0.00000000000E+00 -0.00000000000E+00 -0.89755430585E+03  0.89755430585E+03  0.00000000000E+00 0. -1.
         23    2    1    2    0    0 -0.72831881258E+01  0.54448917969E+02  0.13620886489E+01  0.84940177807E+02  0.64770742031E+02 0.  0.
         24    2    1    2    0    0  0.35792499283E+02 -0.50219641006E+02 -0.83924739050E+03  0.84592429291E+03  0.86305338946E+02 0.  0.
        -11    1    4    4    0    0  0.50668299732E+02 -0.30001103478E+02 -0.28053240193E+03  0.28664572444E+03  0.00000000000E+00 0.  1.
         12    1    4    4    0    0 -0.14875800449E+02 -0.20218537529E+02 -0.55871498857E+03  0.55927856847E+03  0.00000000000E+00 0. -1.
        -11    1    3    3    0    0  0.44766759612E+01  0.36897744662E+02  0.31098862473E+02  0.48462598320E+02  0.00000000000E+00 0.  1.
         11    1    3    3    0    0 -0.11759864087E+02  0.17551173307E+02 -0.29736773824E+02  0.36477579487E+02  0.00000000000E+00 0. -1.
         21    1    1    2  502  501 -0.28509311157E+02 -0.42292769623E+01  0.25774884441E+01  0.28936327565E+02  0.00000000000E+00 0. -1.
<scales pt_clust_5="13000.00000" pt_clust_6="13000.00000" pt_clust_7="13000.00000" pt_clust_8="13000.00000" pt_clust_9="28.82130"></scales>
<clustering>
<clus scale="   28.821">  1  9  2 -1</clus>
<clus scale="   64.771">  7  8 -1 -1</clus>
<clus scale="   86.305">  5  6 -1 -1</clus>
<clus scale="   88.807">  1  7  2 -1</clus>
<clus scale="  105.546">  2  5  1 -1</clus>
</clustering>
</event>
<event>
 9    2  0.5684583E-005  0.1714731E+03  0.7546771E-02  0.1177680E+00
         -1   -1    0    0    0  501 -0.00000000000E+00  0.00000000000E+00  0.14998293730E+03  0.14998293730E+03  0.00000000000E+00 0.  1.
          2   -1    0    0  502    0  0.00000000000E+00 -0.00000000000E+00 -0.39173136933E+03  0.39173136933E+03  0.00000000000E+00 0. -1.
         24    2    1    2    0    0  0.47799071489E+02  0.10825701164E+03  0.31977342645E+02  0.14575092511E+03  0.78844466658E+02 0.  0.
         23    2    1    2    0    0 -0.25379574584E+02 -0.15316958544E+03 -0.29199731993E+03  0.34254407328E+03  0.89269046078E+02 0.  0.
        -13    1    3    3    0    0  0.34630627350E+02  0.10327711672E+03  0.52454901185E+02  0.12090061971E+03  0.00000000000E+00 0.  1.
         14    1    3    3    0    0  0.13168444140E+02  0.49798949222E+01 -0.20477558541E+02  0.24850305396E+02  0.00000000000E+00 0. -1.
        -13    1    4    4    0    0 -0.40036042766E+02 -0.81962962998E+02 -0.22844180458E+03  0.24598062953E+03  0.00000000000E+00 0. -1.
         13    1    4    4    0    0  0.14656468182E+02 -0.71206622438E+02 -0.63555515349E+02  0.96563443755E+02  0.00000000000E+00 0.  1.
         21    1    1    2  502  501 -0.22419496905E+02  0.44912573799E+02  0.18271545252E+02  0.53419308238E+02  0.00000000000E+00 0.  1.
<scales pt_clust_5="13000.00000" pt_clust_6="13000.00000" pt_clust_7="13000.00000" pt_clust_8="13000.00000" pt_clust_9="50.19734"></scales>
<clustering>
<clus scale="   50.197">  1  9  2 -1</clus>
<clus scale="   78.844">  5  6 -1 -1</clus>
<clus scale="   89.269">  7  8 -1 -1</clus>
<clus scale="  166.284">  1  5  2 -1</clus>
<clus scale="  171.473">  2  5  1 -1</clus>
</clustering>
</event>
<event>
 9    2  0.5684583E-005  0.9312820E+02  0.7546771E-02  0.1301316E+00
          2   -1    0    0  502    0  0.00000000000E+00  0.00000000000E+00  0.66840065060E+03  0.66840065060E+03  0.00000000000E+00 0. -1.
         -1   -1    0    0    0  501 -0.00000000000E+00 -0.00000000000E+00 -0.58326254986E+02  0.58326254986E+02  0.00000000000E+00 0.  1.
         23    2    1    2    0    0  0.51606042530E+02  0.29464004463E+01  0.10593819758E+03  0.14888646480E+03  0.90952805304E+02 0.  0.
         24    2    1    2    0    0 -0.61475476485E+01 -0.17836319585E+02  0.52062361322E+03  0.52724380742E+03  0.81124343952E+02 0.  0.
        -11    1    4    4    0    0  0.34754765159E+02  0.43336881557E+01  0.17201465812E+03  0.17554406046E+03  0.00000000000E+00 0.  1.
         12    1    4    4    0    0 -0.40902312808E+02 -0.22170007741E+02  0.34860895510E+03  0.35169974696E+03  0.00000000000E+00 0. -1.
        -11    1    3    3    0    0 -0.10868526587E+02  0.29136640882E+02  0.12592976892E+02  0.33550734404E+02  0.00000000000E+00 0.  1.
         11    1    3    3    0    0  0.62474569117E+02 -0.26190240436E+02  0.93345220687E+02  0.11533573039E+03  0.00000000000E+00 0. -1.
         21    1    1    2  502  501 -0.45458494882E+02  0.14889919139E+02 -0.16487415184E+02  0.50596633369E+02  0.00000000000E+00 0.  1.
<scales pt_clust_5="13000.00000" pt_clust_6="13000.00000" pt_clust_7="13000.00000" pt_clust_8="13000.00000" pt_clust_9="47.83497"></scales>
<clustering>
<clus scale="   47.835">  2  9  1 -1</clus>
<clus scale="   81.124">  5  6 -1 -1</clus>
<clus scale="   83.556">  1  5  2 -1</clus>
<clus scale="   90.953">  7  8 -1 -1</clus>
<clus scale="   83.556">  1  5  2 -1</clus>
</clustering>
</event>
<event>
 9    2  0.5684583E-005  0.1064156E+03  0.7546771E-02  0.1271607E+00
          2   -1    0    0  502    0  0.00000000000E+00  0.00000000000E+00  0.93331770603E+02  0.93331770603E+02  0.00000000000E+00 0. -1.
         -1   -1    0    0    0  501 -0.00000000000E+00 -0.00000000000E+00 -0.20659275811E+03  0.20659275811E+03  0.00000000000E+00 0.  1.
         23    2    1    2    0    0 -0.28411014230E+01 -0.47020074397E+02 -0.55880244156E+02  0.11676680594E+03  0.91065504053E+02 0.  0.
         24    2    1    2    0    0 -0.25405504703E+02  0.55475632614E+02  0.17233672906E+02  0.10292881068E+03  0.81082396998E+02 0.  0.
        -13    1    4    4    0    0  0.24574661361E+02  0.95008777927E+01 -0.12053039158E+02  0.28973374205E+02  0.00000000000E+00 0.  1.
         14    1    4    4    0    0 -0.49980166065E+02  0.45974754822E+02  0.29286712064E+02  0.73955436476E+02  0.00000000000E+00 0. -1.
        -11    1    3    3    0    0 -0.45704697361E+01 -0.68289954898E+02 -0.64220755903E+02  0.93854742140E+02  0.00000000000E+00 0.  1.
         11    1    3    3    0    0  0.17293683131E+01  0.21269880500E+02  0.83405117470E+01  0.22912063798E+02  0.00000000000E+00 0. -1.
         21    1    1    2  502  501  0.28246606126E+02 -0.84555582172E+01 -0.74614416260E+02  0.80228912097E+02  0.00000000000E+00 0.  1.
<scales pt_clust_5="13000.00000" pt_clust_6="13000.00000" pt_clust_7="13000.00000" pt_clust_8="13000.00000" pt_clust_9="29.48503"></scales>
<clustering>
<clus scale="   29.485">  2  9  1 -1</clus>
<clus scale="   81.082">  5  6 -1 -1</clus>
<clus scale="   91.066">  7  8 -1 -1</clus>
<clus scale="   98.009">  1  5  2 -1</clus>
<clus scale="   98.009">  1  5  2 -1</clus>
</clustering>
</event>
<event>
 9    2  0.5684583E-005  0.1007650E+03  0.7546771E-02  0.1283740E+00
         -1   -1    0    0    0  501 -0.00000000000E+00  0.00000000000E+00  0.37000249016E+02  0.37000249016E+02  0.00000000000E+00 0.  1.
          2   -1    0    0  502    0  0.00000000000E+00 -0.00000000000E+00 -0.69910137801E+03  0.69910137801E+03  0.00000000000E+00 0. -1.
         23    2    1    2    0    0 -0.59766901909E+02 -0.28576377908E+02 -0.29110476486E+03  0.31204314323E+03  0.90775807201E+02 0.  0.
         24    2    1    2    0    0 -0.19678748621E+02  0.50910746380E+02 -0.29946819538E+03  0.31484898637E+03  0.80433369507E+02 0.  0.
        -13    1    4    4    0    0 -0.13905212660E+00  0.69933640879E+02 -0.21577057966E+03  0.22682080264E+03  0.00000000000E+00 0.  1.
         14    1    4    4    0    0 -0.19539696495E+02 -0.19022894499E+02 -0.83697615722E+02  0.88028183735E+02  0.00000000000E+00 0. -1.
        -13    1    3    3    0    0 -0.66485695004E+02  0.66710223036E+01 -0.12128055692E+03  0.13846957668E+03  0.00000000000E+00 0. -1.
         13    1    3    3    0    0  0.67187930943E+01 -0.35247400211E+02 -0.16982420794E+03  0.17357356655E+03  0.00000000000E+00 0.  1.
         21    1    1    2  502  501  0.79445650531E+02 -0.22334368472E+02 -0.71528168756E+02  0.10920949743E+03  0.00000000000E+00 0.  1.
<scales pt_clust_5="13000.00000" pt_clust_6="13000.00000" pt_clust_7="13000.00000" pt_clust_8="13000.00000" pt_clust_9="82.52536"></scales>
<clustering>
<clus scale="   80.433">  5  6 -1 -1</clus>
<clus scale="   82.525">  1  9  2 -1</clus>
<clus scale="   90.776">  7  8 -1 -1</clus>
<clus scale="   91.558">  2  5  1 -1</clus>
<clus scale="   91.558">  2  5  1 -1</clus>
</clustering>
</event>
<event>
 9    2  0.5684583E-005  0.8663066E+02  0.7546771E-02  0.1319109E+00
         -3   -1    0    0    0  501 -0.00000000000E+00  0.00000000000E+00  0.45123074492E+03  0.45123074492E+03  0.00000000000E+00 0.  1.
          4   -1    0    0  502    0  0.00000000000E+00 -0.00000000000E+00 -0.19430316896E+03  0.19430316896E+03  0.00000000000E+00 0. -1.
         24    2    1    2    0    0 -0.28272173979E+02 -0.33365350302E+02 -0.97643725680E+01  0.95188721153E+02  0.83982064995E+02 0.  0.
         23    2    1    2    0    0 -0.11452247400E+02 -0.36498197826E+02 -0.12566470881E+03  0.14984214459E+03  0.72095609034E+02 0.  0.
        -11    1    3    3    0    0  0.27227871721E+02 -0.40483935314E+01 -0.16447488966E+02  0.32066592927E+02  0.00000000000E+00 0.  1.
         12    1    3    3    0    0 -0.55500045700E+02 -0.29316956771E+02  0.66831163984E+01  0.63122128226E+02  0.00000000000E+00 0. -1.
        -13    1    4    4    0    0  0.10506939326E+02 -0.20881185124E+02 -0.22088114816E+01  0.23479746897E+02  0.00000000000E+00 0.  1.
         13    1    4    4    0    0 -0.21959186725E+02 -0.15617012702E+02 -0.12345589733E+03  0.12636239770E+03  0.00000000000E+00 0. -1.
         21    1    1    2  502  501  0.39724421378E+02  0.69863548128E+02  0.39235665733E+03  0.40050304813E+03  0.00000000000E+00 0.  1.
<scales pt_clust_5="13000.00000" pt_clust_6="13000.00000" pt_clust_7="13000.00000" pt_clust_8="13000.00000" pt_clust_9="80.36756"></scales>
<clustering>
<clus scale="   72.096">  7  8 -1 -1</clus>
<clus scale="   80.368">  1  9  2 -1</clus>
<clus scale="   75.164">  2  7  1 -1</clus>
<clus scale="   83.982">  5  6 -1 -1</clus>
<clus scale="   75.164">  2  5  1 -1</clus>
</clustering>
</event>
<event>
 9    2  0.5684583E-005  0.9921777E+02  0.7546771E-02  0.1286489E+00
          2   -1    0    0  502    0  0.00000000000E+00  0.00000000000E+00  0.31096016369E+03  0.31096016369E+03  0.00000000000E+00 0. -1.
         -1   -1    0    0    0  501 -0.00000000000E+00 -0.00000000000E+00 -0.50227337212E+02  0.50227337212E+02  0.00000000000E+00 0.  1.
         23    2    1    2    0    0  0.24547133267E+02  0.47427441305E+01  0.34234113377E+02  0.99328228993E+02  0.89827986633E+02 0.  0.
         24    2    1    2    0    0 -0.46689122098E+02  0.11168469895E+02  0.20985719660E+03  0.22991597101E+03  0.80726091910E+02 0.  0.
        -11    1    4    4    0    0 -0.10075906269E+02  0.41302096079E+02  0.66577475155E+02  0.78993336590E+02  0.00000000000E+00 0.  1.
         12    1    4    4    0    0 -0.36613215830E+02 -0.30133626184E+02  0.14327972145E+03  0.15092263442E+03  0.00000000000E+00 0. -1.
        -13    1    3    3    0    0 -0.18979162127E+02 -0.17061003542E+02  0.42865186473E+02  0.49886978745E+02  0.00000000000E+00 0. -1.
         13    1    3    3    0    0  0.43526295394E+02  0.21803747672E+02 -0.86310730966E+01  0.49441250248E+02  0.00000000000E+00 0.  1.
         21    1    1    2  502  501  0.22141988832E+02 -0.15911214025E+02  0.16641516493E+02  0.31943300900E+02  0.00000000000E+00 0. -1.
<scales pt_clust_5="13000.00000" pt_clust_6="13000.00000" pt_clust_7="13000.00000" pt_clust_8="13000.00000" pt_clust_9="27.26599"></scales>
<clustering>
<clus scale="   27.266">  2  9  1 -1</clus>
<clus scale="   80.726">  5  6 -1 -1</clus>
<clus scale="   89.828">  7  8 -1 -1</clus>
<clus scale="   91.059">  1  5  2 -1</clus>
<clus scale="   91.059">  1  5  2 -1</clus>
</clustering>
</event>
<event>
 9    2  0.5684583E-005  0.1098252E+03  0.7546771E-02  0.1265456E+00
         -1   -1    0    0    0  501 -0.00000000000E+00  0.00000000000E+00  0.11970016443E+03  0.11970016443E+03  0.00000000000E+00 0.  1.
          2   -1    0    0  502    0  0.00000000000E+00 -0.00000000000E+00 -0.57079620142E+03  0.57079620142E+03  0.00000000000E+00 0. -1.
         23    2    1    2    0    0 -0.20627415976E+02 -0.19701574721E+02 -0.10150943382E+02  0.96706878121E+02  0.91845175638E+02 0.  0.
         24    2    1    2    0    0 -0.10056499328E+02  0.64764180873E+02 -0.50161231067E+03  0.51222569454E+03  0.80403480223E+02 0.  0.
        -11    1    4    4    0    0 -0.13584695939E+02  0.18534038373E+02 -0.27436337365E+02  0.35788366129E+02  0.00000000000E+00 0.  1.
         12    1    4    4    0    0  0.35281966111E+01  0.46230142500E+02 -0.47417597330E+03  0.47643732841E+03  0.00000000000E+00 0. -1.
        -13    1    3    3    0    0 -0.33042740172E+02 -0.50342529282E+02 -0.17759258536E+02  0.62782037210E+02  0.00000000000E+00 0.  1.
         13    1    3    3    0    0  0.12415324196E+02  0.30640954561E+02  0.76083151539E+01  0.33924840910E+02  0.00000000000E+00 0. -1.
         21    1    1    2  502  501  0.30683915304E+02 -0.45062606153E+02  0.60667217063E+02  0.81563793180E+02  0.00000000000E+00 0.  1.
<scales pt_clust_5="13000.00000" pt_clust_6="13000.00000" pt_clust_7="13000.00000" pt_clust_8="13000.00000" pt_clust_9="54.51735"></scales>
<clustering>
<clus scale="   54.517">  1  9  2 -1</clus>
<clus scale="   80.403">  5  6 -1 -1</clus>
<clus scale="   91.845">  7  8 -1 -1</clus>
<clus scale="  100.453">  2  5  1 -1</clus>
<clus scale="  100.453">  2  5  1 -1</clus>
</clustering>
</event>
<event>
 9    2  0.5684583E-005  0.1136229E+03  0.7546771E-02  0.1257157E+00
         -1   -1    0    0    0  501 -0.00000000000E+00  0.00000000000E+00  0.11044166369E+03  0.11044166369E+03  0.00000000000E+00 0.  1.
          2   -1    0    0  502    0  0.00000000000E+00 -0.00000000000E+00 -0.24464492212E+03  0.24464492212E+03  0.00000000000E+00 0. -1.
         24    2    1    2    0    0  0.61168400670E+02  0.39576738827E+02  0.41429348340E+01  0.10938323337E+03  0.81483963674E+02 0.  0.
         23    2    1    2    0    0 -0.70220762016E+02 -0.22217888053E+01 -0.16365431416E+03  0.19968337286E+03  0.90304059104E+02 0.  0.
        -11    1    3    3    0    0  0.19632086266E+02 -0.79770669755E+01  0.33588864070E+02  0.39714785637E+02  0.00000000000E+00 0.  1.
         12    1    3    3    0    0  0.41536314404E+02  0.47553805803E+02 -0.29445929236E+02  0.69668447730E+02  0.00000000000E+00 0. -1.
        -11    1    4    4    0    0 -0.80880724494E+02  0.20567788298E+02 -0.94398940405E+02  0.12599954547E+03  0.00000000000E+00 0. -1.
         11    1    4    4    0    0  0.10659962478E+02 -0.22789577103E+02 -0.69255373754E+02  0.73683827387E+02  0.00000000000E+00 0.  1.
         21    1    1    2  502  501  0.90523613459E+01 -0.37354950022E+02  0.25308120902E+02  0.46019979581E+02  0.00000000000E+00 0.  1.
<scales pt_clust_5="13000.00000" pt_clust_6="13000.00000" pt_clust_7="13000.00000" pt_clust_8="13000.00000" pt_clust_9="38.43615"></scales>
<clustering>
<clus scale="   38.436">  1  9  2 -1</clus>
<clus scale="   81.484">  5  6 -1 -1</clus>
<clus scale="   90.304">  7  8 -1 -1</clus>
<clus scale="  106.747">  1  5  2 -1</clus>
<clus scale="  113.623">  2  5  1 -1</clus>
</clustering>
</event>
<event>
 9    2  0.5684583E-005  0.2722755E+03  0.7546771E-02  0.1100391E+00
         -1   -1    0    0    0  501 -0.00000000000E+00  0.00000000000E+00  0.24474584384E+03  0.24474584384E+03  0.00000000000E+00 0.  1.
          2   -1    0    0  502    0  0.00000000000E+00 -0.00000000000E+00 -0.59506489375E+03  0.59506489375E+03  0.00000000000E+00 0. -1.
         23    2    1    2    0    0 -0.13037742717E+03  0.26217350302E+03  0.32181576879E+02  0.30779263088E+03  0.89260464550E+02 0.  0.
         24    2    1    2    0    0  0.94054916210E+02 -0.23082033279E+03 -0.40239994077E+03  0.48007266627E+03  0.80123025834E+02 0.  0.
        -13    1    4    4    0    0  0.18059451326E+02 -0.23205062793E+02 -0.12707202036E+02  0.32032666218E+02  0.00000000000E+00 0.  1.
         14    1    4    4    0    0  0.75995464883E+02 -0.20761527000E+03 -0.38969273874E+03  0.44804000005E+03  0.00000000000E+00 0. -1.
        -11    1    3    3    0    0 -0.11424185548E+03  0.16675407420E+03  0.52648501312E+02  0.20887792486E+03  0.00000000000E+00 0.  1.
         11    1    3    3    0    0 -0.16135571692E+02  0.95419428819E+02 -0.20466924433E+02  0.98914706013E+02  0.00000000000E+00 0. -1.
         21    1    1    2  502  501  0.36322510960E+02 -0.31353170224E+02  0.19899313989E+02  0.51945440443E+02  0.00000000000E+00 0.  1.
<scales pt_clust_5="13000.00000" pt_clust_6="13000.00000" pt_clust_7="13000.00000" pt_clust_8="13000.00000" pt_clust_9="47.98277"></scales>
<clustering>
<clus scale="   47.983">  1  9  2 -1</clus>
<clus scale="   80.123">  5  6 -1 -1</clus>
<clus scale="   89.260">  7  8 -1 -1</clus>
<clus scale="  269.418">  2  5  1 -1</clus>
<clus scale="  269.418">  2  5  1 -1</clus>
</clustering>
</event>
<event>
 9    2  0.5684583E-005  0.2501120E+03  0.7546771E-02  0.1113771E+00
         -1   -1    0    0    0  501 -0.00000000000E+00  0.00000000000E+00  0.30588254884E+03  0.30588254884E+03  0.00000000000E+00 0.  1.
          2   -1    0    0  502    0  0.00000000000E+00 -0.00000000000E+00 -0.49465442716E+03  0.49465442716E+03  0.00000000000E+00 0. -1.
         24    2    1    2    0    0 -0.27000831330E+03  0.28190865520E+02  0.39800816575E+02  0.28663401182E+03  0.82920067422E+02 0.  0.
         23    2    1    2    0    0  0.21925614224E+03  0.51467549116E+02 -0.30651752427E+03  0.39144218549E+03  0.92476090829E+02 0.  0.
        -13    1    3    3    0    0 -0.27484184869E+03  0.24731910044E+02  0.43888091864E+02  0.27942060371E+03  0.00000000000E+00 0.  1.
         14    1    3    3    0    0  0.48335353906E+01  0.34589554759E+01 -0.40872752890E+01  0.72134081157E+01  0.00000000000E+00 0. -1.
        -13    1    4    4    0    0  0.33244142977E+02  0.46769413098E+02 -0.73789903439E+02  0.93474600258E+02  0.00000000000E+00 0.  1.
         13    1    4    4    0    0  0.18601199926E+03  0.46981360180E+01 -0.23272762083E+03  0.29796758523E+03  0.00000000000E+00 0. -1.
         21    1    1    2  502  501  0.50752171067E+02 -0.79658414636E+02  0.77944829374E+02  0.12246077869E+03  0.00000000000E+00 0.  1.
<scales pt_clust_5="13000.00000" pt_clust_6="13000.00000" pt_clust_7="13000.00000" pt_clust_8="13000.00000" pt_clust_9="94.45235"></scales>
<clustering>
<clus scale="   82.920">  5  6 -1 -1</clus>
<clus scale="   92.476">  7  8 -1 -1</clus>
<clus scale="   94.452">  1  9  2 -1</clus>
<clus scale="  246.739">  1  5  2 -1</clus>
<clus scale="  250.112">  2  5  1 -1</clus>
</clustering>
</event>
<event>
 9    2  0.5684583E-005  0.1147598E+03  0.7546771E-02  0.1255387E+00
         -1   -1    0    0    0  501 -0.00000000000E+00  0.00000000000E+00  0.13441594837E+03  0.13441594837E+03  0.00000000000E+00 0.  1.
          2   -1    0    0  502    0  0.00000000000E+00 -0.00000000000E+00 -0.43307028098E+03  0.43307028098E+03  0.00000000000E+00 0. -1.
         23    2    1    2    0    0  0.79789320337E+02 -0.27730447266E+02  0.18456092492E+02  0.12534655976E+03  0.90751415125E+02 0.  0.
         24    2    1    2    0    0 -0.67991635818E+02  0.11010263751E+02 -0.37022838676E+03  0.38521631985E+03  0.81107744803E+02 0.  0.
        -11    1    4    4    0    0 -0.20461235341E+02  0.64663999475E+01 -0.13599158775E+02  0.25404991623E+02  0.00000000000E+00 0.  1.
         12    1    4    4    0    0 -0.47530400476E+02  0.45438638036E+01 -0.35662922798E+03  0.35981132822E+03  0.00000000000E+00 0. -1.
        -13    1    3    3    0    0  0.17664539039E+02 -0.27017600967E+02 -0.31892837047E+02  0.45377745166E+02  0.00000000000E+00 0. -1.
         13    1    3    3    0    0  0.62124781297E+02 -0.71284629879E+00  0.50348929539E+02  0.79968814590E+02  0.00000000000E+00 0.  1.
         21    1    1    2  502  501 -0.11797684519E+02  0.16720183515E+02  0.53117961652E+02  0.56923349750E+02  0.00000000000E+00 0.  1.
<scales pt_clust_5="13000.00000" pt_clust_6="13000.00000" pt_clust_7="13000.00000" pt_clust_8="13000.00000" pt_clust_9="20.46338"></scales>
<clustering>
<clus scale="   20.463">  1  9  2 -1</clus>
<clus scale="   81.108">  5  6 -1 -1</clus>
<clus scale="   90.751">  7  8 -1 -1</clus>
<clus scale="  107.296">  2  5  1 -1</clus>
<clus scale="  107.296">  2  5  1 -1</clus>
</clustering>
</event>
<event>
 9    2  0.5684583E-005  0.9903152E+02  0.7546771E-02  0.1289605E+00
         -1   -1    0    0    0  501 -0.00000000000E+00  0.00000000000E+00  0.19398554938E+03  0.19398554938E+03  0.00000000000E+00 0.  1.
          2   -1    0    0  502    0  0.00000000000E+00 -0.00000000000E+00 -0.65129225986E+02  0.65129225986E+02  0.00000000000E+00 0. -1.
         23    2    1    2    0    0 -0.17041334370E+02 -0.17085862721E+02  0.72577305542E+02  0.12002002662E+03  0.92493284774E+02 0.  0.
         24    2    1    2    0    0  0.45280385406E+02  0.21796492445E+01  0.24715713079E+02  0.94196180706E+02  0.78784451596E+02 0.  0.
        -13    1    4    4    0    0  0.25628733466E+02 -0.29526099413E+02  0.38074998647E+02  0.54574060208E+02  0.00000000000E+00 0.  1.
         14    1    4    4    0    0  0.19651651939E+02  0.31705748657E+02 -0.13359285568E+02  0.39622120498E+02  0.00000000000E+00 0. -1.
        -13    1    3    3    0    0 -0.25112962965E+01 -0.41552088551E+02  0.80375079636E+02  0.90515391501E+02  0.00000000000E+00 0.  1.
         13    1    3    3    0    0 -0.14530038074E+02  0.24466225830E+02 -0.77977740937E+01  0.29504635120E+02  0.00000000000E+00 0. -1.
         21    1    1    2  502  501 -0.28239051035E+02  0.14906213477E+02  0.31563304768E+02  0.44898568034E+02  0.00000000000E+00 0. -1.
<scales pt_clust_5="13000.00000" pt_clust_6="13000.00000" pt_clust_7="13000.00000" pt_clust_8="13000.00000" pt_clust_9="31.93179"></scales>
<clustering>
<clus scale="   31.932">  1  9  2 -1</clus>
<clus scale="   78.784">  5  6 -1 -1</clus>
<clus scale="   86.367">  2  5  1 -1</clus>
<clus scale="   92.493">  7  8 -1 -1</clus>
<clus scale="   86.367">  2  5  1 -1</clus>
</clustering>
</event>
<event>
 9    2  0.5684583E-005  0.9496431E+02  0.7546771E-02  0.1296350E+00
          2   -1    0    0  502    0  0.00000000000E+00  0.00000000000E+00  0.14852693477E+04  0.14852693477E+04  0.00000000000E+00 0. -1.
         -1   -1    0    0    0  501 -0.00000000000E+00 -0.00000000000E+00 -0.38020494284E+02  0.38020494284E+02  0.00000000000E+00 0.  1.
         23    2    1    2    0    0  0.31408860160E+02  0.18466977254E+02  0.81632776013E+02  0.11446591275E+03  0.71491183490E+02 0.  0.
         24    2    1    2    0    0 -0.30553357233E+02 -0.39493322899E+02  0.13800117862E+04  0.13833273506E+04  0.81662712316E+02 0.  0.
        -13    1    4    4    0    0 -0.19749934654E+02 -0.12843076293E+02  0.91164137049E+02  0.94158931660E+02  0.00000000000E+00 0.  1.
         14    1    4    4    0    0 -0.10803422579E+02 -0.26650246607E+02  0.12888476491E+04  0.12891684189E+04  0.00000000000E+00 0. -1.
        -13    1    3    3    0    0  0.37000485895E+02 -0.93246873952E+01  0.76733287077E+02  0.85697042523E+02  0.00000000000E+00 0. -1.
         13    1    3    3    0    0 -0.55916257354E+01  0.27791664649E+02  0.48994889357E+01  0.28768870228E+02  0.00000000000E+00 0.  1.
         21    1    1    2  502  501 -0.85550292656E+00  0.21026345645E+02 -0.14395708740E+02  0.25496578723E+02  0.00000000000E+00 0.  1.
<scales pt_clust_5="13000.00000" pt_clust_6="13000.00000" pt_clust_7="13000.00000" pt_clust_8="13000.00000" pt_clust_9="21.04374"></scales>
<clustering>
<clus scale="   21.044">  2  9  1 -1</clus>
<clus scale="   71.491">  7  8 -1 -1</clus>
<clus scale="   81.663">  5  6 -1 -1</clus>
<clus scale="   86.374">  2  7  1 -1</clus>
<clus scale="   94.964">  1  5  2 -1</clus>
</clustering>
</event>
<event>
 9    2  0.5684583E-005  0.1145467E+03  0.7546771E-02  0.1256035E+00
         -1   -1    0    0    0  501 -0.00000000000E+00  0.00000000000E+00  0.16781455006E+03  0.16781455006E+03  0.00000000000E+00 0.  1.
          2   -1    0    0  502    0  0.00000000000E+00 -0.00000000000E+00 -0.34528438021E+03  0.34528438021E+03  0.00000000000E+00 0. -1.
         24    2    1    2    0    0 -0.38308910557E+02  0.24511711008E+02  0.55996044928E+02  0.10783747734E+03  0.80155897263E+02 0.  0.
         23    2    1    2    0    0  0.69667012052E+02 -0.23619044938E+02 -0.30532449921E+03  0.32685361375E+03  0.90547684420E+02 0.  0.
        -13    1    3    3    0    0  0.15094373037E+02 -0.16523317244E+02  0.25436340884E+02  0.33880194033E+02  0.00000000000E+00 0.  1.
         14    1    3    3    0    0 -0.53403283594E+02  0.41035028252E+02  0.30559704044E+02  0.73957283303E+02  0.00000000000E+00 0. -1.
        -11    1    4    4    0    0  0.76066200032E+02  0.14145933135E+02 -0.22336211586E+03  0.23638275955E+03  0.00000000000E+00 0. -1.
         11    1    4    4    0    0 -0.63991879795E+01 -0.37764978074E+02 -0.81962383351E+02  0.90470854204E+02  0.00000000000E+00 0.  1.
         21    1    1    2  502  501 -0.31358101495E+02 -0.89266606960E+00  0.71858624138E+02  0.78407839182E+02  0.00000000000E+00 0. -1.
<scales pt_clust_5="13000.00000" pt_clust_6="13000.00000" pt_clust_7="13000.00000" pt_clust_8="13000.00000" pt_clust_9="31.37080"></scales>
<clustering>
<clus scale="   31.371">  1  9  2 -1</clus>
<clus scale="   80.156">  5  6 -1 -1</clus>
<clus scale="   90.548">  7  8 -1 -1</clus>
<clus scale="  106.522">  1  5  2 -1</clus>
<clus scale="  114.547">  2  5  1 -1</clus>
</clustering>
</event>
<event>
 9    2  0.5684583E-005  0.1048023E+03  0.7546771E-02  0.1274990E+00
         -1   -1    0    0    0  501 -0.00000000000E+00  0.00000000000E+00  0.15929891391E+03  0.15929891391E+03  0.00000000000E+00 0.  1.
          2   -1    0    0  502    0  0.00000000000E+00 -0.00000000000E+00 -0.45213243529E+03  0.45213243529E+03  0.00000000000E+00 0. -1.
         24    2    1    2    0    0  0.45589976041E+02  0.35227492831E+01 -0.16599774003E+03  0.19001232724E+03  0.80365285604E+02 0.  0.
         23    2    1    2    0    0 -0.54703679594E+02 -0.26833169103E+02 -0.26207007252E+03  0.28388812079E+03  0.90549603478E+02 0.  0.
        -11    1    3    3    0    0 -0.14552605230E+01 -0.31092946970E+02 -0.36621884244E+02  0.48062995538E+02  0.00000000000E+00 0.  1.
         12    1    3    3    0    0  0.47045236564E+02  0.34615696253E+02 -0.12937585579E+03  0.14194933170E+03  0.00000000000E+00 0. -1.
        -11    1    4    4    0    0 -0.28898144267E+02 -0.54365524793E+02 -0.21454070891E+03  0.22320042295E+03  0.00000000000E+00 0.  1.
         11    1    4    4    0    0 -0.25805535327E+02  0.27532355690E+02 -0.47529363614E+02  0.60687697838E+02  0.00000000000E+00 0. -1.
         21    1    1    2  502  501  0.91137035532E+01  0.23310419820E+02  0.13523429118E+03  0.13753090116E+03  0.00000000000E+00 0.  1.
<scales pt_clust_5="13000.00000" pt_clust_6="13000.00000" pt_clust_7="13000.00000" pt_clust_8="13000.00000" pt_clust_9="25.02869"></scales>
<clustering>
<clus scale="   25.029">  1  9  2 -1</clus>
<clus scale="   80.365">  5  6 -1 -1</clus>
<clus scale="   90.550">  7  8 -1 -1</clus>
<clus scale="   96.140">  1  5  2 -1</clus>
<clus scale="  104.802">  2  5  1 -1</clus>
</clustering>
</event>
<event>
 9    2  0.5684583E-005  0.9556430E+02  0.7546771E-02  0.1300270E+00
          2   -1    0    0  502    0  0.00000000000E+00  0.00000000000E+00  0.51296324774E+03  0.51296324774E+03  0.00000000000E+00 0. -1.
         -1   -1    0    0    0  501 -0.00000000000E+00 -0.00000000000E+00 -0.36037492302E+02  0.36037492302E+02  0.00000000000E+00 0.  1.
         24    2    1    2    0    0 -0.30192493396E+02 -0.31772891478E+01  0.94073001039E+02  0.12436460817E+03  0.75466180621E+02 0.  0.
         23    2    1    2    0    0 -0.12224849780E+02  0.31598367054E+02  0.35057445401E+03  0.36423019385E+03  0.92807772089E+02 0.  0.
        -13    1    3    3    0    0 -0.50045762337E+02 -0.17731303931E+02  0.45554140311E+02  0.69958253026E+02  0.00000000000E+00 0.  1.
         14    1    3    3    0    0  0.19853268941E+02  0.14554014783E+02  0.48518860728E+02  0.54406355146E+02  0.00000000000E+00 0. -1.
        -11    1    4    4    0    0  0.26611631862E+02  0.47701708600E+02  0.23445900720E+03  0.24073773699E+03  0.00000000000E+00 0. -1.
         11    1    4    4    0    0 -0.38836481641E+02 -0.16103341547E+02  0.11611544681E+03  0.12349245687E+03  0.00000000000E+00 0.  1.
         21    1    1    2  502  501  0.42417343175E+02 -0.28421077906E+02  0.32278300391E+02  0.60405938015E+02  0.00000000000E+00 0.  1.
<scales pt_clust_5="13000.00000" pt_clust_6="13000.00000" pt_clust_7="13000.00000" pt_clust_8="13000.00000" pt_clust_9="51.05868"></scales>
<clustering>
<clus scale="   51.059">  2  9  1 -1</clus>
<clus scale="   75.466">  5  6 -1 -1</clus>
<clus scale="   78.831">  2  5  1 -1</clus>
<clus scale="   92.808">  7  8 -1 -1</clus>
<clus scale="   95.564">  1  5  2 -1</clus>
</clustering>
</event>
<event>
 9    2  0.5684583E-005  0.1214422E+03  0.7546771E-02  0.1243590E+00
         -3   -1    0    0    0  501 -0.00000000000E+00  0.00000000000E+00  0.75513330269E+02  0.75513330269E+02  0.00000000000E+00 0.  1.
          4   -1    0    0  502    0  0.00000000000E+00 -0.00000000000E+00 -0.10853232209E+04  0.10853232209E+04  0.00000000000E+00 0. -1.
         23    2    1    2    0    0 -0.16670718049E+02 -0.36260496966E+02  0.25154719243E+02  0.10314394815E+03  0.91723375747E+02 0.  0.
         24    2    1    2    0    0  0.44222632457E+02  0.68721709957E+02 -0.98596467927E+03  0.99277857114E+03  0.82490168503E+02 0.  0.
        -13    1    4    4    0    0  0.42320677212E+02  0.38285656396E+02 -0.26070812231E+03  0.26688116503E+03  0.00000000000E+00 0.  1.
         14    1    4    4    0    0  0.19019552447E+01  0.30436053562E+02 -0.72525655696E+03  0.72589740611E+03  0.00000000000E+00 0. -1.
        -11    1    3    3    0    0 -0.50086637579E+02 -0.41643430267E+01  0.26445772803E+02  0.56792533981E+02  0.00000000000E+00 0.  1.
         11    1    3    3    0    0  0.33415919530E+02 -0.32096153939E+02 -0.12910535604E+01  0.46351414164E+02  0.00000000000E+00 0. -1.
         21    1    1    2  502  501 -0.27551914408E+02 -0.32461212991E+02 -0.48999930595E+02  0.64914031878E+02  0.00000000000E+00 0.  1.
<scales pt_clust_5="13000.00000" pt_clust_6="13000.00000" pt_clust_7="13000.00000" pt_clust_8="13000.00000" pt_clust_9="42.57744"></scales>
<clustering>
<clus scale="   42.577">  1  9  2 -1</clus>
<clus scale="   82.490">  5  6 -1 -1</clus>
<clus scale="   91.723">  7  8 -1 -1</clus>
<clus scale="  114.628">  2  5  1 -1</clus>
<clus scale="  114.628">  2  5  1 -1</clus>
</clustering>
</event>
<event>
 9    2  0.5684583E-005  0.2913905E+03  0.7546771E-02  0.1122940E+00
          2   -1    0    0  502    0  0.00000000000E+00  0.00000000000E+00  0.95252956303E+03  0.95252956303E+03  0.00000000000E+00 0. -1.
         -1   -1    0    0    0  501 -0.00000000000E+00 -0.00000000000E+00 -0.16334440922E+03  0.16334440922E+03  0.00000000000E+00 0.  1.
         23    2    1    2    0    0  0.18902572536E+03 -0.19231266685E+03  0.14833525762E+03  0.32074758344E+03  0.90337018727E+02 0.  0.
         24    2    1    2    0    0 -0.60166214741E+02 -0.74222863079E+02  0.38288260828E+03  0.40245211690E+03  0.78991188594E+02 0.  0.
        -13    1    4    4    0    0 -0.99820140757E+01 -0.34705823692E+02  0.40925837998E+02  0.54580756857E+02  0.00000000000E+00 0.  1.
         14    1    4    4    0    0 -0.50184200665E+02 -0.39517039387E+02  0.34195677028E+03  0.34787136004E+03  0.00000000000E+00 0. -1.
        -13    1    3    3    0    0  0.13179792464E+03 -0.13472843579E+03  0.14787589591E+03  0.23956152642E+03  0.00000000000E+00 0. -1.
         13    1    3    3    0    0  0.57227800722E+02 -0.57584231052E+02  0.45936171192E+00  0.81186057021E+02  0.00000000000E+00 0.  1.
         21    1    1    2  502  501 -0.12885951062E+03  0.26653552992E+03  0.25796728791E+03  0.39267427191E+03  0.00000000000E+00 0.  1.
<scales pt_clust_5="13000.00000" pt_clust_6="13000.00000" pt_clust_7="13000.00000" pt_clust_8="13000.00000" pt_clust_9="277.03370"></scales>
<clustering>
<clus scale="   78.991">  5  6 -1 -1</clus>
<clus scale="   90.337">  7  8 -1 -1</clus>
<clus scale="  123.970">  1  5  2 -1</clus>
<clus scale="  277.034">  1  9  2 -1</clus>
<clus scale="  123.970">  1  5  2 -1</clus>
</clustering>
</event>
<event>
 9    2  0.5684583E-005  0.1127344E+03  0.7546771E-02  0.1259554E+00
          2   -1    0    0  502    0  0.00000000000E+00  0.00000000000E+00  0.12441715336E+04  0.12441715336E+04  0.00000000000E+00 0. -1.
         -1   -1    0    0    0  501 -0.00000000000E+00 -0.00000000000E+00 -0.20186126018E+02  0.20186126018E+02  0.00000000000E+00 0.  1.
         23    2    1    2    0    0 -0.49908173007E+01  0.29238110028E+02  0.20455636261E+03  0.22590477772E+03  0.91158585852E+02 0.  0.
         24    2    1    2    0    0 -0.17895887495E+02 -0.76889044501E+02  0.90970178620E+03  0.91665598486E+03  0.80428022567E+02 0.  0.
        -13    1    4    4    0    0 -0.23585786115E+01 -0.44773082886E+02  0.16161110914E+03  0.16771506325E+03  0.00000000000E+00 0.  1.
         14    1    4    4    0    0 -0.15537308883E+02 -0.32115961615E+02  0.74809067706E+03  0.74894092161E+03  0.00000000000E+00 0. -1.
        -11    1    3    3    0    0  0.13861098019E+02  0.58829909133E+02  0.13833800650E+03  0.15096520224E+03  0.00000000000E+00 0.  1.
         11    1    3    3    0    0 -0.18851915319E+02 -0.29591799105E+02  0.66218356117E+02  0.74939575474E+02  0.00000000000E+00 0. -1.
         21    1    1    2  502  501  0.22886704795E+02  0.47650934473E+02  0.10972725882E+03  0.12179689709E+03  0.00000000000E+00 0.  1.
<scales pt_clust_5="13000.00000" pt_clust_6="13000.00000" pt_clust_7="13000.00000" pt_clust_8="13000.00000" pt_clust_9="52.86221"></scales>
<clustering>
<clus scale="   52.862">  2  9  1 -1</clus>
<clus scale="   80.428">  5  6 -1 -1</clus>
<clus scale="   91.159">  7  8 -1 -1</clus>
<clus scale="  104.249">  1  5  2 -1</clus>
<clus scale="  104.249">  1  5  2 -1</clus>
</clustering>
</event>
<event>
 9    2  0.5684583E-005  0.2054171E+03  0.7546771E-02  0.1169176E+00
         -1   -1    0    0    0  501 -0.00000000000E+00  0.00000000000E+00  0.22736043328E+03  0.22736043328E+03  0.00000000000E+00 0.  1.
          2   -1    0    0  502    0  0.00000000000E+00 -0.00000000000E+00 -0.30747174738E+03  0.30747174738E+03  0.00000000000E+00 0. -1.
         23    2    1    2    0    0  0.17406179957E+03  0.11702909955E+03  0.46198647016E+02  0.23457692948E+03  0.94332924495E+02 0.  0.
         24    2    1    2    0    0 -0.83083388003E+02  0.81355320199E+01 -0.61507065198E+02  0.13249747436E+03  0.82482879423E+02 0.  0.
        -11    1    4    4    0    0 -0.73010985393E+01 -0.28361490081E+02 -0.31952567700E+02  0.43343358685E+02  0.00000000000E+00 0.  1.
         12    1    4    4    0    0 -0.75782289464E+02  0.36497022101E+02 -0.29554497498E+02  0.89154115671E+02  0.00000000000E+00 0. -1.
        -11    1    3    3    0    0  0.14755014557E+03  0.49132721991E+02  0.44142829965E+02  0.16165908346E+03  0.00000000000E+00 0.  1.
         11    1    3    3    0    0  0.26511654002E+02  0.67896377558E+02  0.20558170514E+01  0.72917846012E+02  0.00000000000E+00 0. -1.
         21    1    1    2  502  501 -0.90978411571E+02 -0.12516463157E+03 -0.64802895919E+02  0.16775777683E+03  0.00000000000E+00 0. -1.
<scales pt_clust_5="13000.00000" pt_clust_6="13000.00000" pt_clust_7="13000.00000" pt_clust_8="13000.00000" pt_clust_9="182.47593"></scales>
<clustering>
<clus scale="   82.483">  5  6 -1 -1</clus>
<clus scale="   94.333">  7  8 -1 -1</clus>
<clus scale="  117.356">  2  5  1 -1</clus>
<clus scale="  182.476">  2  9  1 -1</clus>
<clus scale="  117.356">  2  5  1 -1</clus>
</clustering>
</event>
<event>
 9    2  0.9311725E-005  0.1037479E+03  0.7546771E-02  0.1278479E+00
          2   -1    0    0  502    0  0.00000000000E+00  0.00000000000E+00  0.58618585431E+03  0.58618585431E+03  0.00000000000E+00 0. -1.
         -1   -1    0    0    0  501 -0.00000000000E+00 -0.00000000000E+00 -0.11285255953E+03  0.11285255953E+03  0.00000000000E+00 0.  1.
         24    2    1    2    0    0  0.30626916828E+02 -0.51626906316E+02 -0.52928111633E+02  0.11253779143E+03  0.79120313500E+02 0.  0.
         23    2    1    2    0    0 -0.11263870204E+02  0.46419651324E+02  0.54755617673E+03  0.55725151435E+03  0.91814077202E+02 0.  0.
        -11    1    3    3    0    0  0.42899091317E+02 -0.34172758459E+02 -0.67295522647E+02  0.86814727005E+02  0.00000000000E+00 0.  1.
         12    1    3    3    0    0 -0.12272174489E+02 -0.17454147857E+02  0.14367411014E+02  0.25723064424E+02  0.00000000000E+00 0. -1.
        -13    1    4    4    0    0  0.35791451627E+02 -0.60342364468E+00  0.15342052563E+03  0.15754126385E+03  0.00000000000E+00 0.  1.
         13    1    4    4    0    0 -0.47055321831E+02  0.47023074969E+02  0.39413565110E+03  0.39971025051E+03  0.00000000000E+00 0. -1.
         21    1    1    2  502  501 -0.19363046624E+02  0.52072549924E+01 -0.21294770325E+02  0.29249108060E+02  0.00000000000E+00 0. -1.
<scales pt_clust_5="13000.00000" pt_clust_6="13000.00000" pt_clust_7="13000.00000" pt_clust_8="13000.00000" pt_clust_9="20.05101"></scales>
<clustering>
<clus scale="   20.051">  2  9  1 -1</clus>
<clus scale="   79.120">  5  6 -1 -1</clus>
<clus scale="   91.814">  7  8 -1 -1</clus>
<clus scale="   92.703">  2  5  1 -1</clus>
<clus scale="  103.748">  1  5  2 -1</clus>
</clustering>
</event>
<event>
 9    2  0.5684583E-005  0.1442948E+03  0.7546771E-02  0.1218036E+00
         -1   -1    0    0    0  501 -0.00000000000E+00  0.00000000000E+00  0.10425564819E+03  0.10425564819E+03  0.00000000000E+00 0.  1.
          2   -1    0    0  502    0  0.00000000000E+00 -0.00000000000E+00 -0.97695823347E+03  0.97695823347E+03  0.00000000000E+00 0. -1.
         23    2    1    2    0    0  0.43275503420E+02 -0.53585866359E+02 -0.51538814269E+01  0.11586526592E+03  0.93026786918E+02 0.  0.
         24    2    1    2    0    0 -0.11013078064E+03 -0.48439853544E+02 -0.82244224083E+03  0.83529682367E+03  0.82670042187E+02 0.  0.
        -11    1    4    4    0    0 -0.34236218546E+02 -0.30528508149E+02 -0.11882156703E+03  0.12736825845E+03  0.00000000000E+00 0.  1.
         12    1    4    4    0    0 -0.75894562092E+02 -0.17911345395E+02 -0.70362067380E+03  0.70792856521E+03  0.00000000000E+00 0. -1.
        -11    1    3    3    0    0  0.32801433407E+02 -0.76677369012E+02  0.13370064637E+02  0.84463670182E+02  0.00000000000E+00 0.  1.
         11    1    3    3    0    0  0.10474070013E+02  0.23091502654E+02 -0.18523946063E+02  0.31401595743E+02  0.00000000000E+00 0. -1.
         21    1    1    2  502  501  0.66855277218E+02  0.10202571990E+03 -0.45106463032E+02  0.13005179207E+03  0.00000000000E+00 0. -1.
<scales pt_clust_5="13000.00000" pt_clust_6="13000.00000" pt_clust_7="13000.00000" pt_clust_8="13000.00000" pt_clust_9="118.26520"></scales>
<clustering>
<clus scale="   82.670">  5  6 -1 -1</clus>
<clus scale="   93.027">  7  8 -1 -1</clus>
<clus scale="  115.751">  1  7  2 -1</clus>
<clus scale="  118.265">  1  9  2 -1</clus>
<clus scale="  144.295">  2  5  1 -1</clus>
</clustering>
</event>
<event>
 9    2  0.5684583E-005  0.1176686E+03  0.7546771E-02  0.1250744E+00
          2   -1    0    0  502    0  0.00000000000E+00  0.00000000000E+00  0.17864880148E+04  0.17864880148E+04  0.00000000000E+00 0. -1.
         -1   -1    0    0    0  501 -0.00000000000E+00 -0.00000000000E+00 -0.13144323249E+02  0.13144323249E+02  0.00000000000E+00 0.  1.
         23    2    1    2    0    0  0.32996320088E+02 -0.53057797627E+02  0.30862348931E+03  0.32782367824E+03  0.91192208169E+02 0.  0.
         24    2    1    2    0    0 -0.26098416833E+02  0.72873467032E+02  0.13819310881E+04  0.13864021071E+04  0.79909954288E+02 0.  0.
        -13    1    4    4    0    0  0.21303640640E+01  0.27757609621E+02  0.11383373262E+03  0.11718848930E+03  0.00000000000E+00 0.  1.
         14    1    4    4    0    0 -0.28228780897E+02  0.45115857411E+02  0.12680973555E+04  0.12692136178E+04  0.00000000000E+00 0. -1.
        -11    1    3    3    0    0 -0.27434574893E+02 -0.26519874912E+02  0.64556217327E+02  0.74989765039E+02  0.00000000000E+00 0. -1.
         11    1    3    3    0    0  0.60430894982E+02 -0.26537922716E+02  0.24406727198E+03  0.25283391320E+03  0.00000000000E+00 0.  1.
         21    1    1    2  502  501 -0.68979032554E+01 -0.19815669405E+02  0.82789114083E+02  0.85406552641E+02  0.00000000000E+00 0.  1.
<scales pt_clust_5="13000.00000" pt_clust_6="13000.00000" pt_clust_7="13000.00000" pt_clust_8="13000.00000" pt_clust_9="20.98194"></scales>
<clustering>
<clus scale="   20.982">  2  9  1 -1</clus>
<clus scale="   79.910">  5  6 -1 -1</clus>
<clus scale="   91.192">  7  8 -1 -1</clus>
<clus scale="  109.158">  1  5  2 -1</clus>
<clus scale="  109.158">  1  5  2 -1</clus>
</clustering>
</event>
<event>
 9    2  0.5684583E-005  0.1223556E+03  0.7546771E-02  0.1243376E+00
         -1   -1    0    0    0  501 -0.00000000000E+00  0.00000000000E+00  0.53456974803E+02  0.53456974803E+02  0.00000000000E+00 0.  1.
          2   -1    0    0  502    0  0.00000000000E+00 -0.00000000000E+00 -0.69116207131E+03  0.69116207131E+03  0.00000000000E+00 0. -1.
         24    2    1    2    0    0  0.11181952183E+03  0.19379313492E+01 -0.16801661375E+03  0.21749077300E+03  0.81026494466E+02 0.  0.
         23    2    1    2    0    0 -0.37179222550E+02 -0.71276814489E+02 -0.34236793297E+03  0.36406516450E+03  0.94153935675E+02 0.  0.
        -13    1    3    3    0    0  0.46837201542E+02  0.23610768443E+02 -0.23327390643E+02  0.57405217436E+02  0.00000000000E+00 0.  1.
         14    1    3    3    0    0  0.64982320288E+02 -0.21672837094E+02 -0.14468922311E+03  0.16008555557E+03  0.00000000000E+00 0. -1.
        -13    1    4    4    0    0 -0.53521139010E+02 -0.57820717654E+02 -0.33057162799E+03  0.33983135368E+03  0.00000000000E+00 0.  1.
         13    1    4    4    0    0  0.16341916460E+02 -0.13456096834E+02 -0.11796304975E+02  0.24233810816E+02  0.00000000000E+00 0. -1.
         21    1    1    2  502  501 -0.74640299279E+02  0.69338883140E+02 -0.12732054979E+03  0.16306310861E+03  0.00000000000E+00 0.  1.
<scales pt_clust_5="13000.00000" pt_clust_6="13000.00000" pt_clust_7="13000.00000" pt_clust_8="13000.00000" pt_clust_9="101.87765"></scales>
<clustering>
<clus scale="   81.026">  5  6 -1 -1</clus>
<clus scale="   94.154">  7  8 -1 -1</clus>
<clus scale="  101.878">  1  9  2 -1</clus>
<clus scale="  112.567">  1  5  2 -1</clus>
<clus scale="  122.356">  2  5  1 -1</clus>
</clustering>
</event>
<event>
 9    2  0.5684583E-005  0.9433757E+02  0.7546771E-02  0.1298955E+00
          2   -1    0    0  502    0  0.00000000000E+00  0.00000000000E+00  0.49465433665E+03  0.49465433665E+03  0.00000000000E+00 0. -1.
         -1   -1    0    0    0  501 -0.00000000000E+00 -0.00000000000E+00 -0.31013998303E+02  0.31013998303E+02  0.00000000000E+00 0.  1.
         23    2    1    2    0    0  0.23142098475E+02  0.30966059271E+02  0.89798517656E+02  0.13370343271E+03  0.91205156630E+02 0.  0.
         24    2    1    2    0    0 -0.22733884787E+02 -0.21536229095E+01  0.32175230524E+03  0.33243641539E+03  0.80423608101E+02 0.  0.
        -13    1    4    4    0    0 -0.21304991784E+02  0.17833161067E+02  0.33648012099E+02  0.43636143583E+02  0.00000000000E+00 0.  1.
         14    1    4    4    0    0 -0.14288930032E+01 -0.19986783976E+02  0.28810429314E+03  0.28880027180E+03  0.00000000000E+00 0. -1.
        -13    1    3    3    0    0 -0.12192209057E+02  0.15994442275E+02  0.93042502677E+02  0.95191278223E+02  0.00000000000E+00 0. -1.
         13    1    3    3    0    0  0.35334307532E+02  0.14971616996E+02 -0.32439850205E+01  0.38512154485E+02  0.00000000000E+00 0.  1.
         21    1    1    2  502  501 -0.40821368768E+00 -0.28812436361E+02  0.52089515453E+02  0.59528486859E+02  0.00000000000E+00 0. -1.
<scales pt_clust_5="13000.00000" pt_clust_6="13000.00000" pt_clust_7="13000.00000" pt_clust_8="13000.00000" pt_clust_9="28.81533"></scales>
<clustering>
<clus scale="   28.815">  2  9  1 -1</clus>
<clus scale="   80.424">  5  6 -1 -1</clus>
<clus scale="   83.959">  1  5  2 -1</clus>
<clus scale="   91.205">  7  8 -1 -1</clus>
<clus scale="   83.959">  1  5  2 -1</clus>
</clustering>
</event>
<event>
 9    2  0.5684583E-005  0.2133131E+03  0.7546771E-02  0.1140057E+00
          2   -1    0    0  502    0  0.00000000000E+00  0.00000000000E+00  0.60072331074E+03  0.60072331074E+03  0.00000000000E+00 0. -1.
         -1   -1    0    0    0  501 -0.00000000000E+00 -0.00000000000E+00 -0.22216493314E+03  0.22216493314E+03  0.00000000000E+00 0.  1.
         23    2    1    2    0    0 -0.83243140570E+02  0.13566462867E+03 -0.79723064722E+02  0.20079479783E+03  0.92889568108E+02 0.  0.
         24    2    1    2    0    0  0.10542502630E+03 -0.16638348680E+03  0.51318240843E+03  0.55538662196E+03  0.79373891659E+02 0.  0.
        -13    1    4    4    0    0 -0.11074759395E+02 -0.31355432503E+02  0.99183552185E+02  0.10460970542E+03  0.00000000000E+00 0.  1.
         14    1    4    4    0    0  0.11649978570E+03 -0.13502805430E+03  0.41399885625E+03  0.45077691654E+03  0.00000000000E+00 0. -1.
        -11    1    3    3    0    0 -0.84425534715E+01  0.67954060356E+02  0.55365268560E+01  0.68699957479E+02  0.00000000000E+00 0. -1.
         11    1    3    3    0    0 -0.74800587098E+02  0.67710568314E+02 -0.85259591578E+02  0.13209484035E+03  0.00000000000E+00 0.  1.
         21    1    1    2  502  501 -0.22181885735E+02  0.30718858131E+02 -0.54900966112E+02  0.66706824086E+02  0.00000000000E+00 0. -1.
<scales pt_clust_5="13000.00000" pt_clust_6="13000.00000" pt_clust_7="13000.00000" pt_clust_8="13000.00000" pt_clust_9="37.89042"></scales>
<clustering>
<clus scale="   37.890">  2  9  1 -1</clus>
<clus scale="   79.374">  5  6 -1 -1</clus>
<clus scale="   92.890">  7  8 -1 -1</clus>
<clus scale="  207.784">  1  5  2 -1</clus>
<clus scale="  207.784">  1  5  2 -1</clus>
</clustering>
</event>
<event>
 9    2  0.5684583E-005  0.1273236E+03  0.7546771E-02  0.1234947E+00
         -1   -1    0    0    0  501 -0.00000000000E+00  0.00000000000E+00  0.92589877528E+02  0.92589877528E+02  0.00000000000E+00 0.  1.
          2   -1    0    0  502    0  0.00000000000E+00 -0.00000000000E+00 -0.44509207042E+03  0.44509207042E+03  0.00000000000E+00 0. -1.
         23    2    1    2    0    0 -0.29497657964E+02  0.10971410312E+03 -0.13249112498E+03  0.19731058791E+03  0.92034089633E+02 0.  0.
         24    2    1    2    0    0  0.39701462905E+02 -0.69056293615E+02 -0.25945651469E+03  0.28281166597E+03  0.79497028535E+02 0.  0.
        -13    1    4    4    0    0  0.14300399866E+02 -0.52008027860E+02 -0.58623631399E+02  0.79662202810E+02  0.00000000000E+00 0.  1.
         14    1    4    4    0    0  0.25401063039E+02 -0.17048265755E+02 -0.20083288329E+03  0.20314946316E+03  0.00000000000E+00 0. -1.
        -11    1    3    3    0    0  0.24755648945E+02  0.12519134199E+02 -0.55253445565E+02  0.61826483990E+02  0.00000000000E+00 0. -1.
         11    1    3    3    0    0 -0.54253306910E+02  0.97194968916E+02 -0.77237679419E+02  0.13548410392E+03  0.00000000000E+00 0.  1.
         21    1    1    2  502  501 -0.10203804941E+02 -0.40657809501E+02  0.39445446788E+02  0.57559694066E+02  0.00000000000E+00 0.  1.
<scales pt_clust_5="13000.00000" pt_clust_6="13000.00000" pt_clust_7="13000.00000" pt_clust_8="13000.00000" pt_clust_9="41.91867"></scales>
<clustering>
<clus scale="   41.919">  1  9  2 -1</clus>
<clus scale="   79.497">  5  6 -1 -1</clus>
<clus scale="   92.034">  7  8 -1 -1</clus>
<clus scale="  118.578">  2  5  1 -1</clus>
<clus scale="  118.578">  2  5  1 -1</clus>
</clustering>
</event>
<event>
 9    2  0.5684583E-005  0.8917409E+02  0.7546771E-02  0.1309098E+00
          2   -1    0    0  502    0  0.00000000000E+00  0.00000000000E+00  0.19858283127E+03  0.19858283127E+03  0.00000000000E+00 0. -1.
         -1   -1    0    0    0  501 -0.00000000000E+00 -0.00000000000E+00 -0.61670661263E+02  0.61670661263E+02  0.00000000000E+00 0.  1.
         23    2    1    2    0    0  0.34210873693E+01 -0.77894609437E+01  0.71979171583E+01  0.88526821038E+02  0.87822596700E+02 0.  0.
         24    2    1    2    0    0  0.17616038811E+02  0.93151044258E+01  0.12465359134E+03  0.15003569271E+03  0.81086961081E+02 0.  0.
        -11    1    4    4    0    0  0.34003952220E+02  0.36210248603E+02  0.58335538300E+02  0.76619096179E+02  0.00000000000E+00 0.  1.
         12    1    4    4    0    0 -0.16387913410E+02 -0.26895144178E+02  0.66318053044E+02  0.73416596528E+02  0.00000000000E+00 0. -1.
        -11    1    3    3    0    0 -0.40375160898E+02 -0.16240504646E+02  0.13403681284E+01  0.43539685293E+02  0.00000000000E+00 0. -1.
         11    1    3    3    0    0  0.43796248267E+02  0.84510437024E+01  0.58575490299E+01  0.44987135745E+02  0.00000000000E+00 0.  1.
         21    1    1    2  502  501 -0.21037126180E+02 -0.15256434821E+01  0.50606615054E+01  0.21690978789E+02  0.00000000000E+00 0. -1.
<scales pt_clust_5="13000.00000" pt_clust_6="13000.00000" pt_clust_7="13000.00000" pt_clust_8="13000.00000" pt_clust_9="21.09237"></scales>
<clustering>
<clus scale="   21.092">  2  9  1 -1</clus>
<clus scale="   81.087">  5  6 -1 -1</clus>
<clus scale="   82.549">  1  5  2 -1</clus>
<clus scale="   87.823">  7  8 -1 -1</clus>
<clus scale="   82.549">  1  5  2 -1</clus>
</clustering>
</event>
<event>
 9    2  0.5684583E-005  0.9955521E+02  0.7546771E-02  0.1286852E+00
         -1   -1    0    0    0  501 -0.00000000000E+00  0.00000000000E+00  0.45195270437E+02  0.45195270437E+02  0.00000000000E+00 0.  1.
          2   -1    0    0  502    0  0.00000000000E+00 -0.00000000000E+00 -0.53823259790E+03  0.53823259790E+03  0.00000000000E+00 0. -1.
         23    2    1    2    0    0  0.40398443169E+02 -0.57392357127E+02 -0.59583900039E+02  0.12963711860E+03  0.91266776587E+02 0.  0.
         24    2    1    2    0    0 -0.22892952665E+02  0.27075327554E+02 -0.37931530234E+03  0.38931981778E+03  0.80203873225E+02 0.  0.
        -13    1    4    4    0    0  0.16474654163E+02 -0.13402395982E+02 -0.39519798708E+02  0.44864829630E+02  0.00000000000E+00 0.  1.
         14    1    4    4    0    0 -0.39367606829E+02  0.40477723537E+02 -0.33979550363E+03  0.34445498815E+03  0.00000000000E+00 0. -1.
        -11    1    3    3    0    0  0.68274603673E+02 -0.39463306601E+02 -0.55075598384E+02  0.96187814259E+02  0.00000000000E+00 0. -1.
         11    1    3    3    0    0 -0.27876160504E+02 -0.17929050526E+02 -0.45083016549E+01  0.33449304343E+02  0.00000000000E+00 0.  1.
         21    1    1    2  502  501 -0.17505490503E+02  0.30317029573E+02 -0.54138125086E+02  0.64470931960E+02  0.00000000000E+00 0. -1.
<scales pt_clust_5="13000.00000" pt_clust_6="13000.00000" pt_clust_7="13000.00000" pt_clust_8="13000.00000" pt_clust_9="35.00806"></scales>
<clustering>
<clus scale="   35.008">  1  9  2 -1</clus>
<clus scale="   80.204">  5  6 -1 -1</clus>
<clus scale="   89.522">  2  5  1 -1</clus>
<clus scale="   91.267">  7  8 -1 -1</clus>
<clus scale="   89.522">  2  5  1 -1</clus>
</clustering>
</event>
<event>
 9    2  0.5684583E-005  0.1004760E+03  0.7546771E-02  0.1284521E+00
         -1   -1    0    0    0  501 -0.00000000000E+00  0.00000000000E+00  0.25476870209E+02  0.25476870209E+02  0.00000000000E+00 0.  1.
          2   -1    0    0  502    0  0.00000000000E+00 -0.00000000000E+00 -0.75084440343E+03  0.75084440343E+03  0.00000000000E+00 0. -1.
         23    2    1    2    0    0 -0.26581882230E+02  0.24608108095E+02 -0.12448877056E+03  0.15830374125E+03  0.90832070613E+02 0.  0.
         24    2    1    2    0    0  0.13553898454E+02 -0.43211023604E+02 -0.57966612100E+03  0.58694064398E+03  0.80222235065E+02 0.  0.
        -11    1    4    4    0    0 -0.10387474007E+02 -0.38581998353E+02 -0.11703925847E+03  0.12367157408E+03  0.00000000000E+00 0.  1.
         12    1    4    4    0    0  0.23941372461E+02 -0.46290252512E+01 -0.46262686253E+03  0.46326906990E+03  0.00000000000E+00 0. -1.
        -13    1    3    3    0    0 -0.21226526549E+02  0.59035188677E+02 -0.74965730291E+02  0.97752645230E+02  0.00000000000E+00 0.  1.
         13    1    3    3    0    0 -0.53553556807E+01 -0.34427080582E+02 -0.49523040270E+02  0.60551096022E+02  0.00000000000E+00 0. -1.
         21    1    1    2  502  501  0.13027983775E+02  0.18602915510E+02 -0.21212641662E+02  0.31076888406E+02  0.00000000000E+00 0.  1.
<scales pt_clust_5="13000.00000" pt_clust_6="13000.00000" pt_clust_7="13000.00000" pt_clust_8="13000.00000" pt_clust_9="22.71116"></scales>
<clustering>
<clus scale="   22.711">  1  9  2 -1</clus>
<clus scale="   80.222">  5  6 -1 -1</clus>
<clus scale="   90.832">  7  8 -1 -1</clus>
<clus scale="   90.998">  2  5  1 -1</clus>
<clus scale="   90.998">  2  5  1 -1</clus>
</clustering>
</event>
<event>
 9    2  0.5684583E-005  0.1049240E+03  0.7546771E-02  0.1274573E+00
          2   -1    0    0  502    0  0.00000000000E+00  0.00000000000E+00  0.15342229443E+04  0.15342229443E+04  0.00000000000E+00 0. -1.
         -1   -1    0    0    0  501 -0.00000000000E+00 -0.00000000000E+00 -0.13918799388E+02  0.13918799388E+02  0.00000000000E+00 0.  1.
         23    2    1    2    0    0 -0.15011910752E+02  0.59411103997E+02  0.26144586389E+03  0.28321240818E+03  0.90001620325E+02 0.  0.
         24    2    1    2    0    0  0.18599614533E+01 -0.26713256998E+02  0.10190663264E+04  0.10225612178E+04  0.80113725614E+02 0.  0.
        -11    1    4    4    0    0  0.42059005601E+01 -0.30132784426E+02  0.13105780309E+03  0.13454301188E+03  0.00000000000E+00 0.  1.
         12    1    4    4    0    0 -0.23459391068E+01  0.34195274286E+01  0.88800852327E+03  0.88801820589E+03  0.00000000000E+00 0. -1.
        -11    1    3    3    0    0 -0.31657818865E+02  0.76365883627E+02  0.17471045518E+03  0.19328142391E+03  0.00000000000E+00 0.  1.
         11    1    3    3    0    0  0.16645908114E+02 -0.16954779630E+02  0.86735408704E+02  0.89930984273E+02  0.00000000000E+00 0. -1.
         21    1    1    2  502  501  0.13151949298E+02 -0.32697846999E+02  0.23979195468E+03  0.24236811775E+03  0.00000000000E+00 0. -1.
<scales pt_clust_5="13000.00000" pt_clust_6="13000.00000" pt_clust_7="13000.00000" pt_clust_8="13000.00000" pt_clust_9="35.24376"></scales>
<clustering>
<clus scale="   35.244">  1  9  2 -1</clus>
<clus scale="   80.114">  5  6 -1 -1</clus>
<clus scale="   90.002">  7  8 -1 -1</clus>
<clus scale="   96.576">  1  5  2 -1</clus>
<clus scale="   35.244">  1  5  2 -1</clus>
</clustering>
</event>
<event>
 9    2  0.5684583E-005  0.9699841E+02  0.7546771E-02  0.1290013E+00
         -1   -1    0    0    0  501 -0.00000000000E+00  0.00000000000E+00  0.23160017791E+02  0.23160017791E+02  0.00000000000E+00 0.  1.
          2   -1    0    0  502    0  0.00000000000E+00 -0.00000000000E+00 -0.60886044660E+03  0.60886044660E+03  0.00000000000E+00 0. -1.
         23    2    1    2    0    0  0.18653083013E+02 -0.14785855857E+01 -0.22317264136E+03  0.24116888422E+03  0.89477813705E+02 0.  0.
         24    2    1    2    0    0 -0.51846262741E+02  0.82480750020E+01 -0.32821104931E+03  0.34263071659E+03  0.83170002778E+02 0.  0.
        -13    1    4    4    0    0 -0.35489129201E+02  0.77068153044E+01 -0.40277317682E+02  0.54232237767E+02  0.00000000000E+00 0.  1.
         14    1    4    4    0    0 -0.16357133540E+02  0.54125969759E+00 -0.28793373162E+03  0.28839847882E+03  0.00000000000E+00 0. -1.
        -13    1    3    3    0    0  0.34109731375E+02  0.36706537183E+02 -0.12834586062E+03  0.13778063574E+03  0.00000000000E+00 0.  1.
         13    1    3    3    0    0 -0.15456648362E+02 -0.38185122768E+02 -0.94826780744E+02  0.10338824849E+03  0.00000000000E+00 0. -1.
         21    1    1    2  502  501  0.33193179728E+02 -0.67694894162E+01 -0.34316738140E+02  0.48220863576E+02  0.00000000000E+00 0.  1.
<scales pt_clust_5="13000.00000" pt_clust_6="13000.00000" pt_clust_7="13000.00000" pt_clust_8="13000.00000" pt_clust_9="33.87644"></scales>
<clustering>
<clus scale="   33.876">  1  9  2 -1</clus>
<clus scale="   83.170">  5  6 -1 -1</clus>
<clus scale="   89.478">  7  8 -1 -1</clus>
<clus scale="   91.212">  2  5  1 -1</clus>
<clus scale="   91.212">  2  5  1 -1</clus>
</clustering>
</event>
<event>
 9    2  0.5684583E-005  0.1025270E+03  0.7546771E-02  0.1283581E+00
          2   -1    0    0  502    0  0.00000000000E+00  0.00000000000E+00  0.79905229986E+03  0.79905229986E+03  0.00000000000E+00 0. -1.
         -1   -1    0    0    0  501 -0.00000000000E+00 -0.00000000000E+00 -0.14572415530E+03  0.14572415530E+03  0.00000000000E+00 0.  1.
         23    2    1    2    0    0 -0.92489690146E+02  0.53846934556E+02  0.16989223188E+03  0.22078648851E+03  0.91812133787E+02 0.  0.
         24    2    1    2    0    0  0.30401172011E+02 -0.23783628645E+02  0.59062111023E+03  0.59652446927E+03  0.74284953615E+02 0.  0.
        -13    1    4    4    0    0 -0.18539014568E+02 -0.17563859685E+02  0.92316843054E+02  0.95784047417E+02  0.00000000000E+00 0.  1.
         14    1    4    4    0    0  0.48940186579E+02 -0.62197689603E+01  0.49830426718E+03  0.50074042185E+03  0.00000000000E+00 0. -1.
        -13    1    3    3    0    0 -0.91316308625E+02  0.44083225064E+01  0.11478184598E+03  0.14674117928E+03  0.00000000000E+00 0.  1.
         13    1    3    3    0    0 -0.11733815204E+01  0.49438612050E+02  0.55110385901E+02  0.74045309235E+02  0.00000000000E+00 0. -1.
         21    1    1    2  502  501  0.62088518134E+02 -0.30063305911E+02 -0.10718519756E+03  0.12746549738E+03  0.00000000000E+00 0.  1.
<scales pt_clust_5="13000.00000" pt_clust_6="13000.00000" pt_clust_7="13000.00000" pt_clust_8="13000.00000" pt_clust_9="68.98396"></scales>
<clustering>
<clus scale="   68.984">  2  9  1 -1</clus>
<clus scale="   74.285">  5  6 -1 -1</clus>
<clus scale="   87.181">  1  5  2 -1</clus>
<clus scale="   91.812">  7  8 -1 -1</clus>
<clus scale="   87.181">  1  5  2 -1</clus>
</clustering>
</event>
<event>
 9    2  0.5684583E-005  0.2383838E+03  0.7546771E-02  0.1121519E+00
         -1   -1    0    0    0  501 -0.00000000000E+00  0.00000000000E+00  0.13022513161E+03  0.13022513161E+03  0.00000000000E+00 0.  1.
          2   -1    0    0  502    0  0.00000000000E+00 -0.00000000000E+00 -0.14230047831E+04  0.14230047831E+04  0.00000000000E+00 0. -1.
         24    2    1    2    0    0  0.18814657281E+02  0.18694207591E+03 -0.21724586785E+03  0.29828282953E+03  0.80470791089E+02 0.  0.
         23    2    1    2    0    0 -0.12074519686E+03 -0.20344186134E+03 -0.11157179700E+04  0.11441461526E+04  0.90971623869E+02 0.  0.
        -11    1    3    3    0    0  0.39015906953E+02  0.12512650886E+03 -0.18208947430E+03  0.22435565709E+03  0.00000000000E+00 0.  1.
         12    1    3    3    0    0 -0.20201249672E+02  0.61815567049E+02 -0.35156393553E+02  0.73927172444E+02  0.00000000000E+00 0. -1.
        -11    1    4    4    0    0 -0.51964180111E+02 -0.36379851085E+02 -0.17277892897E+03  0.18405523050E+03  0.00000000000E+00 0.  1.
         11    1    4    4    0    0 -0.68781016745E+02 -0.16706201026E+03 -0.94293904105E+03  0.96009092209E+03  0.00000000000E+00 0. -1.
         21    1    1    2  502  501  0.10193053957E+03  0.16499785436E+02  0.40184186425E+02  0.11080093256E+03  0.00000000000E+00 0.  1.
<scales pt_clust_5="13000.00000" pt_clust_6="13000.00000" pt_clust_7="13000.00000" pt_clust_8="13000.00000" pt_clust_9="103.25734"></scales>
<clustering>
<clus scale="   80.471">  5  6 -1 -1</clus>
<clus scale="   90.972">  7  8 -1 -1</clus>
<clus scale="  103.257">  1  9  2 -1</clus>
<clus scale="  234.577">  1  5  2 -1</clus>
<clus scale="  238.384">  2  5  1 -1</clus>
</clustering>
</event>
<event>
 9    2  0.5684583E-005  0.1751151E+03  0.7546771E-02  0.1174029E+00
         -1   -1    0    0    0  501 -0.00000000000E+00  0.00000000000E+00  0.19333252640E+03  0.19333252640E+03  0.00000000000E+00 0.  1.
          2   -1    0    0  502    0  0.00000000000E+00 -0.00000000000E+00 -0.22957380983E+03  0.22957380983E+03  0.00000000000E+00 0. -1.
         24    2    1    2    0    0 -0.24594233902E+01  0.15406325299E+03  0.45726836202E+01  0.17347577615E+03  0.79570099854E+02 0.  0.
         23    2    1    2    0    0  0.63700864333E+02 -0.13794119362E+03 -0.58377131900E+01  0.17708573842E+03  0.90772830969E+02 0.  0.
        -11    1    3    3    0    0 -0.37292726658E+01  0.79505663874E+02 -0.37360749129E+02  0.87925443633E+02  0.00000000000E+00 0.  1.
         12    1    3    3    0    0  0.12698492757E+01  0.74557589112E+02  0.41933432749E+02  0.85550332515E+02  0.00000000000E+00 0. -1.
        -13    1    4    4    0    0  0.42689391952E+02 -0.10525452629E+02  0.14628397422E+02  0.46337450829E+02  0.00000000000E+00 0.  1.
         13    1    4    4    0    0  0.21011472382E+02 -0.12741574099E+03 -0.20466110612E+02  0.13074828759E+03  0.00000000000E+00 0. -1.
         21    1    1    2  502  501 -0.61241440943E+02 -0.16122059365E+02 -0.34976253859E+02  0.72344821660E+02  0.00000000000E+00 0.  1.
<scales pt_clust_5="13000.00000" pt_clust_6="13000.00000" pt_clust_7="13000.00000" pt_clust_8="13000.00000" pt_clust_9="63.32799"></scales>
<clustering>
<clus scale="   63.328">  2  9  1 -1</clus>
<clus scale="   79.570">  5  6 -1 -1</clus>
<clus scale="   90.773">  7  8 -1 -1</clus>
<clus scale="  169.579">  1  5  2 -1</clus>
<clus scale="   63.328">  2  5  1 -1</clus>
</clustering>
</event>
<event>
 9    2  0.5684583E-005  0.8891465E+02  0.7546771E-02  0.1309272E+00
          4   -1    0    0  502    0  0.00000000000E+00  0.00000000000E+00  0.52164923037E+02  0.52164923037E+02  0.00000000000E+00 0. -1.
         -3   -1    0    0    0  501 -0.00000000000E+00 -0.00000000000E+00 -0.28777723496E+03  0.28777723496E+03  0.00000000000E+00 0.  1.
         23    2    1    2    0    0 -0.10716486119E+02  0.33809086865E+02 -0.19893149554E+03  0.21981293039E+03  0.86522176454E+02 0.  0.
         24    2    1    2    0    0  0.11249058378E+02 -0.13711943178E+02 -0.48950901273E+01  0.82519239426E+02  0.80441931031E+02 0.  0.
        -11    1    4    4    0    0  0.19167876473E+02  0.30647925469E+02 -0.90588500988E+01  0.37266145349E+02  0.00000000000E+00 0.  1.
         12    1    4    4    0    0 -0.79188180951E+01 -0.44359868647E+02  0.41637599715E+01  0.45253094077E+02  0.00000000000E+00 0. -1.
        -13    1    3    3    0    0 -0.40945169594E+02  0.11451756716E+02 -0.16055061873E+03  0.16608476998E+03  0.00000000000E+00 0.  1.
         13    1    3    3    0    0  0.30228683476E+02  0.22357330149E+02 -0.38380876814E+02  0.53728160410E+02  0.00000000000E+00 0. -1.
         21    1    1    2  502  501 -0.53257225941E+00 -0.20097143687E+02 -0.31785726256E+02  0.37609988184E+02  0.00000000000E+00 0. -1.
<scales pt_clust_5="13000.00000" pt_clust_6="13000.00000" pt_clust_7="13000.00000" pt_clust_8="13000.00000" pt_clust_9="20.10420"></scales>
<clustering>
<clus scale="   20.104">  2  9  1 -1</clus>
<clus scale="   80.442">  5  6 -1 -1</clus>
<clus scale="   83.010">  1  5  2 -1</clus>
<clus scale="   86.522">  7  8 -1 -1</clus>
<clus scale="   83.010">  1  5  2 -1</clus>
</clustering>
</event>
<event>
 9    2  0.5684583E-005  0.9727860E+02  0.7546771E-02  0.1292677E+00
         -3   -1    0    0    0  501 -0.00000000000E+00  0.00000000000E+00  0.31951272290E+03  0.31951272290E+03  0.00000000000E+00 0.  1.
          4   -1    0    0  502    0  0.00000000000E+00 -0.00000000000E+00 -0.85383340550E+02  0.85383340550E+02  0.00000000000E+00 0. -1.
         24    2    1    2    0    0  0.14115174795E+02  0.59981971280E+01  0.14293777864E+03  0.16444409815E+03  0.79846329437E+02 0.  0.
         23    2    1    2    0    0  0.41491854804E+02  0.14026632612E+02 -0.29599293173E+02  0.10597677682E+03  0.91851176540E+02 0.  0.
        -13    1    3    3    0    0  0.39580722476E+02 -0.89565266508E+01  0.38599352404E+02  0.56006811795E+02  0.00000000000E+00 0.  1.
         14    1    3    3    0    0 -0.25465547682E+02  0.14954723779E+02  0.10433842623E+03  0.10843728635E+03  0.00000000000E+00 0. -1.
        -13    1    4    4    0    0 -0.61558715426E+01 -0.21848773572E+02  0.18556884508E+02  0.29319304625E+02  0.00000000000E+00 0.  1.
         13    1    4    4    0    0  0.47647726346E+02  0.35875406184E+02 -0.48156177681E+02  0.76657472198E+02  0.00000000000E+00 0. -1.
         21    1    1    2  502  501 -0.55607029598E+02 -0.20024829740E+02  0.12079089688E+03  0.13447518848E+03  0.00000000000E+00 0.  1.
<scales pt_clust_5="13000.00000" pt_clust_6="13000.00000" pt_clust_7="13000.00000" pt_clust_8="13000.00000" pt_clust_9="59.10275"></scales>
<clustering>
<clus scale="   59.103">  1  9  2 -1</clus>
<clus scale="   79.846">  5  6 -1 -1</clus>
<clus scale="   86.034">  1  5  2 -1</clus>
<clus scale="   91.851">  7  8 -1 -1</clus>
<clus scale="   97.279">  2  5  1 -1</clus>
</clustering>
</event>
<event>
 9    2  0.5684583E-005  0.1168049E+03  0.7546771E-02  0.1249400E+00
          2   -1    0    0  502    0  0.00000000000E+00  0.00000000000E+00  0.68782574878E+02  0.68782574878E+02  0.00000000000E+00 0. -1.
         -1   -1    0    0    0  501 -0.00000000000E+00 -0.00000000000E+00 -0.41019248214E+03  0.41019248214E+03  0.00000000000E+00 0.  1.
         23    2    1    2    0    0 -0.11613167127E+03 -0.11450000917E+02 -0.22788273612E+03  0.26931297560E+03  0.83553993394E+02 0.  0.
         24    2    1    2    0    0  0.72020071587E+02 -0.33940104161E+01 -0.26957312269E+02  0.11137414541E+03  0.80492816839E+02 0.  0.
        -13    1    4    4    0    0  0.33645546906E+02 -0.34962523462E+02  0.98804197709E+01  0.49517911590E+02  0.00000000000E+00 0.  1.
         14    1    4    4    0    0  0.38374524681E+02  0.31568513046E+02 -0.36837732040E+02  0.61856233818E+02  0.00000000000E+00 0. -1.
        -11    1    3    3    0    0 -0.49686570941E+02 -0.41098782971E+02 -0.68320222182E+02  0.93944228416E+02  0.00000000000E+00 0. -1.
         11    1    3    3    0    0 -0.66445100331E+02  0.29648782054E+02 -0.15956251394E+03  0.17536874718E+03  0.00000000000E+00 0.  1.
         21    1    1    2  502  501  0.44111599685E+02  0.14844011333E+02 -0.86569858874E+02  0.98287936008E+02  0.00000000000E+00 0. -1.
<scales pt_clust_5="13000.00000" pt_clust_6="13000.00000" pt_clust_7="13000.00000" pt_clust_8="13000.00000" pt_clust_9="46.54222"></scales>
<clustering>
<clus scale="   46.542">  2  9  1 -1</clus>
<clus scale="   80.493">  5  6 -1 -1</clus>
<clus scale="   83.554">  7  8 -1 -1</clus>
<clus scale="  114.635">  1  5  2 -1</clus>
<clus scale="  114.635">  1  5  2 -1</clus>
</clustering>
</event>
<event>
 9    2  0.5684583E-005  0.9955924E+02  0.7546771E-02  0.1284365E+00
         -1   -1    0    0    0  501 -0.00000000000E+00  0.00000000000E+00  0.80373034328E+02  0.80373034328E+02  0.00000000000E+00 0.  1.
          2   -1    0    0  502    0  0.00000000000E+00 -0.00000000000E+00 -0.79191442081E+03  0.79191442081E+03  0.00000000000E+00 0. -1.
         23    2    1    2    0    0  0.26952356272E+02 -0.68566493325E+01  0.38171287429E+02  0.10395867507E+03  0.92611639602E+02 0.  0.
         24    2    1    2    0    0 -0.76680110045E+01  0.12519869702E+02 -0.73877227777E+03  0.74544537330E+03  0.98431603890E+02 0.  0.
        -13    1    4    4    0    0 -0.14487474077E+01  0.24737433951E+02 -0.43690968377E+02  0.50228878400E+02  0.00000000000E+00 0.  1.
         14    1    4    4    0    0 -0.62192635967E+01 -0.12217564250E+02 -0.69508130940E+03  0.69521649490E+03  0.00000000000E+00 0. -1.
        -11    1    3    3    0    0  0.44435467133E+02 -0.18609815023E+02  0.57745331878E+02  0.75202123030E+02  0.00000000000E+00 0.  1.
         11    1    3    3    0    0 -0.17483110861E+02  0.11753165690E+02 -0.19574044450E+02  0.28756552040E+02  0.00000000000E+00 0. -1.
         21    1    1    2  502  501 -0.19284345268E+02 -0.56632203691E+01 -0.10940396134E+02  0.22883406760E+02  0.00000000000E+00 0. -1.
<scales pt_clust_5="13000.00000" pt_clust_6="13000.00000" pt_clust_7="13000.00000" pt_clust_8="13000.00000" pt_clust_9="20.09871"></scales>
<clustering>
<clus scale="   20.099">  1  9  2 -1</clus>
<clus scale="   92.612">  7  8 -1 -1</clus>
<clus scale="   93.809">  1  7  2 -1</clus>
<clus scale="   98.432">  5  6 -1 -1</clus>
<clus scale="   99.559">  2  5  1 -1</clus>
</clustering>
</event>
<event>
 9    2  0.5684583E-005  0.1344857E+03  0.7546771E-02  0.1223337E+00
          2   -1    0    0  502    0  0.00000000000E+00  0.00000000000E+00  0.43140354029E+03  0.43140354029E+03  0.00000000000E+00 0. -1.
         -1   -1    0    0    0  501 -0.00000000000E+00 -0.00000000000E+00 -0.12938932645E+03  0.12938932645E+03  0.00000000000E+00 0.  1.
         23    2    1    2    0    0  0.98489838236E+02 -0.13870135398E+02  0.20466179167E+02  0.13583582855E+03  0.90221277630E+02 0.  0.
         24    2    1    2    0    0 -0.90757920726E+02  0.43342871361E+02  0.33754447262E+03  0.36120732622E+03  0.80117768623E+02 0.  0.
        -13    1    4    4    0    0 -0.36812443616E+02  0.50784356725E+02  0.10444800231E+03  0.12183428121E+03  0.00000000000E+00 0.  1.
         14    1    4    4    0    0 -0.53945477110E+02 -0.74414853643E+01  0.23309647031E+03  0.23937304501E+03  0.00000000000E+00 0. -1.
        -11    1    3    3    0    0  0.43675951390E+02 -0.34718891111E+01 -0.35813797889E+02  0.56588610719E+02  0.00000000000E+00 0.  1.
         11    1    3    3    0    0  0.54813886845E+02 -0.10398246287E+02  0.56279977056E+02  0.79247217834E+02  0.00000000000E+00 0. -1.
         21    1    1    2  502  501 -0.77319175097E+01 -0.29472735962E+02 -0.55996437949E+02  0.63749711971E+02  0.00000000000E+00 0. -1.
<scales pt_clust_5="13000.00000" pt_clust_6="13000.00000" pt_clust_7="13000.00000" pt_clust_8="13000.00000" pt_clust_9="30.47006"></scales>
<clustering>
<clus scale="   30.470">  2  9  1 -1</clus>
<clus scale="   80.118">  5  6 -1 -1</clus>
<clus scale="   90.221">  7  8 -1 -1</clus>
<clus scale="  127.927">  1  5  2 -1</clus>
<clus scale="  127.927">  1  5  2 -1</clus>
</clustering>
</event>
<event>
 9    2  0.5684583E-005  0.9382511E+02  0.7546771E-02  0.1299675E+00
         -1   -1    0    0    0  501 -0.00000000000E+00  0.00000000000E+00  0.60355572899E+02  0.60355572899E+02  0.00000000000E+00 0.  1.
          2   -1    0    0  502    0  0.00000000000E+00 -0.00000000000E+00 -0.31001693831E+03  0.31001693831E+03  0.00000000000E+00 0. -1.
         23    2    1    2    0    0  0.38814932613E+02 -0.85396610130E+01 -0.49457825915E+02  0.11099581991E+03  0.91073984697E+02 0.  0.
         24    2    1    2    0    0  0.36438471367E+01  0.25596234908E+02 -0.19566728622E+03  0.21339569213E+03  0.81139322531E+02 0.  0.
        -13    1    4    4    0    0  0.23116756172E+01  0.32104100488E+02 -0.20627084663E+02  0.38229487755E+02  0.00000000000E+00 0.  1.
         14    1    4    4    0    0  0.13321715196E+01 -0.65078655794E+01 -0.17504020156E+03  0.17516620438E+03  0.00000000000E+00 0. -1.
        -11    1    3    3    0    0  0.68217631035E+02 -0.92013385072E+01 -0.42064877927E+02  0.80670711967E+02  0.00000000000E+00 0. -1.
         11    1    3    3    0    0 -0.29402698422E+02  0.66167749426E+00 -0.73929479884E+01  0.30325107940E+02  0.00000000000E+00 0.  1.
         21    1    1    2  502  501 -0.42458779749E+02 -0.17056573895E+02 -0.45362532767E+01  0.45980999170E+02  0.00000000000E+00 0.  1.
<scales pt_clust_5="13000.00000" pt_clust_6="13000.00000" pt_clust_7="13000.00000" pt_clust_8="13000.00000" pt_clust_9="45.75669"></scales>
<clustering>
<clus scale="   45.757">  1  9  2 -1</clus>
<clus scale="   81.139">  5  6 -1 -1</clus>
<clus scale="   84.216">  2  5  1 -1</clus>
<clus scale="   91.074">  7  8 -1 -1</clus>
<clus scale="   84.216">  2  5  1 -1</clus>
</clustering>
</event>
<event>
 9    2  0.5684583E-005  0.1137609E+03  0.7546771E-02  0.1259705E+00
         -1   -1    0    0    0  501 -0.00000000000E+00  0.00000000000E+00  0.73820853329E+02  0.73820853329E+02  0.00000000000E+00 0.  1.
          2   -1    0    0  502    0  0.00000000000E+00 -0.00000000000E+00 -0.75904300591E+03  0.75904300591E+03  0.00000000000E+00 0. -1.
         23    2    1    2    0    0 -0.11855194745E+02  0.15007692069E+02 -0.16306822349E+03  0.18803415636E+03  0.91650542724E+02 0.  0.
         24    2    1    2    0    0 -0.22472002874E+02 -0.95495058754E+02 -0.54129344758E+03  0.55525909465E+03  0.75430555073E+02 0.  0.
        -13    1    4    4    0    0 -0.17967262162E+02 -0.22158851061E+02 -0.43160033985E+02  0.51736116239E+02  0.00000000000E+00 0.  1.
         14    1    4    4    0    0 -0.45047407123E+01 -0.73336207694E+02 -0.49813341359E+03  0.50352297841E+03  0.00000000000E+00 0. -1.
        -11    1    3    3    0    0 -0.22921786813E+02  0.45001227731E+02 -0.52130462044E+02  0.72581704864E+02  0.00000000000E+00 0.  1.
         11    1    3    3    0    0  0.11066592069E+02 -0.29993535662E+02 -0.11093776144E+03  0.11545245149E+03  0.00000000000E+00 0. -1.
         21    1    1    2  502  501  0.34327197619E+02  0.80487366686E+02  0.19139518482E+02  0.89570608238E+02  0.00000000000E+00 0.  1.
<scales pt_clust_5="13000.00000" pt_clust_6="13000.00000" pt_clust_7="13000.00000" pt_clust_8="13000.00000" pt_clust_9="87.50184"></scales>
<clustering>
<clus scale="   75.431">  5  6 -1 -1</clus>
<clus scale="   87.502">  1  9  2 -1</clus>
<clus scale="   91.651">  7  8 -1 -1</clus>
<clus scale="  101.151">  2  5  1 -1</clus>
<clus scale="  101.151">  2  5  1 -1</clus>
</clustering>
</event>
<event>
 9    2  0.5684583E-005  0.1025239E+03  0.7546771E-02  0.1279423E+00
          4   -1    0    0  502    0  0.00000000000E+00  0.00000000000E+00  0.47871480301E+03  0.47871480301E+03  0.00000000000E+00 0. -1.
         -3   -1    0    0    0  501 -0.00000000000E+00 -0.00000000000E+00 -0.46629365255E+02  0.46629365255E+02  0.00000000000E+00 0.  1.
         24    2    1    2    0    0 -0.20452868314E+02 -0.23696986871E+02  0.74857072400E+02  0.11679274378E+03  0.84006527730E+02 0.  0.
         23    2    1    2    0    0  0.45796747338E+02  0.15378910150E+02  0.36579617218E+03  0.38053518067E+03  0.93093131841E+02 0.  0.
        -11    1    3    3    0    0  0.30132931680E+02 -0.21975466820E+02  0.20655916420E+02  0.42633104470E+02  0.00000000000E+00 0.  1.
         12    1    3    3    0    0 -0.50585799994E+02 -0.17215200508E+01  0.54201155980E+02  0.74159639306E+02  0.00000000000E+00 0. -1.
        -13    1    4    4    0    0  0.60465561013E+02 -0.17460073131E+02  0.16605129178E+03  0.17757806656E+03  0.00000000000E+00 0.  1.
         13    1    4    4    0    0 -0.14668813675E+02  0.32838983281E+02  0.19974488041E+03  0.20295711410E+03  0.00000000000E+00 0. -1.
         21    1    1    2  502  501 -0.25343879024E+02  0.83180767208E+01 -0.85678068270E+01  0.28016243826E+02  0.00000000000E+00 0. -1.
<scales pt_clust_5="13000.00000" pt_clust_6="13000.00000" pt_clust_7="13000.00000" pt_clust_8="13000.00000" pt_clust_9="26.67401"></scales>
<clustering>
<clus scale="   26.674">  2  9  1 -1</clus>
<clus scale="   84.007">  5  6 -1 -1</clus>
<clus scale="   93.093">  7  8 -1 -1</clus>
<clus scale="   94.350">  2  5  1 -1</clus>
<clus scale="  102.524">  1  5  2 -1</clus>
</clustering>
</event>
<event>
 9    2  0.5684583E-005  0.1134268E+03  0.7546771E-02  0.1255105E+00
          2   -1    0    0  502    0  0.00000000000E+00  0.00000000000E+00  0.99921733218E+03  0.99921733218E+03  0.00000000000E+00 0. -1.
         -1   -1    0    0    0  501 -0.00000000000E+00 -0.00000000000E+00 -0.35590980699E+02  0.35590980699E+02  0.00000000000E+00 0.  1.
         23    2    1    2    0    0  0.70591963433E+02  0.25183150882E+02  0.16994176971E+03  0.20675859406E+03  0.90837738510E+02 0.  0.
         24    2    1    2    0    0 -0.67336887883E+02  0.72314377025E+01  0.78689451575E+03  0.79477200755E+03  0.88730011365E+02 0.  0.
        -13    1    4    4    0    0  0.12187855432E+02  0.23117691024E+02  0.11126547489E+03  0.11429338284E+03  0.00000000000E+00 0.  1.
         14    1    4    4    0    0 -0.79524743315E+02 -0.15886253321E+02  0.67562904086E+03  0.68047862472E+03  0.00000000000E+00 0. -1.
        -11    1    3    3    0    0  0.19698705625E+02 -0.20676092457E+02  0.11628401987E+03  0.11973935477E+03  0.00000000000E+00 0. -1.
         11    1    3    3    0    0  0.50893257808E+02  0.45859243340E+02  0.53657749837E+02  0.87019239295E+02  0.00000000000E+00 0.  1.
         21    1    1    2  502  501 -0.32550755501E+01 -0.32414588585E+02  0.67900660190E+01  0.33277711257E+02  0.00000000000E+00 0.  1.
<scales pt_clust_5="13000.00000" pt_clust_6="13000.00000" pt_clust_7="13000.00000" pt_clust_8="13000.00000" pt_clust_9="32.57762"></scales>
<clustering>
<clus scale="   32.578">  2  9  1 -1</clus>
<clus scale="   88.730">  5  6 -1 -1</clus>
<clus scale="   90.838">  7  8 -1 -1</clus>
<clus scale="  111.746">  1  5  2 -1</clus>
<clus scale="  111.746">  1  5  2 -1</clus>
</clustering>
</event>
<event>
 9    2  0.8353088E-005  0.1027504E+03  0.7546771E-02  0.1279251E+00
         -1   -1    0    0    0  501 -0.00000000000E+00  0.00000000000E+00  0.24778105379E+03  0.24778105379E+03  0.00000000000E+00 0.  1.
          2   -1    0    0  502    0  0.00000000000E+00 -0.00000000000E+00 -0.25146622227E+03  0.25146622227E+03  0.00000000000E+00 0. -1.
         24    2    1    2    0    0  0.64010312201E+02  0.19795707871E+02  0.19546061996E+03  0.22219163499E+03  0.81701154115E+02 0.  0.
         23    2    1    2    0    0 -0.45032402057E+02  0.84991033487E+01 -0.21599411412E+03  0.23904743810E+03  0.91597316185E+02 0.  0.
        -11    1    3    3    0    0  0.29423518290E+02 -0.18329298998E+02  0.14856955900E+03  0.15256021924E+03  0.00000000000E+00 0.  1.
         12    1    3    3    0    0  0.34586793911E+02  0.38125006869E+02  0.46891060959E+02  0.69631415752E+02  0.00000000000E+00 0. -1.
        -13    1    4    4    0    0 -0.10381044317E+02  0.46824567509E+02 -0.76494004646E+02  0.90286427277E+02  0.00000000000E+00 0.  1.
         13    1    4    4    0    0 -0.34651357740E+02 -0.38325464161E+02 -0.13950010948E+03  0.14876101082E+03  0.00000000000E+00 0. -1.
         21    1    1    2  502  501 -0.18977910144E+02 -0.28294811220E+02  0.16848325683E+02  0.38008202980E+02  0.00000000000E+00 0. -1.
<scales pt_clust_5="13000.00000" pt_clust_6="13000.00000" pt_clust_7="13000.00000" pt_clust_8="13000.00000" pt_clust_9="34.06989"></scales>
<clustering>
<clus scale="   34.070">  1  9  2 -1</clus>
<clus scale="   81.701">  5  6 -1 -1</clus>
<clus scale="   91.597">  7  8 -1 -1</clus>
<clus scale="   94.035">  1  5  2 -1</clus>
<clus scale="  102.750">  2  5  1 -1</clus>
</clustering>
</event>
<event>
 9    2  0.5684583E-005  0.1236878E+03  0.7546771E-02  0.1237984E+00
          4   -1    0    0  502    0  0.00000000000E+00  0.00000000000E+00  0.20261959418E+03  0.20261959418E+03  0.00000000000E+00 0. -1.
         -3   -1    0    0    0  501 -0.00000000000E+00 -0.00000000000E+00 -0.96072536014E+02  0.96072536014E+02  0.00000000000E+00 0.  1.
         24    2    1    2    0    0  0.10881553618E+03  0.27358901828E+01  0.33469795695E+02  0.13953778236E+03  0.80636588910E+02 0.  0.
         23    2    1    2    0    0 -0.84124196940E+02 -0.91148446005E+01  0.67557667665E+02  0.13306183512E+03  0.77339851313E+02 0.  0.
        -11    1    3    3    0    0  0.42178857537E+02 -0.20195210954E+02 -0.20215397260E+02  0.50946686398E+02  0.00000000000E+00 0.  1.
         12    1    3    3    0    0  0.66636678647E+02  0.22931101137E+02  0.53685192955E+02  0.88591095958E+02  0.00000000000E+00 0. -1.
        -11    1    4    4    0    0 -0.34953662405E+02  0.22922100474E+02 -0.22539588322E+01  0.41860023125E+02  0.00000000000E+00 0.  1.
         11    1    4    4    0    0 -0.49170534535E+02 -0.32036945074E+02  0.69811626497E+02  0.91201811991E+02  0.00000000000E+00 0. -1.
         21    1    1    2  502  501 -0.24691339244E+02  0.63789544177E+01  0.55195948030E+01  0.26092512718E+02  0.00000000000E+00 0.  1.
<scales pt_clust_5="13000.00000" pt_clust_6="13000.00000" pt_clust_7="13000.00000" pt_clust_8="13000.00000" pt_clust_9="25.50203"></scales>
<clustering>
<clus scale="   25.502">  2  9  1 -1</clus>
<clus scale="   77.340">  7  8 -1 -1</clus>
<clus scale="   80.637">  5  6 -1 -1</clus>
<clus scale="  121.564">  1  7  2 -1</clus>
<clus scale="  121.564">  1  5  2 -1</clus>
</clustering>
</event>
<event>
 9    2  0.5684583E-005  0.9986989E+02  0.7546771E-02  0.1285886E+00
          2   -1    0    0  502    0  0.00000000000E+00  0.00000000000E+00  0.19647980449E+03  0.19647980449E+03  0.00000000000E+00 0. -1.
         -1   -1    0    0    0  501 -0.00000000000E+00 -0.00000000000E+00 -0.80974854672E+02  0.80974854672E+02  0.00000000000E+00 0.  1.
         24    2    1    2    0    0 -0.30394430590E+02  0.19694123690E+02  0.56181583698E+02  0.10417775012E+03  0.79905903126E+02 0.  0.
         23    2    1    2    0    0  0.52113520853E+02  0.14533910798E+01  0.84086455574E+02  0.13413426143E+03  0.90573377306E+02 0.  0.
        -11    1    3    3    0    0 -0.41168319597E+02  0.30665682725E+02  0.59889767178E+01  0.51682516169E+02  0.00000000000E+00 0.  1.
         12    1    3    3    0    0  0.10773889008E+02 -0.10971559035E+02  0.50192606980E+02  0.52495233950E+02  0.00000000000E+00 0. -1.
        -11    1    4    4    0    0  0.69173278390E+02 -0.18693347437E+02  0.38213751771E+02  0.81207601282E+02  0.00000000000E+00 0.  1.
         11    1    4    4    0    0 -0.17059757536E+02  0.20146738517E+02  0.45872703803E+02  0.52926660147E+02  0.00000000000E+00 0. -1.
         21    1    1    2  502  501 -0.21719090264E+02 -0.21147514770E+02 -0.24763089455E+02  0.39142647613E+02  0.00000000000E+00 0.  1.
<scales pt_clust_5="13000.00000" pt_clust_6="13000.00000" pt_clust_7="13000.00000" pt_clust_8="13000.00000" pt_clust_9="30.31396"></scales>
<clustering>
<clus scale="   30.314">  2  9  1 -1</clus>
<clus scale="   79.906">  5  6 -1 -1</clus>
<clus scale="   90.307">  2  5  1 -1</clus>
<clus scale="   90.573">  7  8 -1 -1</clus>
<clus scale="   99.870">  1  5  2 -1</clus>
</clustering>
</event>
<event>
 9    2  0.5684583E-005  0.1035953E+03  0.7546771E-02  0.1275501E+00
          2   -1    0    0  502    0  0.00000000000E+00  0.00000000000E+00  0.89006422602E+03  0.89006422602E+03  0.00000000000E+00 0. -1.
         -1   -1    0    0    0  501 -0.00000000000E+00 -0.00000000000E+00 -0.20385073928E+02  0.20385073928E+02  0.00000000000E+00 0.  1.
         23    2    1    2    0    0  0.40250308287E+02 -0.67207363907E+01  0.22893012607E+03  0.24778825955E+03  0.85584831206E+02 0.  0.
         24    2    1    2    0    0 -0.62569528697E+02 -0.35593607344E+02  0.54707418673E+03  0.55747726408E+03  0.79428479593E+02 0.  0.
        -13    1    4    4    0    0 -0.52724478634E+02 -0.67997794619E+01  0.14824210610E+03  0.15748596658E+03  0.00000000000E+00 0.  1.
         14    1    4    4    0    0 -0.98450500637E+01 -0.28793827882E+02  0.39883208063E+03  0.39999129750E+03  0.00000000000E+00 0. -1.
        -13    1    3    3    0    0  0.16677268954E+01 -0.32626157447E+02  0.16806003833E+03  0.17120579414E+03  0.00000000000E+00 0.  1.
         13    1    3    3    0    0  0.38582581392E+02  0.25905421056E+02  0.60870087741E+02  0.76582465412E+02  0.00000000000E+00 0. -1.
         21    1    1    2  502  501  0.22319220410E+02  0.42314343735E+02  0.93674839290E+02  0.10518377632E+03  0.00000000000E+00 0.  1.
<scales pt_clust_5="13000.00000" pt_clust_6="13000.00000" pt_clust_7="13000.00000" pt_clust_8="13000.00000" pt_clust_9="47.83985"></scales>
<clustering>
<clus scale="   47.840">  2  9  1 -1</clus>
<clus scale="   79.428">  5  6 -1 -1</clus>
<clus scale="   85.585">  7  8 -1 -1</clus>
<clus scale="   98.570">  1  5  2 -1</clus>
<clus scale="   98.570">  1  5  2 -1</clus>
</clustering>
</event>
<event>
 9    2  0.5684583E-005  0.2070610E+03  0.7546771E-02  0.1145249E+00
         -1   -1    0    0    0  501 -0.00000000000E+00  0.00000000000E+00  0.40255213551E+02  0.40255213551E+02  0.00000000000E+00 0.  1.
          2   -1    0    0  502    0  0.00000000000E+00 -0.00000000000E+00 -0.13234904258E+04  0.13234904258E+04  0.00000000000E+00 0. -1.
         23    2    1    2    0    0 -0.18566088107E+03  0.39402112537E+02 -0.45649426381E+03  0.50350158208E+03  0.95416670602E+02 0.  0.
         24    2    1    2    0    0  0.17016064454E+03 -0.62478146089E+02 -0.78800410677E+03  0.81256488404E+03  0.80330908155E+02 0.  0.
        -11    1    4    4    0    0  0.89334248204E+02 -0.57739173891E+02 -0.57367117820E+03  0.58344926155E+03  0.00000000000E+00 0.  1.
         12    1    4    4    0    0  0.80826396331E+02 -0.47389721984E+01 -0.21433292857E+03  0.22911562249E+03  0.00000000000E+00 0. -1.
        -13    1    3    3    0    0 -0.86234300430E+02 -0.25622119601E+02 -0.24394978416E+03  0.26000835520E+03  0.00000000000E+00 0. -1.
         13    1    3    3    0    0 -0.99426580645E+02  0.65024232139E+02 -0.21254447965E+03  0.24349322688E+03  0.00000000000E+00 0.  1.
         21    1    1    2  502  501  0.15500236538E+02  0.23076033552E+02 -0.38736841652E+02  0.47679173214E+02  0.00000000000E+00 0. -1.
<scales pt_clust_5="13000.00000" pt_clust_6="13000.00000" pt_clust_7="13000.00000" pt_clust_8="13000.00000" pt_clust_9="27.79857"></scales>
<clustering>
<clus scale="   27.799">  1  9  2 -1</clus>
<clus scale="   80.331">  5  6 -1 -1</clus>
<clus scale="   95.417">  7  8 -1 -1</clus>
<clus scale="  200.557">  2  5  1 -1</clus>
<clus scale="  200.557">  2  5  1 -1</clus>
</clustering>
</event>
<event>
 9    2  0.5684583E-005  0.1116227E+03  0.7546771E-02  0.1265149E+00
         -1   -1    0    0    0  501 -0.00000000000E+00  0.00000000000E+00  0.44832247883E+02  0.44832247883E+02  0.00000000000E+00 0.  1.
          2   -1    0    0  502    0  0.00000000000E+00 -0.00000000000E+00 -0.39312639910E+03  0.39312639910E+03  0.00000000000E+00 0. -1.
         23    2    1    2    0    0  0.13036054807E+02 -0.69339531391E+02 -0.14428243233E+03  0.18797598060E+03  0.97671078961E+02 0.  0.
         24    2    1    2    0    0 -0.17164578156E+02  0.43576346923E+02 -0.20393462251E+03  0.22389066909E+03  0.79650365288E+02 0.  0.
        -13    1    4    4    0    0 -0.14038213479E+02 -0.21960988153E+02 -0.46031719565E+02  0.52898730083E+02  0.00000000000E+00 0.  1.
         14    1    4    4    0    0 -0.31263646764E+01  0.65537335076E+02 -0.15790290295E+03  0.17099193901E+03  0.00000000000E+00 0. -1.
        -11    1    3    3    0    0 -0.19047466568E+02 -0.12548287860E+02 -0.11364568125E+03  0.11591206312E+03  0.00000000000E+00 0. -1.
         11    1    3    3    0    0  0.32083521375E+02 -0.56791243531E+02 -0.30636751080E+02  0.72063917479E+02  0.00000000000E+00 0.  1.
         21    1    1    2  502  501  0.41285233482E+01  0.25763184469E+02 -0.77096376801E-01  0.26091997295E+02  0.00000000000E+00 0.  1.
<scales pt_clust_5="13000.00000" pt_clust_6="13000.00000" pt_clust_7="13000.00000" pt_clust_8="13000.00000" pt_clust_9="26.09188"></scales>
<clustering>
<clus scale="   26.092">  1  9  2 -1</clus>
<clus scale="   79.650">  5  6 -1 -1</clus>
<clus scale="   96.251">  2  5  1 -1</clus>
<clus scale="   97.671">  7  8 -1 -1</clus>
<clus scale="   96.251">  2  5  1 -1</clus>
</clustering>
</event>
<event>
 9    2  0.5684583E-005  0.1153660E+03  0.7546771E-02  0.1255438E+00
         -1   -1    0    0    0  501 -0.00000000000E+00  0.00000000000E+00  0.14055009923E+03  0.14055009923E+03  0.00000000000E+00 0.  1.
          2   -1    0    0  502    0  0.00000000000E+00 -0.00000000000E+00 -0.14443359884E+03  0.14443359884E+03  0.00000000000E+00 0. -1.
         24    2    1    2    0    0 -0.32944285569E+02 -0.59603081379E+02  0.14652981403E+02  0.10649947347E+03  0.80557896715E+02 0.  0.
         23    2    1    2    0    0  0.39004267214E+01  0.70674687429E+02 -0.56116269728E+02  0.12971572332E+03  0.93096768886E+02 0.  0.
        -11    1    3    3    0    0 -0.42263744231E+01 -0.62629107393E+02 -0.15595902490E+02  0.64679977645E+02  0.00000000000E+00 0.  1.
         12    1    3    3    0    0 -0.28717911146E+02  0.30260260140E+01  0.30248883893E+02  0.41819495822E+02  0.00000000000E+00 0. -1.
        -11    1    4    4    0    0  0.24533667123E+02 -0.28243233051E+01  0.11952178745E+02  0.27435965472E+02  0.00000000000E+00 0.  1.
         11    1    4    4    0    0 -0.20633240401E+02  0.73499010734E+02 -0.68068448474E+02  0.10227975785E+03  0.00000000000E+00 0. -1.
         21    1    1    2  502  501  0.29043858848E+02 -0.11071606050E+02  0.37579788716E+02  0.48768501281E+02  0.00000000000E+00 0.  1.
<scales pt_clust_5="13000.00000" pt_clust_6="13000.00000" pt_clust_7="13000.00000" pt_clust_8="13000.00000" pt_clust_9="31.08257"></scales>
<clustering>
<clus scale="   31.083">  1  9  2 -1</clus>
<clus scale="   80.558">  5  6 -1 -1</clus>
<clus scale="   93.097">  7  8 -1 -1</clus>
<clus scale="  105.508">  1  5  2 -1</clus>
<clus scale="  115.366">  2  5  1 -1</clus>
</clustering>
</event>
<event>
 9    2  0.5684583E-005  0.1083573E+03  0.7546771E-02  0.1272383E+00
          2   -1    0    0  502    0  0.00000000000E+00  0.00000000000E+00  0.13317392893E+03  0.13317392893E+03  0.00000000000E+00 0. -1.
         -1   -1    0    0    0  501 -0.00000000000E+00 -0.00000000000E+00 -0.31314229260E+03  0.31314229260E+03  0.00000000000E+00 0.  1.
         24    2    1    2    0    0  0.48920285611E+02  0.33118178607E+02 -0.16742347945E+03  0.19513461303E+03  0.80974611021E+02 0.  0.
         23    2    1    2    0    0 -0.23785674515E+02 -0.32997485114E+02  0.93262039434E+02  0.14243020238E+03  0.99669264143E+02 0.  0.
        -11    1    3    3    0    0  0.45038084094E+02 -0.18274850814E+02 -0.77125510460E+02  0.91163279641E+02  0.00000000000E+00 0.  1.
         12    1    3    3    0    0  0.38822015177E+01  0.51393029421E+02 -0.90297968992E+02  0.10397133338E+03  0.00000000000E+00 0. -1.
        -11    1    4    4    0    0  0.16063068283E+02 -0.29681427162E+02 -0.70186039692E+01  0.34471293604E+02  0.00000000000E+00 0.  1.
         11    1    4    4    0    0 -0.39848742798E+02 -0.33160579523E+01  0.10028064340E+03  0.10795890878E+03  0.00000000000E+00 0. -1.
         21    1    1    2  502  501 -0.25134611097E+02 -0.12069349213E+00 -0.10580692365E+03  0.10875140613E+03  0.00000000000E+00 0. -1.
<scales pt_clust_5="13000.00000" pt_clust_6="13000.00000" pt_clust_7="13000.00000" pt_clust_8="13000.00000" pt_clust_9="25.13490"></scales>
<clustering>
<clus scale="   25.135">  2  9  1 -1</clus>
<clus scale="   80.975">  5  6 -1 -1</clus>
<clus scale="   91.456">  2  5  1 -1</clus>
<clus scale="   99.669">  7  8 -1 -1</clus>
<clus scale="  108.357">  1  5  2 -1</clus>
</clustering>
</event>
<event>
 9    2  0.5684583E-005  0.1079491E+03  0.7546771E-02  0.1268004E+00
         -1   -1    0    0    0  501 -0.00000000000E+00  0.00000000000E+00  0.36847228784E+02  0.36847228784E+02  0.00000000000E+00 0.  1.
          2   -1    0    0  502    0  0.00000000000E+00 -0.00000000000E+00 -0.68057035533E+03  0.68057035533E+03  0.00000000000E+00 0. -1.
         23    2    1    2    0    0 -0.10395951051E+02 -0.51167076390E+02 -0.15797216551E+03  0.18979154864E+03  0.91320760814E+02 0.  0.
         24    2    1    2    0    0 -0.45761111732E+02  0.48333734104E+02 -0.44681543444E+03  0.45923291623E+03  0.82586982566E+02 0.  0.
        -13    1    4    4    0    0 -0.47046382494E+02 -0.53049241678E+01 -0.28078012259E+03  0.28474371207E+03  0.00000000000E+00 0.  1.
         14    1    4    4    0    0  0.12852707620E+01  0.53638658272E+02 -0.16603531186E+03  0.17448920415E+03  0.00000000000E+00 0. -1.
        -13    1    3    3    0    0  0.28678305455E+02 -0.55028466826E+02 -0.70551404248E+02  0.93957852286E+02  0.00000000000E+00 0.  1.
         13    1    3    3    0    0 -0.39074256506E+02  0.38613904357E+01 -0.87420761261E+02  0.95833696355E+02  0.00000000000E+00 0. -1.
         21    1    1    2  502  501  0.56157062782E+02  0.28333422864E+01 -0.38935526590E+02  0.68393119243E+02  0.00000000000E+00 0.  1.
<scales pt_clust_5="13000.00000" pt_clust_6="13000.00000" pt_clust_7="13000.00000" pt_clust_8="13000.00000" pt_clust_9="56.22849"></scales>
<clustering>
<clus scale="   56.228">  1  9  2 -1</clus>
<clus scale="   82.587">  5  6 -1 -1</clus>
<clus scale="   91.321">  7  8 -1 -1</clus>
<clus scale="  100.668">  2  5  1 -1</clus>
<clus scale="  100.668">  2  5  1 -1</clus>
</clustering>
</event>
<event>
 9    2  0.5684583E-005  0.1215199E+03  0.7546771E-02  0.1250640E+00
          2   -1    0    0  502    0  0.00000000000E+00  0.00000000000E+00  0.17197182658E+03  0.17197182658E+03  0.00000000000E+00 0. -1.
         -1   -1    0    0    0  501 -0.00000000000E+00 -0.00000000000E+00 -0.91618629615E+02  0.91618629615E+02  0.00000000000E+00 0.  1.
         24    2    1    2    0    0  0.21372855445E+02  0.64521160268E+02  0.18500165109E+02  0.93938227362E+02  0.62147850958E+02 0.  0.
         23    2    1    2    0    0 -0.29713158853E+02 -0.88561460398E+02  0.48154846255E+02  0.14075349218E+03  0.93630402468E+02 0.  0.
        -11    1    3    3    0    0  0.26580561869E+02  0.55772481033E+02  0.37578288677E+02  0.72313371445E+02  0.00000000000E+00 0.  1.
         12    1    3    3    0    0 -0.52077064237E+01  0.87486792354E+01 -0.19078123568E+02  0.21624855917E+02  0.00000000000E+00 0. -1.
        -11    1    4    4    0    0  0.16696157025E+02 -0.13808510839E+02  0.48112321465E+02  0.52765823293E+02  0.00000000000E+00 0.  1.
         11    1    4    4    0    0 -0.46409315878E+02 -0.74752949559E+02  0.42524790223E-01  0.87987668888E+02  0.00000000000E+00 0. -1.
         21    1    1    2  502  501  0.83403034081E+01  0.24040300130E+02  0.13698185600E+02  0.28898736651E+02  0.00000000000E+00 0.  1.
<scales pt_clust_5="13000.00000" pt_clust_6="13000.00000" pt_clust_7="13000.00000" pt_clust_8="13000.00000" pt_clust_9="25.44596"></scales>
<clustering>
<clus scale="   25.446">  1  9  2 -1</clus>
<clus scale="   62.148">  5  6 -1 -1</clus>
<clus scale="   93.630">  7  8 -1 -1</clus>
<clus scale="   99.312">  2  5  1 -1</clus>
<clus scale="   25.446">  1  5  2 -1</clus>
</clustering>
</event>
<event>
 9    2  0.5684583E-005  0.1343280E+03  0.7546771E-02  0.1224762E+00
          2   -1    0    0  502    0  0.00000000000E+00  0.00000000000E+00  0.18566103815E+04  0.18566103815E+04  0.00000000000E+00 0. -1.
         -1   -1    0    0    0  501 -0.00000000000E+00 -0.00000000000E+00 -0.58402130225E+02  0.58402130225E+02  0.00000000000E+00 0.  1.
         23    2    1    2    0    0  0.25145363271E+02 -0.66013528781E+02  0.23265720381E+03  0.26106379895E+03  0.95051866672E+02 0.  0.
         24    2    1    2    0    0 -0.24661918747E+02  0.96245256535E+02  0.16017073203E+04  0.16068162701E+04  0.80751633847E+02 0.  0.
        -13    1    4    4    0    0 -0.23219861556E+02  0.11746259800E+02  0.12434061015E+03  0.12703434151E+03  0.00000000000E+00 0.  1.
         14    1    4    4    0    0 -0.14420571906E+01  0.84498996735E+02  0.14773667101E+04  0.14797819286E+04  0.00000000000E+00 0. -1.
        -13    1    3    3    0    0  0.32987796727E+02  0.64008189605E+01  0.13568076807E+03  0.13977995579E+03  0.00000000000E+00 0. -1.
         13    1    3    3    0    0 -0.78424334558E+01 -0.72414347742E+02  0.96976435738E+02  0.12128384315E+03  0.00000000000E+00 0.  1.
         21    1    1    2  502  501 -0.48344452452E+00 -0.30231727754E+02 -0.36156272863E+02  0.47132442637E+02  0.00000000000E+00 0.  1.
<scales pt_clust_5="13000.00000" pt_clust_6="13000.00000" pt_clust_7="13000.00000" pt_clust_8="13000.00000" pt_clust_9="30.23559"></scales>
<clustering>
<clus scale="   30.236">  2  9  1 -1</clus>
<clus scale="   80.752">  5  6 -1 -1</clus>
<clus scale="   95.052">  7  8 -1 -1</clus>
<clus scale="  124.619">  1  5  2 -1</clus>
<clus scale="  124.619">  1  5  2 -1</clus>
</clustering>
</event>
<event>
 9    2  0.5684583E-005  0.9651571E+02  0.7546771E-02  0.1293750E+00
         -3   -1    0    0    0  501 -0.00000000000E+00  0.00000000000E+00  0.73097241928E+02  0.73097241928E+02  0.00000000000E+00 0.  1.
          4   -1    0    0  502    0  0.00000000000E+00 -0.00000000000E+00 -0.46742666841E+03  0.46742666841E+03  0.00000000000E+00 0. -1.
         24    2    1    2    0    0  0.28954578763E+02 -0.26256487059E+01 -0.61273995924E+02  0.10510090413E+03  0.80289699281E+02 0.  0.
         23    2    1    2    0    0 -0.26982400634E+02 -0.21349247619E+02 -0.37479460612E+03  0.38724786824E+03  0.91137667086E+02 0.  0.
        -13    1    3    3    0    0  0.16008640016E+02 -0.32304947007E+02 -0.29151263958E+00  0.36055112479E+02  0.00000000000E+00 0.  1.
         14    1    3    3    0    0  0.12945938747E+02  0.29679298301E+02 -0.60982483284E+02  0.69045791654E+02  0.00000000000E+00 0. -1.
        -11    1    4    4    0    0 -0.56206190006E+02 -0.66496192137E+00 -0.28665191125E+03  0.29211110249E+03  0.00000000000E+00 0. -1.
         11    1    4    4    0    0  0.29223789373E+02 -0.20684285698E+02 -0.88142694867E+02  0.95136765756E+02  0.00000000000E+00 0.  1.
         21    1    1    2  502  501 -0.19721781290E+01  0.23974896325E+02  0.41739175568E+02  0.48175137960E+02  0.00000000000E+00 0.  1.
<scales pt_clust_5="13000.00000" pt_clust_6="13000.00000" pt_clust_7="13000.00000" pt_clust_8="13000.00000" pt_clust_9="24.05588"></scales>
<clustering>
<clus scale="   24.056">  1  9  2 -1</clus>
<clus scale="   80.290">  5  6 -1 -1</clus>
<clus scale="   86.346">  1  5  2 -1</clus>
<clus scale="   91.138">  7  8 -1 -1</clus>
<clus scale="   96.516">  2  5  1 -1</clus>
</clustering>
</event>
<event>
 9    2  0.5684583E-005  0.1165263E+03  0.7546771E-02  0.1252750E+00
         -1   -1    0    0    0  501 -0.00000000000E+00  0.00000000000E+00  0.10537032579E+03  0.10537032579E+03  0.00000000000E+00 0.  1.
          2   -1    0    0  502    0  0.00000000000E+00 -0.00000000000E+00 -0.74055119642E+03  0.74055119642E+03  0.00000000000E+00 0. -1.
         23    2    1    2    0    0 -0.30646280800E+01  0.32398468662E+02  0.62009211414E+02  0.11543034462E+03  0.91760391462E+02 0.  0.
         24    2    1    2    0    0  0.31916094718E-01 -0.73777508272E+02 -0.67430677463E+03  0.68310902885E+03  0.80654803012E+02 0.  0.
        -11    1    4    4    0    0 -0.22811429931E+02 -0.12008457158E+02 -0.60285710493E+02  0.65566235735E+02  0.00000000000E+00 0.  1.
         12    1    4    4    0    0  0.22843346026E+02 -0.61769051115E+02 -0.61402106413E+03  0.61754279312E+03  0.00000000000E+00 0. -1.
        -11    1    3    3    0    0 -0.35162366794E+02 -0.42641908095E+01 -0.14156855047E+01  0.35448265504E+02  0.00000000000E+00 0. -1.
         11    1    3    3    0    0  0.32097738713E+02  0.36662659472E+02  0.63424896919E+02  0.79982079113E+02  0.00000000000E+00 0.  1.
         21    1    1    2  502  501  0.30327119853E+01  0.41379039610E+02 -0.22883307410E+02  0.47382148739E+02  0.00000000000E+00 0.  1.
<scales pt_clust_5="13000.00000" pt_clust_6="13000.00000" pt_clust_7="13000.00000" pt_clust_8="13000.00000" pt_clust_9="41.49003"></scales>
<clustering>
<clus scale="   41.490">  1  9  2 -1</clus>
<clus scale="   80.655">  5  6 -1 -1</clus>
<clus scale="   91.760">  7  8 -1 -1</clus>
<clus scale="  107.998">  2  5  1 -1</clus>
<clus scale="  107.998">  2  5  1 -1</clus>
</clustering>
</event>
<event>
 9    2  0.5684583E-005  0.1324636E+03  0.7546771E-02  0.1227240E+00
          2   -1    0    0  502    0  0.00000000000E+00  0.00000000000E+00  0.10642218029E+03  0.10642218029E+03  0.00000000000E+00 0. -1.
         -1   -1    0    0    0  501 -0.00000000000E+00 -0.00000000000E+00 -0.12098011729E+04  0.12098011729E+04  0.00000000000E+00 0.  1.
         24    2    1    2    0    0  0.34705374093E+02 -0.18821647726E+03 -0.89483306120E+03  0.91855657493E+03  0.79937904839E+02 0.  0.
         23    2    1    2    0    0 -0.12270231219E+02  0.87918935903E+02  0.34900509121E+02  0.13341481168E+03  0.93280054533E+02 0.  0.
        -13    1    3    3    0    0  0.35198832331E+02 -0.14370700757E+03 -0.80285149393E+03  0.81637073878E+03  0.00000000000E+00 0.  1.
         14    1    3    3    0    0 -0.49345823813E+00 -0.44509469697E+02 -0.91981567263E+02  0.10218583615E+03  0.00000000000E+00 0. -1.
        -11    1    4    4    0    0 -0.52851376414E+02  0.50836007404E+02  0.25533333437E+02  0.77649975879E+02  0.00000000000E+00 0. -1.
         11    1    4    4    0    0  0.40581145195E+02  0.37082928500E+02  0.93671756845E+01  0.55764835800E+02  0.00000000000E+00 0.  1.
         21    1    1    2  502  501 -0.22435142874E+02  0.10029754136E+03 -0.24344644056E+03  0.26425196661E+03  0.00000000000E+00 0. -1.
<scales pt_clust_5="13000.00000" pt_clust_6="13000.00000" pt_clust_7="13000.00000" pt_clust_8="13000.00000" pt_clust_9="102.77613"></scales>
<clustering>
<clus scale="   79.938">  5  6 -1 -1</clus>
<clus scale="   93.280">  7  8 -1 -1</clus>
<clus scale="  102.776">  2  9  1 -1</clus>
<clus scale="  123.432">  2  5  1 -1</clus>
<clus scale="  132.464">  1  5  2 -1</clus>
</clustering>
</event>
<event>
 9    2  0.5684583E-005  0.9733324E+02  0.7546771E-02  0.1291894E+00
          2   -1    0    0  502    0  0.00000000000E+00  0.00000000000E+00  0.48575074546E+03  0.48575074546E+03  0.00000000000E+00 0. -1.
         -1   -1    0    0    0  501 -0.00000000000E+00 -0.00000000000E+00 -0.45448940452E+03  0.45448940452E+03  0.00000000000E+00 0.  1.
         23    2    1    2    0    0 -0.52923410242E+02  0.31080380845E+02 -0.37450473679E+03  0.39012105982E+03  0.90408882402E+02 0.  0.
         24    2    1    2    0    0 -0.12907256488E+02 -0.33957441084E+02  0.45787158145E+03  0.46611350894E+03  0.79345529442E+02 0.  0.
        -11    1    4    4    0    0 -0.22232527067E+02  0.21376718304E+02  0.14409829632E+03  0.14736203157E+03  0.00000000000E+00 0.  1.
         12    1    4    4    0    0  0.93252705797E+01 -0.55334159388E+02  0.31377328512E+03  0.31875147737E+03  0.00000000000E+00 0. -1.
        -11    1    3    3    0    0 -0.58920483503E+02  0.55968754932E+02 -0.24550482322E+03  0.25860538109E+03  0.00000000000E+00 0.  1.
         11    1    3    3    0    0  0.59970732611E+01 -0.24888374087E+02 -0.12899991356E+03  0.13151567873E+03  0.00000000000E+00 0. -1.
         21    1    1    2  502  501  0.65830666729E+02  0.28770602388E+01 -0.52105503726E+02  0.84005581220E+02  0.00000000000E+00 0. -1.
<scales pt_clust_5="13000.00000" pt_clust_6="13000.00000" pt_clust_7="13000.00000" pt_clust_8="13000.00000" pt_clust_9="65.89351"></scales>
<clustering>
<clus scale="   65.894">  2  9  1 -1</clus>
<clus scale="   79.346">  5  6 -1 -1</clus>
<clus scale="   87.153">  1  5  2 -1</clus>
<clus scale="   90.409">  7  8 -1 -1</clus>
<clus scale="   87.153">  1  5  2 -1</clus>
</clustering>
</event>
<event>
 9    2  0.5684583E-005  0.1953767E+03  0.7546771E-02  0.1155323E+00
          2   -1    0    0  502    0  0.00000000000E+00  0.00000000000E+00  0.21656075174E+04  0.21656075174E+04  0.00000000000E+00 0. -1.
         -1   -1    0    0    0  501 -0.00000000000E+00 -0.00000000000E+00 -0.28562878665E+02  0.28562878665E+02  0.00000000000E+00 0.  1.
         23    2    1    2    0    0 -0.17275416315E+03 -0.40769146732E+02  0.53241738082E+03  0.57114246391E+03  0.10596849755E+03 0.  0.
         24    2    1    2    0    0  0.15256343634E+03  0.50004398719E+02  0.15759344836E+04  0.15867480393E+04  0.91781270114E+02 0.  0.
        -11    1    4    4    0    0  0.13219539564E+02  0.21383300840E+02  0.75289883065E+02  0.79376119035E+02  0.00000000000E+00 0.  1.
         12    1    4    4    0    0  0.13934389677E+03  0.28621097879E+02  0.15006446006E+04  0.15073719203E+04  0.00000000000E+00 0. -1.
        -13    1    3    3    0    0 -0.79758006432E+02 -0.41750821339E+01  0.38397982230E+03  0.39219800463E+03  0.00000000000E+00 0. -1.
         13    1    3    3    0    0 -0.92996156722E+02 -0.36594064598E+02  0.14843755852E+03  0.17894445928E+03  0.00000000000E+00 0.  1.
         21    1    1    2  502  501  0.20190726819E+02 -0.92352519875E+01  0.28692774269E+02  0.36279892833E+02  0.00000000000E+00 0. -1.
<scales pt_clust_5="13000.00000" pt_clust_6="13000.00000" pt_clust_7="13000.00000" pt_clust_8="13000.00000" pt_clust_9="22.20260"></scales>
<clustering>
<clus scale="   22.203">  2  9  1 -1</clus>
<clus scale="   91.781">  5  6 -1 -1</clus>
<clus scale="  105.968">  7  8 -1 -1</clus>
<clus scale="  188.060">  1  5  2 -1</clus>
<clus scale="  188.060">  1  5  2 -1</clus>
</clustering>
</event>
<event>
 9    2  0.5684583E-005  0.9837310E+02  0.7546771E-02  0.1289646E+00
         -1   -1    0    0    0  501 -0.00000000000E+00  0.00000000000E+00  0.17764133506E+03  0.17764133506E+03  0.00000000000E+00 0.  1.
          2   -1    0    0  502    0  0.00000000000E+00 -0.00000000000E+00 -0.74175705468E+03  0.74175705468E+03  0.00000000000E+00 0. -1.
         23    2    1    2    0    0 -0.52404851174E+02  0.33309072141E+01 -0.12225211539E+02  0.10540939015E+03  0.90577703462E+02 0.  0.
         24    2    1    2    0    0  0.23780535757E+02  0.30709301374E+02 -0.67621485498E+03  0.68194873882E+03  0.79239997532E+02 0.  0.
        -13    1    4    4    0    0  0.28589556690E+02  0.36538581276E+02 -0.18678542692E+03  0.19246097366E+03  0.00000000000E+00 0.  1.
         14    1    4    4    0    0 -0.48090209331E+01 -0.58292799014E+01 -0.48942942806E+03  0.48948776516E+03  0.00000000000E+00 0. -1.
        -11    1    3    3    0    0 -0.41999042384E+02 -0.36092629479E+02  0.13758123230E+02  0.57060348919E+02  0.00000000000E+00 0.  1.
         11    1    3    3    0    0 -0.10405808790E+02  0.39423536693E+02 -0.25983334768E+02  0.48349041228E+02  0.00000000000E+00 0. -1.
         21    1    1    2  502  501  0.28624315417E+02 -0.34040208589E+02  0.12432434690E+03  0.13204026077E+03  0.00000000000E+00 0. -1.
<scales pt_clust_5="13000.00000" pt_clust_6="13000.00000" pt_clust_7="13000.00000" pt_clust_8="13000.00000" pt_clust_9="44.47569"></scales>
<clustering>
<clus scale="   44.476">  1  9  2 -1</clus>
<clus scale="   79.240">  5  6 -1 -1</clus>
<clus scale="   88.045">  2  5  1 -1</clus>
<clus scale="   90.578">  7  8 -1 -1</clus>
<clus scale="   88.045">  2  5  1 -1</clus>
</clustering>
</event>
<event>
 9    2  0.5684583E-005  0.1034195E+03  0.7546771E-02  0.1282228E+00
          4   -1    0    0  502    0  0.00000000000E+00  0.00000000000E+00  0.12666199242E+03  0.12666199242E+03  0.00000000000E+00 0. -1.
         -3   -1    0    0    0  501 -0.00000000000E+00 -0.00000000000E+00 -0.78971403446E+03  0.78971403446E+03  0.00000000000E+00 0.  1.
         24    2    1    2    0    0  0.73074505946E+01  0.52900301098E+02 -0.68799710806E+03  0.69371593977E+03  0.71062955951E+02 0.  0.
         23    2    1    2    0    0  0.33638847330E+02 -0.38259275803E+02  0.94735526395E+02  0.14043072925E+03  0.90280814798E+02 0.  0.
        -13    1    3    3    0    0  0.18153465078E+02  0.29566351824E+02 -0.11447922522E+03  0.11962111210E+03  0.00000000000E+00 0.  1.
         14    1    3    3    0    0 -0.10846014483E+02  0.23333949274E+02 -0.57351788284E+03  0.57409482767E+03  0.00000000000E+00 0. -1.
        -11    1    4    4    0    0  0.13341570291E+02 -0.63575632961E+02  0.38520117630E+02  0.75522566604E+02  0.00000000000E+00 0. -1.
         11    1    4    4    0    0  0.20297277039E+02  0.25316357158E+02  0.56215408766E+02  0.64908162642E+02  0.00000000000E+00 0.  1.
         21    1    1    2  502  501 -0.40946297925E+02 -0.14641025296E+02 -0.69790460376E+02  0.82229357865E+02  0.00000000000E+00 0. -1.
<scales pt_clust_5="13000.00000" pt_clust_6="13000.00000" pt_clust_7="13000.00000" pt_clust_8="13000.00000" pt_clust_9="43.48516"></scales>
<clustering>
<clus scale="   43.485">  2  9  1 -1</clus>
<clus scale="   71.063">  5  6 -1 -1</clus>
<clus scale="   87.149">  2  5  1 -1</clus>
<clus scale="   90.281">  7  8 -1 -1</clus>
<clus scale="  103.419">  1  5  2 -1</clus>
</clustering>
</event>
<event>
 9    2  0.5684583E-005  0.4688372E+03  0.7546771E-02  0.1022420E+00
          2   -1    0    0  502    0  0.00000000000E+00  0.00000000000E+00  0.35111905151E+03  0.35111905151E+03  0.00000000000E+00 0. -1.
         -1   -1    0    0    0  501 -0.00000000000E+00 -0.00000000000E+00 -0.73224701170E+03  0.73224701170E+03  0.00000000000E+00 0.  1.
         24    2    1    2    0    0  0.15809581912E+03  0.45985327658E+03 -0.27881258970E+03  0.56634971325E+03  0.80970448365E+02 0.  0.
         23    2    1    2    0    0 -0.14413416851E+03 -0.41876330928E+03 -0.60466072315E+02  0.45672806870E+03  0.93845698378E+02 0.  0.
        -13    1    3    3    0    0 -0.19629706673E+00  0.31133369470E+02 -0.24903627464E+00  0.31134984280E+02  0.00000000000E+00 0.  1.
         14    1    3    3    0    0  0.15829211618E+03  0.42871990711E+03 -0.27856355343E+03  0.53521472896E+03  0.00000000000E+00 0. -1.
        -11    1    4    4    0    0 -0.32853892267E+02 -0.77599572194E+02  0.24881944173E+02  0.87864571858E+02  0.00000000000E+00 0. -1.
         11    1    4    4    0    0 -0.11128027624E+03 -0.34116373709E+03 -0.85348016488E+02  0.36886349684E+03  0.00000000000E+00 0.  1.
         21    1    1    2  502  501 -0.13961650606E+02 -0.41089967303E+02 -0.41849298167E+02  0.60288281263E+02  0.00000000000E+00 0. -1.
<scales pt_clust_5="13000.00000" pt_clust_6="13000.00000" pt_clust_7="13000.00000" pt_clust_8="13000.00000" pt_clust_9="43.39716"></scales>
<clustering>
<clus scale="   43.397">  2  9  1 -1</clus>
<clus scale="   80.970">  5  6 -1 -1</clus>
<clus scale="   93.846">  7  8 -1 -1</clus>
<clus scale="  466.431">  2  5  1 -1</clus>
<clus scale="  468.837">  1  5  2 -1</clus>
</clustering>
</event>
<event>
 9    2  0.5684583E-005  0.9834547E+02  0.7546771E-02  0.1288933E+00
         -3   -1    0    0    0  501 -0.00000000000E+00  0.00000000000E+00  0.21156977326E+03  0.21156977326E+03  0.00000000000E+00 0.  1.
          4   -1    0    0  502    0  0.00000000000E+00 -0.00000000000E+00 -0.97254017047E+02  0.97254017047E+02  0.00000000000E+00 0. -1.
         23    2    1    2    0    0  0.10364969457E+02 -0.17421472752E+02  0.11922359716E+03  0.15107877505E+03  0.90551586669E+02 0.  0.
         24    2    1    2    0    0 -0.42387779267E+02  0.89126531748E+01 -0.48021098077E+02  0.10337026652E+03  0.80642587527E+02 0.  0.
        -11    1    4    4    0    0  0.16675240180E+02  0.17940809776E+02  0.31607644141E+01  0.24696694559E+02  0.00000000000E+00 0.  1.
         12    1    4    4    0    0 -0.59063019447E+02 -0.90281566011E+01 -0.51181862491E+02  0.78673571966E+02  0.00000000000E+00 0. -1.
        -11    1    3    3    0    0  0.25890549719E+02  0.20742876348E+01 -0.31766174026E+01  0.26167042861E+02  0.00000000000E+00 0. -1.
         11    1    3    3    0    0 -0.15525580262E+02 -0.19495760387E+02  0.12240021456E+03  0.12491173219E+03  0.00000000000E+00 0.  1.
         21    1    1    2  502  501  0.32022809810E+02  0.85088195771E+01  0.43113257137E+02  0.54374748732E+02  0.00000000000E+00 0. -1.
<scales pt_clust_5="13000.00000" pt_clust_6="13000.00000" pt_clust_7="13000.00000" pt_clust_8="13000.00000" pt_clust_9="33.13398"></scales>
<clustering>
<clus scale="   33.134">  1  9  2 -1</clus>
<clus scale="   80.643">  5  6 -1 -1</clus>
<clus scale="   89.305">  2  5  1 -1</clus>
<clus scale="   90.552">  7  8 -1 -1</clus>
<clus scale="   89.305">  2  5  1 -1</clus>
</clustering>
</event>
<event>
 9    2  0.5684583E-005  0.9534170E+02  0.7546771E-02  0.1298000E+00
         -1   -1    0    0    0  501 -0.00000000000E+00  0.00000000000E+00  0.14027739204E+02  0.14027739204E+02  0.00000000000E+00 0.  1.
          2   -1    0    0  502    0  0.00000000000E+00 -0.00000000000E+00 -0.10652234090E+04  0.10652234090E+04  0.00000000000E+00 0. -1.
         23    2    1    2    0    0  0.20939898167E+02  0.40243240738E+02 -0.37396449449E+03  0.38772834745E+03  0.91792322752E+02 0.  0.
         24    2    1    2    0    0 -0.23438072924E+02 -0.60204512542E+00 -0.58988700718E+03  0.59557141216E+03  0.78669689397E+02 0.  0.
        -11    1    4    4    0    0  0.25309807930E+02 -0.15771314138E+02 -0.17049557754E+03  0.17308397583E+03  0.00000000000E+00 0.  1.
         12    1    4    4    0    0 -0.48747880855E+02  0.15169269013E+02 -0.41939142963E+03  0.42248743633E+03  0.00000000000E+00 0. -1.
        -13    1    3    3    0    0  0.25109772556E+02  0.67168912807E+02 -0.22059964706E+03  0.23196199648E+03  0.00000000000E+00 0. -1.
         13    1    3    3    0    0 -0.41698743889E+01 -0.26925672068E+02 -0.15336484743E+03  0.15576635097E+03  0.00000000000E+00 0.  1.
         21    1    1    2  502  501  0.24981747576E+01 -0.39641195613E+02 -0.87344168141E+02  0.95951388604E+02  0.00000000000E+00 0.  1.
<scales pt_clust_5="13000.00000" pt_clust_6="13000.00000" pt_clust_7="13000.00000" pt_clust_8="13000.00000" pt_clust_9="39.71983"></scales>
<clustering>
<clus scale="   39.720">  1  9  2 -1</clus>
<clus scale="   78.670">  5  6 -1 -1</clus>
<clus scale="   82.784">  2  5  1 -1</clus>
<clus scale="   91.792">  7  8 -1 -1</clus>
<clus scale="   82.784">  2  5  1 -1</clus>
</clustering>
</event>
<event>
 9    2  0.5684583E-005  0.2524448E+03  0.7546771E-02  0.1111769E+00
          2   -1    0    0  502    0  0.00000000000E+00  0.00000000000E+00  0.10607953053E+03  0.10607953053E+03  0.00000000000E+00 0. -1.
         -1   -1    0    0    0  501 -0.00000000000E+00 -0.00000000000E+00 -0.46084591603E+03  0.46084591603E+03  0.00000000000E+00 0.  1.
         24    2    1    2    0    0 -0.68614294570E+02 -0.37030876602E+02 -0.10695778938E+03  0.15435426721E+03  0.79410728837E+02 0.  0.
         23    2    1    2    0    0 -0.94785878173E+02 -0.50770207904E+02 -0.13584139487E+03  0.19590253591E+03  0.91449124133E+02 0.  0.
        -11    1    3    3    0    0 -0.64596202834E+02  0.46325808260E+01 -0.42374613603E+02  0.77393398321E+02  0.00000000000E+00 0.  1.
         12    1    3    3    0    0 -0.40180917361E+01 -0.41663457428E+02 -0.64583175780E+02  0.76960868887E+02  0.00000000000E+00 0. -1.
        -13    1    4    4    0    0 -0.89146131469E+01  0.19060544322E+02 -0.54867245172E+02  0.58763843221E+02  0.00000000000E+00 0.  1.
         13    1    4    4    0    0 -0.85871265026E+02 -0.69830752226E+02 -0.80974149701E+02  0.13713869269E+03  0.00000000000E+00 0. -1.
         21    1    1    2  502  501  0.16340017274E+03  0.87801084507E+02 -0.11196720125E+03  0.21666864344E+03  0.00000000000E+00 0. -1.
<scales pt_clust_5="13000.00000" pt_clust_6="13000.00000" pt_clust_7="13000.00000" pt_clust_8="13000.00000" pt_clust_9="185.49568"></scales>
<clustering>
<clus scale="   79.411">  5  6 -1 -1</clus>
<clus scale="   91.449">  7  8 -1 -1</clus>
<clus scale="   91.454">  5  7 -1 -1</clus>
<clus scale="  185.496">  1  9  2 -1</clus>
<clus scale="  185.496">  1  5  2 -1</clus>
</clustering>
</event>
<event>
 9    2  0.5684583E-005  0.1180330E+03  0.7546771E-02  0.1248917E+00
          2   -1    0    0  502    0  0.00000000000E+00  0.00000000000E+00  0.23852963895E+03  0.23852963895E+03  0.00000000000E+00 0. -1.
         -1   -1    0    0    0  501 -0.00000000000E+00 -0.00000000000E+00 -0.61644814050E+03  0.61644814050E+03  0.00000000000E+00 0.  1.
         24    2    1    2    0    0  0.84643849395E+02  0.97807183190E+02 -0.77049757771E+02  0.17214173795E+03  0.83458291672E+02 0.  0.
         23    2    1    2    0    0 -0.60881351309E+02 -0.31285235485E+02  0.17110092832E+03  0.20560947349E+03  0.91183458047E+02 0.  0.
        -11    1    3    3    0    0  0.81915637172E+02  0.10952884017E+03 -0.81612045211E+02  0.15927104057E+03  0.00000000000E+00 0.  1.
         12    1    3    3    0    0  0.27282122231E+01 -0.11721656980E+02  0.45622874403E+01  0.12870697377E+02  0.00000000000E+00 0. -1.
        -11    1    4    4    0    0 -0.62644488786E+02  0.80252538422E-01  0.49000100201E+02  0.79532057910E+02  0.00000000000E+00 0.  1.
         11    1    4    4    0    0  0.17631374777E+01 -0.31365488023E+02  0.12210082811E+03  0.12607741558E+03  0.00000000000E+00 0. -1.
         21    1    1    2  502  501 -0.23762498086E+02 -0.66521947705E+02 -0.47196967210E+03  0.47722656802E+03  0.00000000000E+00 0.  1.
<scales pt_clust_5="13000.00000" pt_clust_6="13000.00000" pt_clust_7="13000.00000" pt_clust_8="13000.00000" pt_clust_9="70.63870"></scales>
<clustering>
<clus scale="   70.639">  2  9  1 -1</clus>
<clus scale="   83.458">  5  6 -1 -1</clus>
<clus scale="   91.183">  7  8 -1 -1</clus>
<clus scale="  112.172">  2  5  1 -1</clus>
<clus scale="  118.033">  1  5  2 -1</clus>
</clustering>
</event>
<event>
 9    2  0.5684583E-005  0.9975871E+02  0.7546771E-02  0.1287683E+00
          2   -1    0    0  502    0  0.00000000000E+00  0.00000000000E+00  0.70480104493E+03  0.70480104493E+03  0.00000000000E+00 0. -1.
         -1   -1    0    0    0  501 -0.00000000000E+00 -0.00000000000E+00 -0.38562157733E+03  0.38562157733E+03  0.00000000000E+00 0.  1.
         23    2    1    2    0    0 -0.66449272536E+02 -0.10809969761E+02 -0.58967554326E+02  0.12894643338E+03  0.92831292955E+02 0.  0.
         24    2    1    2    0    0  0.29979597220E+02  0.19487756920E+02  0.66574689828E+03  0.67144338025E+03  0.79616150320E+02 0.  0.
        -11    1    4    4    0    0 -0.20491187052E+02  0.22024607410E+02  0.13577863832E+03  0.13907124326E+03  0.00000000000E+00 0.  1.
         12    1    4    4    0    0  0.50470784272E+02 -0.25368504900E+01  0.52996825996E+03  0.53237213699E+03  0.00000000000E+00 0. -1.
        -13    1    3    3    0    0 -0.62878341179E+02 -0.43058558879E+02 -0.21091148543E+02  0.79073142274E+02  0.00000000000E+00 0. -1.
         13    1    3    3    0    0 -0.35709313567E+01  0.32248589118E+02 -0.37876405783E+02  0.49873291107E+02  0.00000000000E+00 0.  1.
         21    1    1    2  502  501  0.36469675316E+02 -0.86777871584E+01 -0.28759987635E+03  0.29003280863E+03  0.00000000000E+00 0.  1.
<scales pt_clust_5="13000.00000" pt_clust_6="13000.00000" pt_clust_7="13000.00000" pt_clust_8="13000.00000" pt_clust_9="37.48788"></scales>
<clustering>
<clus scale="   37.488">  2  9  1 -1</clus>
<clus scale="   79.616">  5  6 -1 -1</clus>
<clus scale="   87.595">  1  5  2 -1</clus>
<clus scale="   92.831">  7  8 -1 -1</clus>
<clus scale="   87.595">  1  5  2 -1</clus>
</clustering>
</event>
<event>
 9    2  0.5684583E-005  0.1087414E+03  0.7546771E-02  0.1268159E+00
          2   -1    0    0  502    0  0.00000000000E+00  0.00000000000E+00  0.58568416912E+03  0.58568416912E+03  0.00000000000E+00 0. -1.
         -1   -1    0    0    0  501 -0.00000000000E+00 -0.00000000000E+00 -0.10554104312E+03  0.10554104312E+03  0.00000000000E+00 0.  1.
         23    2    1    2    0    0 -0.62355677330E+02 -0.13609605144E+02 -0.57957824238E+02  0.12582797326E+03  0.91652155546E+02 0.  0.
         24    2    1    2    0    0 -0.10818297353E+02  0.24202897292E+02  0.40193835939E+03  0.41045563851E+03  0.78845232207E+02 0.  0.
        -11    1    4    4    0    0  0.25839742104E+02 -0.11630796152E+02  0.90686304838E+02  0.95010386676E+02  0.00000000000E+00 0.  1.
         12    1    4    4    0    0 -0.36658039458E+02  0.35833693444E+02  0.31125205455E+03  0.31544525184E+03  0.00000000000E+00 0. -1.
        -11    1    3    3    0    0 -0.86256162610E+02 -0.55226211125E+01 -0.45870982935E+02  0.97850763961E+02  0.00000000000E+00 0.  1.
         11    1    3    3    0    0  0.23900485281E+02 -0.80869840313E+01 -0.12086841302E+02  0.27977209297E+02  0.00000000000E+00 0. -1.
         21    1    1    2  502  501  0.73173974683E+02 -0.10593292149E+02  0.13616259085E+03  0.15494160047E+03  0.00000000000E+00 0. -1.
<scales pt_clust_5="13000.00000" pt_clust_6="13000.00000" pt_clust_7="13000.00000" pt_clust_8="13000.00000" pt_clust_9="73.93679"></scales>
<clustering>
<clus scale="   73.937">  1  9  2 -1</clus>
<clus scale="   78.845">  5  6 -1 -1</clus>
<clus scale="   91.652">  7  8 -1 -1</clus>
<clus scale="   98.189">  1  5  2 -1</clus>
<clus scale="   73.937">  1  5  2 -1</clus>
</clustering>
</event>
<event>
 9    2  0.5684583E-005  0.1310493E+03  0.7546771E-02  0.1227546E+00
          2   -1    0    0  502    0  0.00000000000E+00  0.00000000000E+00  0.14292132111E+03  0.14292132111E+03  0.00000000000E+00 0. -1.
         -1   -1    0    0    0  501 -0.00000000000E+00 -0.00000000000E+00 -0.27133871639E+03  0.27133871639E+03  0.00000000000E+00 0.  1.
         23    2    1    2    0    0  0.38865945770E+02  0.78893984177E+02 -0.10841895371E+03  0.16802568565E+03  0.93504754072E+02 0.  0.
         24    2    1    2    0    0 -0.18669018850E+02 -0.91573143187E+02  0.75039440032E+02  0.14825029259E+03  0.87252844502E+02 0.  0.
        -13    1    4    4    0    0  0.19597810882E+02 -0.25793549744E+02 -0.10219787056E+02  0.33968006230E+02  0.00000000000E+00 0.  1.
         14    1    4    4    0    0 -0.38266829732E+02 -0.65779593443E+02  0.85259227088E+02  0.11428228636E+03  0.00000000000E+00 0. -1.
        -11    1    3    3    0    0 -0.65209184309E+01  0.68240956518E+02 -0.99073602119E+02  0.12047791980E+03  0.00000000000E+00 0.  1.
         11    1    3    3    0    0  0.45386864201E+02  0.10653027659E+02 -0.93453515913E+01  0.47547765843E+02  0.00000000000E+00 0. -1.
         21    1    1    2  502  501 -0.20196926921E+02  0.12679159011E+02 -0.95037881601E+02  0.97984059262E+02  0.00000000000E+00 0. -1.
<scales pt_clust_5="13000.00000" pt_clust_6="13000.00000" pt_clust_7="13000.00000" pt_clust_8="13000.00000" pt_clust_9="23.84695"></scales>
<clustering>
<clus scale="   23.847">  2  9  1 -1</clus>
<clus scale="   87.253">  5  6 -1 -1</clus>
<clus scale="   93.505">  7  8 -1 -1</clus>
<clus scale="  126.664">  1  5  2 -1</clus>
<clus scale="  126.664">  1  5  2 -1</clus>
</clustering>
</event>
<event>
 9    2  0.5684583E-005  0.3109488E+03  0.7546771E-02  0.1080469E+00
          2   -1    0    0  502    0  0.00000000000E+00  0.00000000000E+00  0.15465119598E+04  0.15465119598E+04  0.00000000000E+00 0. -1.
         -1   -1    0    0    0  501 -0.00000000000E+00 -0.00000000000E+00 -0.25847953731E+03  0.25847953731E+03  0.00000000000E+00 0.  1.
         23    2    1    2    0    0  0.30181195506E+03  0.23797375340E+03  0.19281584773E+03  0.44033682554E+03  0.94850436256E+02 0.  0.
         24    2    1    2    0    0 -0.22003207432E+03 -0.17860418257E+03  0.11902159586E+04  0.12259550761E+04  0.77706194473E+02 0.  0.
        -11    1    4    4    0    0 -0.97031807642E+02 -0.12830859945E+03  0.66794657809E+03  0.68704504915E+03  0.00000000000E+00 0.  1.
         12    1    4    4    0    0 -0.12300026668E+03 -0.50295583122E+02  0.52226938056E+03  0.53891002695E+03  0.00000000000E+00 0. -1.
        -13    1    3    3    0    0  0.24288149952E+03  0.20149857689E+03  0.19505002543E+03  0.37099543355E+03  0.00000000000E+00 0. -1.
         13    1    3    3    0    0  0.58930455546E+02  0.36475176511E+02 -0.22341776929E+01  0.69341391984E+02  0.00000000000E+00 0.  1.
         21    1    1    2  502  501 -0.81779880744E+02 -0.59369570831E+02 -0.94999383901E+02  0.13869959545E+03  0.00000000000E+00 0.  1.
<scales pt_clust_5="13000.00000" pt_clust_6="13000.00000" pt_clust_7="13000.00000" pt_clust_8="13000.00000" pt_clust_9="101.05788"></scales>
<clustering>
<clus scale="   77.706">  5  6 -1 -1</clus>
<clus scale="   94.850">  7  8 -1 -1</clus>
<clus scale="  101.058">  2  9  1 -1</clus>
<clus scale="  306.155">  1  5  2 -1</clus>
<clus scale="  306.155">  1  5  2 -1</clus>
</clustering>
</event>
<event>
 9    2  0.5684583E-005  0.9656759E+02  0.7546771E-02  0.1299241E+00
          2   -1    0    0  502    0  0.00000000000E+00  0.00000000000E+00  0.29110024787E+02  0.29110024787E+02  0.00000000000E+00 0. -1.
         -1   -1    0    0    0  501 -0.00000000000E+00 -0.00000000000E+00 -0.37032247001E+03  0.37032247001E+03  0.00000000000E+00 0.  1.
         23    2    1    2    0    0 -0.32557165346E+02  0.47075054001E+01 -0.16373934522E+03  0.19027445631E+03  0.91168338408E+02 0.  0.
         24    2    1    2    0    0  0.29296776309E+02  0.17399418449E+02 -0.93587951960E+02  0.12234753059E+03  0.71057530397E+02 0.  0.
        -13    1    4    4    0    0 -0.22959891114E+02  0.47412526779E+00 -0.19556127121E+02  0.30163280702E+02  0.00000000000E+00 0.  1.
         14    1    4    4    0    0  0.52256667422E+02  0.16925293181E+02 -0.74031824839E+02  0.92184249893E+02  0.00000000000E+00 0. -1.
        -11    1    3    3    0    0 -0.35672167455E+02  0.32210712854E+02 -0.15335716157E+03  0.16071232859E+03  0.00000000000E+00 0.  1.
         11    1    3    3    0    0  0.31150021095E+01 -0.27503207454E+02 -0.10382183651E+02  0.29562127727E+02  0.00000000000E+00 0. -1.
         21    1    1    2  502  501  0.32603890371E+01 -0.22106923849E+02 -0.83885148038E+02  0.86810507890E+02  0.00000000000E+00 0. -1.
<scales pt_clust_5="13000.00000" pt_clust_6="13000.00000" pt_clust_7="13000.00000" pt_clust_8="13000.00000" pt_clust_9="22.34606"></scales>
<clustering>
<clus scale="   22.346">  2  9  1 -1</clus>
<clus scale="   71.058">  5  6 -1 -1</clus>
<clus scale="   77.864">  1  5  2 -1</clus>
<clus scale="   91.168">  7  8 -1 -1</clus>
<clus scale="   77.864">  1  5  2 -1</clus>
</clustering>
</event>
<event>
 9    2  0.5684583E-005  0.1072112E+03  0.7546771E-02  0.1272198E+00
          2   -1    0    0  502    0  0.00000000000E+00  0.00000000000E+00  0.63579154685E+03  0.63579154685E+03  0.00000000000E+00 0. -1.
         -1   -1    0    0    0  501 -0.00000000000E+00 -0.00000000000E+00 -0.79941369767E+02  0.79941369767E+02  0.00000000000E+00 0.  1.
         23    2    1    2    0    0  0.43072451378E+02 -0.13687785110E+02  0.34448459352E+02  0.11026382583E+03  0.94492451582E+02 0.  0.
         24    2    1    2    0    0 -0.37403610489E+02  0.35666578881E+02  0.55598859686E+03  0.56409935136E+03  0.80085101267E+02 0.  0.
        -13    1    4    4    0    0 -0.26245729174E+02 -0.23398804437E+02  0.19715348816E+03  0.20026442580E+03  0.00000000000E+00 0.  1.
         14    1    4    4    0    0 -0.11157881316E+02  0.59065383318E+02  0.35883510870E+03  0.36383492556E+03  0.00000000000E+00 0. -1.
        -13    1    3    3    0    0  0.29581320366E+02  0.26102667133E+02 -0.17746755767E+02  0.43259115644E+02  0.00000000000E+00 0.  1.
         13    1    3    3    0    0  0.13491131012E+02 -0.39790452243E+02  0.52195215119E+02  0.67004710185E+02  0.00000000000E+00 0. -1.
         21    1    1    2  502  501 -0.56688408886E+01 -0.21978793770E+02 -0.34586879124E+02  0.41369739426E+02  0.00000000000E+00 0.  1.
<scales pt_clust_5="13000.00000" pt_clust_6="13000.00000" pt_clust_7="13000.00000" pt_clust_8="13000.00000" pt_clust_9="22.69809"></scales>
<clustering>
<clus scale="   22.698">  2  9  1 -1</clus>
<clus scale="   80.085">  5  6 -1 -1</clus>
<clus scale="   94.492">  7  8 -1 -1</clus>
<clus scale="   94.758">  1  5  2 -1</clus>
<clus scale="   94.758">  1  5  2 -1</clus>
</clustering>
</event>
<event>
 9    2  0.5684583E-005  0.1382171E+03  0.7546771E-02  0.1217885E+00
         -1   -1    0    0    0  501 -0.00000000000E+00  0.00000000000E+00  0.54945424824E+02  0.54945424824E+02  0.00000000000E+00 0.  1.
          2   -1    0    0  502    0  0.00000000000E+00 -0.00000000000E+00 -0.40491927197E+03  0.40491927197E+03  0.00000000000E+00 0. -1.
         24    2    1    2    0    0 -0.82254110343E+02 -0.49651968662E+02 -0.10363818846E+03  0.16311820982E+03  0.81459312597E+02 0.  0.
         23    2    1    2    0    0  0.84283003857E+02  0.70741718281E+02 -0.22629245746E+03  0.26758103029E+03  0.91012724511E+02 0.  0.
        -13    1    3    3    0    0 -0.19041595477E+01 -0.39018517318E+02 -0.12191918132E+02  0.40923262150E+02  0.00000000000E+00 0.  1.
         14    1    3    3    0    0 -0.80349950796E+02 -0.10633451344E+02 -0.91446270325E+02  0.12219494767E+03  0.00000000000E+00 0. -1.
        -11    1    4    4    0    0  0.25031967768E+02  0.75345875436E+02 -0.97492455212E+02  0.12573137707E+03  0.00000000000E+00 0.  1.
         11    1    4    4    0    0  0.59251036089E+02 -0.46041571546E+01 -0.12880000225E+03  0.14184965322E+03  0.00000000000E+00 0. -1.
         21    1    1    2  502  501 -0.20288935140E+01 -0.21089749619E+02 -0.20043201228E+02  0.29165456680E+02  0.00000000000E+00 0. -1.
<scales pt_clust_5="13000.00000" pt_clust_6="13000.00000" pt_clust_7="13000.00000" pt_clust_8="13000.00000" pt_clust_9="21.18712"></scales>
<clustering>
<clus scale="   21.187">  1  9  2 -1</clus>
<clus scale="   81.459">  5  6 -1 -1</clus>
<clus scale="   91.013">  7  8 -1 -1</clus>
<clus scale="  132.122">  1  5  2 -1</clus>
<clus scale="  138.217">  2  5  1 -1</clus>
</clustering>
</event>
<event>
 9    2  0.5684583E-005  0.2540970E+03  0.7546771E-02  0.1111471E+00
          2   -1    0    0  502    0  0.00000000000E+00  0.00000000000E+00  0.33093481936E+03  0.33093481936E+03  0.00000000000E+00 0. -1.
         -1   -1    0    0    0  501 -0.00000000000E+00 -0.00000000000E+00 -0.48116524315E+03  0.48116524315E+03  0.00000000000E+00 0.  1.
         23    2    1    2    0    0 -0.13395741651E+03  0.59114190551E+02 -0.14180934254E+03  0.22427425745E+03  0.93541306182E+02 0.  0.
         24    2    1    2    0    0  0.27831090437E+03 -0.15393986568E+02  0.18392035619E+03  0.34339869066E+03  0.80012680343E+02 0.  0.
        -13    1    4    4    0    0  0.54441204058E+02  0.27345360964E+02  0.51744558809E+02  0.79931926236E+02  0.00000000000E+00 0.  1.
         14    1    4    4    0    0  0.22386970031E+03 -0.42739347532E+02  0.13217579738E+03  0.26346676443E+03  0.00000000000E+00 0. -1.
        -11    1    3    3    0    0 -0.77576234443E+02 -0.11297258863E+02 -0.39185732144E+02  0.87642579902E+02  0.00000000000E+00 0.  1.
         11    1    3    3    0    0 -0.56381182063E+02  0.70411449414E+02 -0.10262361040E+03  0.13663167755E+03  0.00000000000E+00 0. -1.
         21    1    1    2  502  501 -0.14435348786E+03 -0.43720203983E+02 -0.19234143744E+03  0.24442711439E+03  0.00000000000E+00 0.  1.
<scales pt_clust_5="13000.00000" pt_clust_6="13000.00000" pt_clust_7="13000.00000" pt_clust_8="13000.00000" pt_clust_9="150.82899"></scales>
<clustering>
<clus scale="   80.013">  5  6 -1 -1</clus>
<clus scale="   93.541">  7  8 -1 -1</clus>
<clus scale="  150.829">  2  9  1 -1</clus>
<clus scale="  249.434">  1  5  2 -1</clus>
<clus scale="  249.434">  1  5  2 -1</clus>
</clustering>
</event>
<event>
 9    2  0.5684583E-005  0.1015868E+03  0.7546771E-02  0.1281909E+00
         -1   -1    0    0    0  501 -0.00000000000E+00  0.00000000000E+00  0.88070551350E+02  0.88070551350E+02  0.00000000000E+00 0.  1.
          2   -1    0    0  502    0  0.00000000000E+00 -0.00000000000E+00 -0.45652797263E+03  0.45652797263E+03  0.00000000000E+00 0. -1.
         23    2    1    2    0    0 -0.20364481614E+02 -0.44039192386E+02  0.30998593467E+02  0.10764828661E+03  0.90956463413E+02 0.  0.
         24    2    1    2    0    0 -0.10415241667E+01  0.45329644394E+02 -0.40447169093E+03  0.41492662827E+03  0.80690127376E+02 0.  0.
        -13    1    4    4    0    0  0.19900647159E+02 -0.14493339061E+02 -0.63332451059E+02  0.67949186836E+02  0.00000000000E+00 0.  1.
         14    1    4    4    0    0 -0.20942171325E+02  0.59822983456E+02 -0.34113923987E+03  0.34697744144E+03  0.00000000000E+00 0. -1.
        -13    1    3    3    0    0 -0.45612397420E+02 -0.11699986612E+02  0.44165101727E+02  0.64559559290E+02  0.00000000000E+00 0.  1.
         13    1    3    3    0    0  0.25247915806E+02 -0.32339205774E+02 -0.13166508260E+02  0.43088727324E+02  0.00000000000E+00 0. -1.
         21    1    1    2  502  501  0.21406005781E+02 -0.12904520083E+01  0.50156761805E+01  0.22023609092E+02  0.00000000000E+00 0. -1.
<scales pt_clust_5="13000.00000" pt_clust_6="13000.00000" pt_clust_7="13000.00000" pt_clust_8="13000.00000" pt_clust_9="21.44487"></scales>
<clustering>
<clus scale="   21.445">  1  9  2 -1</clus>
<clus scale="   80.690">  5  6 -1 -1</clus>
<clus scale="   90.956">  7  8 -1 -1</clus>
<clus scale="   92.508">  2  5  1 -1</clus>
<clus scale="   92.508">  2  5  1 -1</clus>
</clustering>
</event>
<event>
 9    2  0.5684583E-005  0.9702539E+02  0.7546771E-02  0.1289096E+00
         -1   -1    0    0    0  501 -0.00000000000E+00  0.00000000000E+00  0.14126658975E+03  0.14126658975E+03  0.00000000000E+00 0.  1.
          2   -1    0    0  502    0  0.00000000000E+00 -0.00000000000E+00 -0.12102320685E+04  0.12102320685E+04  0.00000000000E+00 0. -1.
         23    2    1    2    0    0  0.52160623018E+02  0.44463767065E+02  0.10194342328E+03  0.15219934338E+03  0.89857784308E+02 0.  0.
         24    2    1    2    0    0 -0.20890922825E+02 -0.29521366098E+02 -0.11589477041E+04  0.11626368033E+04  0.85185761554E+02 0.  0.
        -11    1    4    4    0    0  0.22075073233E+02 -0.12389632883E+01 -0.98877516841E+02  0.10131933293E+03  0.00000000000E+00 0.  1.
         12    1    4    4    0    0 -0.42965996058E+02 -0.28282402810E+02 -0.10600701872E+04  0.10613174704E+04  0.00000000000E+00 0. -1.
        -13    1    3    3    0    0  0.37415544398E+02  0.68604369673E+02  0.95115666025E+02  0.12309944120E+03  0.00000000000E+00 0.  1.
         13    1    3    3    0    0  0.14745078620E+02 -0.24140602607E+02  0.68277572534E+01  0.29099902180E+02  0.00000000000E+00 0. -1.
         21    1    1    2  502  501 -0.31269700193E+02 -0.14942400967E+02 -0.11961197987E+02  0.36662511563E+02  0.00000000000E+00 0. -1.
<scales pt_clust_5="13000.00000" pt_clust_6="13000.00000" pt_clust_7="13000.00000" pt_clust_8="13000.00000" pt_clust_9="34.65645"></scales>
<clustering>
<clus scale="   34.656">  1  9  2 -1</clus>
<clus scale="   85.186">  5  6 -1 -1</clus>
<clus scale="   89.858">  7  8 -1 -1</clus>
<clus scale="   92.715">  2  5  1 -1</clus>
<clus scale="   92.715">  2  5  1 -1</clus>
</clustering>
</event>
<event>
 9    2  0.5684583E-005  0.9460752E+02  0.7546771E-02  0.1297469E+00
          4   -1    0    0  502    0  0.00000000000E+00  0.00000000000E+00  0.79168783746E+02  0.79168783746E+02  0.00000000000E+00 0. -1.
         -3   -1    0    0    0  501 -0.00000000000E+00 -0.00000000000E+00 -0.52554866961E+03  0.52554866961E+03  0.00000000000E+00 0.  1.
         23    2    1    2    0    0  0.25886098801E+02 -0.44696287299E+02 -0.14715031774E+03  0.17919324036E+03  0.88256179212E+02 0.  0.
         24    2    1    2    0    0  0.19541513653E+02  0.29323915728E+02  0.31289929913E+02  0.91543500438E+02  0.78481781128E+02 0.  0.
        -11    1    4    4    0    0 -0.16707127998E+02 -0.15295646541E+02 -0.54763867250E+01  0.23303985509E+02  0.00000000000E+00 0.  1.
         12    1    4    4    0    0  0.36248641651E+02  0.44619562269E+02  0.36766316638E+02  0.68239514929E+02  0.00000000000E+00 0. -1.
        -11    1    3    3    0    0  0.47621551461E+02 -0.99265161812E+01 -0.12137558179E+03  0.13076077295E+03  0.00000000000E+00 0. -1.
         11    1    3    3    0    0 -0.21735452661E+02 -0.34769771117E+02 -0.25774735949E+02  0.48432467407E+02  0.00000000000E+00 0.  1.
         21    1    1    2  502  501 -0.45427612454E+02  0.15372371571E+02 -0.33051949803E+03  0.33398071255E+03  0.00000000000E+00 0.  1.
<scales pt_clust_5="13000.00000" pt_clust_6="13000.00000" pt_clust_7="13000.00000" pt_clust_8="13000.00000" pt_clust_9="47.95808"></scales>
<clustering>
<clus scale="   47.958">  2  9  1 -1</clus>
<clus scale="   78.482">  5  6 -1 -1</clus>
<clus scale="   85.562">  1  5  2 -1</clus>
<clus scale="   88.256">  7  8 -1 -1</clus>
<clus scale="   85.562">  1  5  2 -1</clus>
</clustering>
</event>
<event>
 9    2  0.5684583E-005  0.1062716E+03  0.7546771E-02  0.1276051E+00
         -1   -1    0    0    0  501 -0.00000000000E+00  0.00000000000E+00  0.32363510699E+02  0.32363510699E+02  0.00000000000E+00 0.  1.
          2   -1    0    0  502    0  0.00000000000E+00 -0.00000000000E+00 -0.74098458993E+03  0.74098458993E+03  0.00000000000E+00 0. -1.
         23    2    1    2    0    0  0.25503050298E+02  0.45580556366E+02 -0.82108672168E+02  0.13305334163E+03  0.90737891645E+02 0.  0.
         24    2    1    2    0    0 -0.10457185907E+02 -0.71544690373E+02 -0.45946218436E+03  0.47057059692E+03  0.71436631829E+02 0.  0.
        -11    1    4    4    0    0  0.33039257703E+01 -0.26190897851E+02 -0.36965740746E+02  0.45424057994E+02  0.00000000000E+00 0.  1.
         12    1    4    4    0    0 -0.13761111677E+02 -0.45353792523E+02 -0.42249644362E+03  0.42514653892E+03  0.00000000000E+00 0. -1.
        -13    1    3    3    0    0 -0.29385743964E+02  0.16131685860E+02 -0.49444112958E+01  0.33885106464E+02  0.00000000000E+00 0. -1.
         13    1    3    3    0    0  0.54888794262E+02  0.29448870506E+02 -0.77164260872E+02  0.99168235165E+02  0.00000000000E+00 0.  1.
         21    1    1    2  502  501 -0.15045864392E+02  0.25964134007E+02 -0.16705022271E+03  0.16972416209E+03  0.00000000000E+00 0.  1.
<scales pt_clust_5="13000.00000" pt_clust_6="13000.00000" pt_clust_7="13000.00000" pt_clust_8="13000.00000" pt_clust_9="30.00857"></scales>
<clustering>
<clus scale="   30.009">  2  9  1 -1</clus>
<clus scale="   71.437">  5  6 -1 -1</clus>
<clus scale="   90.352">  2  5  1 -1</clus>
<clus scale="   90.738">  7  8 -1 -1</clus>
<clus scale="   30.009">  2  5  1 -1</clus>
</clustering>
</event>
<event>
 9    2  0.5684583E-005  0.1002992E+03  0.7546771E-02  0.1286742E+00
          2   -1    0    0  502    0  0.00000000000E+00  0.00000000000E+00  0.20818191140E+03  0.20818191140E+03  0.00000000000E+00 0. -1.
         -1   -1    0    0    0  501 -0.00000000000E+00 -0.00000000000E+00 -0.34230304478E+03  0.34230304478E+03  0.00000000000E+00 0.  1.
         23    2    1    2    0    0  0.55827201960E+02 -0.21149712397E+01 -0.85196189883E+02  0.13795262617E+03  0.93012830914E+02 0.  0.
         24    2    1    2    0    0 -0.26596314326E+02  0.25706012978E+02  0.16958013974E+03  0.19082203832E+03  0.79293527324E+02 0.  0.
        -11    1    4    4    0    0 -0.10243027043E+02  0.33986470376E+02  0.21265536841E+02  0.41379014352E+02  0.00000000000E+00 0.  1.
         12    1    4    4    0    0 -0.16353287283E+02 -0.82804573979E+01  0.14831460290E+03  0.14944302396E+03  0.00000000000E+00 0. -1.
        -13    1    3    3    0    0  0.72569753177E+02  0.10810917132E+02 -0.30771291785E+02  0.79562034938E+02  0.00000000000E+00 0.  1.
         13    1    3    3    0    0 -0.16742551217E+02 -0.12925888372E+02 -0.54424898098E+02  0.58390591232E+02  0.00000000000E+00 0. -1.
         21    1    1    2  502  501 -0.29230887634E+02 -0.23591041739E+02 -0.21850508323E+03  0.22171029169E+03  0.00000000000E+00 0.  1.
<scales pt_clust_5="13000.00000" pt_clust_6="13000.00000" pt_clust_7="13000.00000" pt_clust_8="13000.00000" pt_clust_9="37.56304"></scales>
<clustering>
<clus scale="   37.563">  2  9  1 -1</clus>
<clus scale="   79.294">  5  6 -1 -1</clus>
<clus scale="   87.727">  1  5  2 -1</clus>
<clus scale="   93.013">  7  8 -1 -1</clus>
<clus scale="   87.727">  1  5  2 -1</clus>
</clustering>
</event>
<event>
 9    2  0.5684583E-005  0.2262955E+03  0.7546771E-02  0.1130803E+00
         -1   -1    0    0    0  501 -0.00000000000E+00  0.00000000000E+00  0.37409094756E+03  0.37409094756E+03  0.00000000000E+00 0.  1.
          2   -1    0    0  502    0  0.00000000000E+00 -0.00000000000E+00 -0.68408606354E+03  0.68408606354E+03  0.00000000000E+00 0. -1.
         23    2    1    2    0    0  0.45328501032E+02 -0.19742784123E+03  0.15401163354E+03  0.26981429813E+03  0.89709234258E+02 0.  0.
         24    2    1    2    0    0 -0.19928515132E+03 -0.33953274570E+02 -0.46155686567E+03  0.51043129544E+03  0.81473742566E+02 0.  0.
        -11    1    4    4    0    0 -0.17246475855E+02  0.18373621504E+02 -0.30280349350E+02  0.39394548524E+02  0.00000000000E+00 0.  1.
         12    1    4    4    0    0 -0.18203867546E+03 -0.52326896074E+02 -0.43127651632E+03  0.47103674692E+03  0.00000000000E+00 0. -1.
        -13    1    3    3    0    0  0.47535354978E+02 -0.46168089665E+02  0.71554494657E+02  0.97525115646E+02  0.00000000000E+00 0.  1.
         13    1    3    3    0    0 -0.22068539463E+01 -0.15125975157E+03  0.82457138883E+02  0.17228918249E+03  0.00000000000E+00 0. -1.
         21    1    1    2  502  501  0.15395665028E+03  0.23138111580E+03 -0.24498838410E+01  0.27793141753E+03  0.00000000000E+00 0.  1.
<scales pt_clust_5="13000.00000" pt_clust_6="13000.00000" pt_clust_7="13000.00000" pt_clust_8="13000.00000" pt_clust_9="207.75445"></scales>
<clustering>
<clus scale="   81.474">  5  6 -1 -1</clus>
<clus scale="   89.709">  7  8 -1 -1</clus>
<clus scale="  217.957">  2  5  1 -1</clus>
<clus scale="  207.754">  2  9  1 -1</clus>
<clus scale="  217.957">  2  5  1 -1</clus>
</clustering>
</event>
<event>
 9    2  0.5684583E-005  0.9333566E+02  0.7546771E-02  0.1299807E+00
         -1   -1    0    0    0  501 -0.00000000000E+00  0.00000000000E+00  0.17996307014E+03  0.17996307014E+03  0.00000000000E+00 0.  1.
          2   -1    0    0  502    0  0.00000000000E+00 -0.00000000000E+00 -0.71755198536E+02  0.71755198536E+02  0.00000000000E+00 0. -1.
         23    2    1    2    0    0 -0.17193916993E+01  0.30048547384E+02  0.10428514190E+03  0.14050122684E+03  0.89215090733E+02 0.  0.
         24    2    1    2    0    0  0.21579010567E+02 -0.17259367682E+02 -0.59534642468E+01  0.85614175085E+02  0.80813388551E+02 0.  0.
        -13    1    4    4    0    0 -0.17396656195E+02 -0.25386435083E+02  0.21245723953E+02  0.37396463994E+02  0.00000000000E+00 0.  1.
         14    1    4    4    0    0  0.38975666763E+02  0.81270674006E+01 -0.27199188200E+02  0.48217711091E+02  0.00000000000E+00 0. -1.
        -13    1    3    3    0    0  0.27658779462E+02  0.18826570499E+02  0.20303744124E+01  0.33519699556E+02  0.00000000000E+00 0. -1.
         13    1    3    3    0    0 -0.29378171161E+02  0.11221976885E+02  0.10225476749E+03  0.10698152728E+03  0.00000000000E+00 0.  1.
         21    1    1    2  502  501 -0.19859618868E+02 -0.12789179702E+02  0.98761939541E+01  0.25602866754E+02  0.00000000000E+00 0.  1.
<scales pt_clust_5="13000.00000" pt_clust_6="13000.00000" pt_clust_7="13000.00000" pt_clust_8="13000.00000" pt_clust_9="23.62134"></scales>
<clustering>
<clus scale="   23.621">  2  9  1 -1</clus>
<clus scale="   80.813">  5  6 -1 -1</clus>
<clus scale="   85.341">  2  5  1 -1</clus>
<clus scale="   89.215">  7  8 -1 -1</clus>
<clus scale="   23.621">  2  5  1 -1</clus>
</clustering>
</event>
<event>
 9    2  0.5684583E-005  0.9974563E+02  0.7546771E-02  0.1283810E+00
          2   -1    0    0  502    0  0.00000000000E+00  0.00000000000E+00  0.96338403450E+03  0.96338403450E+03  0.00000000000E+00 0. -1.
         -1   -1    0    0    0  501 -0.00000000000E+00 -0.00000000000E+00 -0.24018313621E+02  0.24018313621E+02  0.00000000000E+00 0.  1.
         23    2    1    2    0    0  0.31088908086E+02  0.58721714474E+02  0.20317459026E+03  0.23255547636E+03  0.91582615727E+02 0.  0.
         24    2    1    2    0    0 -0.16853962237E+02 -0.29532146359E+02  0.70075433606E+03  0.70677992907E+03  0.85586359456E+02 0.  0.
        -11    1    4    4    0    0  0.30846828692E+02  0.51992156722E+01  0.18055262536E+03  0.18324248745E+03  0.00000000000E+00 0.  1.
         12    1    4    4    0    0 -0.47700790929E+02 -0.34731362031E+02  0.52020171070E+03  0.52353744162E+03  0.00000000000E+00 0. -1.
        -11    1    3    3    0    0 -0.10839883921E+02  0.38006466682E+02  0.21568527067E+02  0.45024392865E+02  0.00000000000E+00 0.  1.
         11    1    3    3    0    0  0.41928792007E+02  0.20715247793E+02  0.18160606319E+03  0.18753108350E+03  0.00000000000E+00 0. -1.
         21    1    1    2  502  501 -0.14234945849E+02 -0.29189568115E+02  0.35436794560E+02  0.48066942681E+02  0.00000000000E+00 0. -1.
<scales pt_clust_5="13000.00000" pt_clust_6="13000.00000" pt_clust_7="13000.00000" pt_clust_8="13000.00000" pt_clust_9="32.47560"></scales>
<clustering>
<clus scale="   32.476">  2  9  1 -1</clus>
<clus scale="   85.586">  5  6 -1 -1</clus>
<clus scale="   91.583">  7  8 -1 -1</clus>
<clus scale="   94.270">  1  5  2 -1</clus>
<clus scale="   94.270">  1  5  2 -1</clus>
</clustering>
</event>
<event>
 9    2  0.5684583E-005  0.9615198E+02  0.7546771E-02  0.1295540E+00
          2   -1    0    0  502    0  0.00000000000E+00  0.00000000000E+00  0.26673207982E+03  0.26673207982E+03  0.00000000000E+00 0. -1.
         -1   -1    0    0    0  501 -0.00000000000E+00 -0.00000000000E+00 -0.15599968125E+03  0.15599968125E+03  0.00000000000E+00 0.  1.
         23    2    1    2    0    0 -0.29484938460E+01 -0.63906355618E+01 -0.11309581150E+03  0.14574096708E+03  0.91652785380E+02 0.  0.
         24    2    1    2    0    0  0.36008927135E+01  0.30136122193E+02  0.23563005449E+03  0.25046613958E+03  0.79313379766E+02 0.  0.
        -11    1    4    4    0    0 -0.33379029090E+02  0.18012047492E+02  0.63274523734E+02  0.73771666591E+02  0.00000000000E+00 0.  1.
         12    1    4    4    0    0  0.36979921804E+02  0.12124074701E+02  0.17235553075E+03  0.17669447299E+03  0.00000000000E+00 0. -1.
        -11    1    3    3    0    0  0.19366638116E+02 -0.25122126200E+02 -0.30075761233E+01  0.31862727612E+02  0.00000000000E+00 0. -1.
         11    1    3    3    0    0 -0.22315131962E+02  0.18731490638E+02 -0.11008823538E+03  0.11387823947E+03  0.00000000000E+00 0.  1.
         21    1    1    2  502  501 -0.65239886750E+00 -0.23745486631E+02 -0.11801844412E+02  0.26524654402E+02  0.00000000000E+00 0. -1.
<scales pt_clust_5="13000.00000" pt_clust_6="13000.00000" pt_clust_7="13000.00000" pt_clust_8="13000.00000" pt_clust_9="23.75445"></scales>
<clustering>
<clus scale="   23.754">  2  9  1 -1</clus>
<clus scale="   79.313">  5  6 -1 -1</clus>
<clus scale="   84.472">  1  5  2 -1</clus>
<clus scale="   91.653">  7  8 -1 -1</clus>
<clus scale="   84.472">  1  5  2 -1</clus>
</clustering>
</event>
<event>
 9    2  0.5684583E-005  0.1151928E+03  0.7546771E-02  0.1264488E+00
          2   -1    0    0  502    0  0.00000000000E+00  0.00000000000E+00  0.39799712239E+03  0.39799712239E+03  0.00000000000E+00 0. -1.
         -1   -1    0    0    0  501 -0.00000000000E+00 -0.00000000000E+00 -0.18113329898E+03  0.18113329898E+03  0.00000000000E+00 0.  1.
         23    2    1    2    0    0  0.20785488014E+02 -0.92306271972E+01  0.45708745418E+02  0.11802661423E+03  0.10641311605E+03 0.  0.
         24    2    1    2    0    0 -0.48336193976E+02 -0.28394576364E+01  0.30792222999E+03  0.32106816092E+03  0.76968916226E+02 0.  0.
        -11    1    4    4    0    0 -0.27231178554E+02  0.13648150194E+02  0.33248343393E+02  0.45091700207E+02  0.00000000000E+00 0.  1.
         12    1    4    4    0    0 -0.21105015421E+02 -0.16487607830E+02  0.27467388660E+03  0.27597646071E+03  0.00000000000E+00 0. -1.
        -13    1    3    3    0    0  0.36740735091E+02  0.36882309942E+02  0.13419498815E+01  0.52076743669E+02  0.00000000000E+00 0.  1.
         13    1    3    3    0    0 -0.15955247077E+02 -0.46112937139E+02  0.44366795536E+02  0.65949870561E+02  0.00000000000E+00 0. -1.
         21    1    1    2  502  501  0.27550705962E+02  0.12070084834E+02 -0.13676715200E+03  0.14003564623E+03  0.00000000000E+00 0.  1.
<scales pt_clust_5="13000.00000" pt_clust_6="13000.00000" pt_clust_7="13000.00000" pt_clust_8="13000.00000" pt_clust_9="30.07870"></scales>
<clustering>
<clus scale="   30.079">  2  9  1 -1</clus>
<clus scale="   76.969">  5  6 -1 -1</clus>
<clus scale="   88.712">  1  5  2 -1</clus>
<clus scale="  106.413">  7  8 -1 -1</clus>
<clus scale="   88.712">  1  5  2 -1</clus>
</clustering>
</event>
<event>
 9    2  0.5684583E-005  0.9894639E+02  0.7546771E-02  0.1289429E+00
         -1   -1    0    0    0  501 -0.00000000000E+00  0.00000000000E+00  0.32709562848E+03  0.32709562848E+03  0.00000000000E+00 0.  1.
          2   -1    0    0  502    0  0.00000000000E+00 -0.00000000000E+00 -0.85859523815E+02  0.85859523815E+02  0.00000000000E+00 0. -1.
         23    2    1    2    0    0 -0.11077022624E+02  0.65532685690E+02  0.16674128069E+03  0.20240237878E+03  0.93524515105E+02 0.  0.
         24    2    1    2    0    0 -0.23178121092E+02 -0.20162356635E+02 -0.30190472067E+02  0.91427239574E+02  0.80645704226E+02 0.  0.
        -13    1    4    4    0    0 -0.21745479603E+02  0.19130945714E+02  0.14090595438E+02  0.32208754196E+02  0.00000000000E+00 0.  1.
         14    1    4    4    0    0 -0.14326414882E+01 -0.39293302349E+02 -0.44281067504E+02  0.59218485378E+02  0.00000000000E+00 0. -1.
        -11    1    3    3    0    0 -0.19503747907E+02 -0.15260297550E+02  0.79188242359E+02  0.82970178929E+02  0.00000000000E+00 0. -1.
         11    1    3    3    0    0  0.84267252833E+01  0.80792983241E+02  0.87553038327E+02  0.11943219985E+03  0.00000000000E+00 0.  1.
         21    1    1    2  502  501  0.34255143715E+02 -0.45370329055E+02  0.10468529605E+03  0.11912553395E+03  0.00000000000E+00 0.  1.
<scales pt_clust_5="13000.00000" pt_clust_6="13000.00000" pt_clust_7="13000.00000" pt_clust_8="13000.00000" pt_clust_9="56.84964"></scales>
<clustering>
<clus scale="   56.850">  1  9  2 -1</clus>
<clus scale="   80.646">  5  6 -1 -1</clus>
<clus scale="   86.875">  2  5  1 -1</clus>
<clus scale="   93.525">  7  8 -1 -1</clus>
<clus scale="   86.875">  2  5  1 -1</clus>
</clustering>
</event>
<event>
 9    2  0.5684583E-005  0.1356007E+03  0.7546771E-02  0.1221750E+00
         -1   -1    0    0    0  501 -0.00000000000E+00  0.00000000000E+00  0.20055599959E+03  0.20055599959E+03  0.00000000000E+00 0.  1.
          2   -1    0    0  502    0  0.00000000000E+00 -0.00000000000E+00 -0.49180840537E+03  0.49180840537E+03  0.00000000000E+00 0. -1.
         23    2    1    2    0    0 -0.73519707992E+02  0.51196841821E+02  0.99931928884E+02  0.16233823024E+03  0.91329329966E+02 0.  0.
         24    2    1    2    0    0  0.92031323405E+02 -0.41785559038E+02 -0.44965549086E+03  0.46797677298E+03  0.81218237812E+02 0.  0.
        -11    1    4    4    0    0 -0.77451445312E+01 -0.27251630241E+02 -0.11665100033E+03  0.12004205302E+03  0.00000000000E+00 0.  1.
         12    1    4    4    0    0  0.99776467936E+02 -0.14533928797E+02 -0.33300449053E+03  0.34793471996E+03  0.00000000000E+00 0. -1.
        -11    1    3    3    0    0 -0.57319771484E+02 -0.12456238507E+02  0.28221596608E+02  0.65093568007E+02  0.00000000000E+00 0. -1.
         11    1    3    3    0    0 -0.16199936507E+02  0.63653080328E+02  0.71710332276E+02  0.97244662235E+02  0.00000000000E+00 0.  1.
         21    1    1    2  502  501 -0.18511615414E+02 -0.94112827832E+01  0.58471156196E+02  0.62049401735E+02  0.00000000000E+00 0.  1.
<scales pt_clust_5="13000.00000" pt_clust_6="13000.00000" pt_clust_7="13000.00000" pt_clust_8="13000.00000" pt_clust_9="20.76661"></scales>
<clustering>
<clus scale="   20.767">  1  9  2 -1</clus>
<clus scale="   81.218">  5  6 -1 -1</clus>
<clus scale="   91.329">  7  8 -1 -1</clus>
<clus scale="  129.007">  2  5  1 -1</clus>
<clus scale="  129.007">  2  5  1 -1</clus>
</clustering>
</event>
<event>
 9    2  0.5684583E-005  0.1249173E+03  0.7546771E-02  0.1253347E+00
         -1   -1    0    0    0  501 -0.00000000000E+00  0.00000000000E+00  0.77975079236E+02  0.77975079236E+02  0.00000000000E+00 0.  1.
          2   -1    0    0  502    0  0.00000000000E+00 -0.00000000000E+00 -0.73249619360E+03  0.73249619360E+03  0.00000000000E+00 0. -1.
         23    2    1    2    0    0  0.78753133093E+02  0.98017097896E+01 -0.31506628169E+03  0.33557420926E+03  0.83935442905E+02 0.  0.
         24    2    1    2    0    0  0.12734561770E+02 -0.33550828976E+02 -0.36648799403E+03  0.37658729403E+03  0.78846135404E+02 0.  0.
        -11    1    4    4    0    0  0.29722371497E+02  0.10193030719E+02 -0.74542142108E+02  0.80894055360E+02  0.00000000000E+00 0.  1.
         12    1    4    4    0    0 -0.16987809727E+02 -0.43743859695E+02 -0.29194585193E+03  0.29569323867E+03  0.00000000000E+00 0. -1.
        -13    1    3    3    0    0  0.51181337850E+02 -0.29284402536E+02 -0.23520652654E+03  0.24248549586E+03  0.00000000000E+00 0. -1.
         13    1    3    3    0    0  0.27571795243E+02  0.39086112326E+02 -0.79859755151E+02  0.93088713400E+02  0.00000000000E+00 0.  1.
         21    1    1    2  502  501 -0.91487694863E+02  0.23749119186E+02  0.27033161364E+02  0.98309769539E+02  0.00000000000E+00 0.  1.
<scales pt_clust_5="13000.00000" pt_clust_6="13000.00000" pt_clust_7="13000.00000" pt_clust_8="13000.00000" pt_clust_9="92.51581"></scales>
<clustering>
<clus scale="   78.846">  5  6 -1 -1</clus>
<clus scale="   83.935">  7  8 -1 -1</clus>
<clus scale="   86.629">  2  5  1 -1</clus>
<clus scale="   92.516">  1  9  2 -1</clus>
<clus scale="   86.629">  2  5  1 -1</clus>
</clustering>
</event>
<event>
 9    2  0.5684583E-005  0.9581153E+02  0.7546771E-02  0.1294665E+00
          2   -1    0    0  502    0  0.00000000000E+00  0.00000000000E+00  0.15927624709E+03  0.15927624709E+03  0.00000000000E+00 0. -1.
         -1   -1    0    0    0  501 -0.00000000000E+00 -0.00000000000E+00 -0.18005349927E+03  0.18005349927E+03  0.00000000000E+00 0.  1.
         23    2    1    2    0    0 -0.14831511775E+01 -0.16807771353E+02 -0.11940245954E+03  0.15122852878E+03  0.91260175635E+02 0.  0.
         24    2    1    2    0    0 -0.22547442859E+02  0.21357472428E+02  0.12473797464E+03  0.15232348925E+03  0.81721198299E+02 0.  0.
        -11    1    4    4    0    0  0.16844037570E+02 -0.20064897897E+02  0.19842609949E+02  0.32864127843E+02  0.00000000000E+00 0.  1.
         12    1    4    4    0    0 -0.39391480428E+02  0.41422370325E+02  0.10489536469E+03  0.11945936141E+03  0.00000000000E+00 0. -1.
        -11    1    3    3    0    0  0.30323439577E+02  0.16908381601E+02 -0.89680350647E+02  0.96166364433E+02  0.00000000000E+00 0.  1.
         11    1    3    3    0    0 -0.31806590755E+02 -0.33716152954E+02 -0.29722108897E+02  0.55062164348E+02  0.00000000000E+00 0. -1.
         21    1    1    2  502  501  0.24030594036E+02 -0.45497010744E+01 -0.26112767282E+02  0.35777728334E+02  0.00000000000E+00 0.  1.
<scales pt_clust_5="13000.00000" pt_clust_6="13000.00000" pt_clust_7="13000.00000" pt_clust_8="13000.00000" pt_clust_9="24.45750"></scales>
<clustering>
<clus scale="   24.457">  2  9  1 -1</clus>
<clus scale="   81.721">  5  6 -1 -1</clus>
<clus scale="   86.774">  1  5  2 -1</clus>
<clus scale="   91.260">  7  8 -1 -1</clus>
<clus scale="   86.774">  1  5  2 -1</clus>
</clustering>
</event>
<event>
 9    2  0.5684583E-005  0.1078894E+03  0.7546771E-02  0.1269177E+00
         -1   -1    0    0    0  501 -0.00000000000E+00  0.00000000000E+00  0.65602983590E+02  0.65602983590E+02  0.00000000000E+00 0.  1.
          2   -1    0    0  502    0  0.00000000000E+00 -0.00000000000E+00 -0.22022410160E+03  0.22022410160E+03  0.00000000000E+00 0. -1.
         23    2    1    2    0    0 -0.11790633420E+02 -0.46369718011E+02 -0.35365723983E+02  0.10962624156E+03  0.92076102336E+02 0.  0.
         24    2    1    2    0    0  0.14936086010E+02  0.68647032326E+02 -0.97248269760E+02  0.14472885412E+03  0.80955009302E+02 0.  0.
        -11    1    4    4    0    0 -0.26130941418E+02  0.23304377116E+02 -0.70089289852E+01  0.35707774751E+02  0.00000000000E+00 0.  1.
         12    1    4    4    0    0  0.41067027428E+02  0.45342655210E+02 -0.90239340775E+02  0.10902107937E+03  0.00000000000E+00 0. -1.
        -11    1    3    3    0    0 -0.26760442581E+02 -0.26359500259E+02  0.24437113813E+02  0.44812019286E+02  0.00000000000E+00 0.  1.
         11    1    3    3    0    0  0.14969809161E+02 -0.20010217752E+02 -0.59802837795E+02  0.64814222275E+02  0.00000000000E+00 0. -1.
         21    1    1    2  502  501 -0.31454525894E+01 -0.22277314315E+02 -0.22007124272E+02  0.31471989512E+02  0.00000000000E+00 0. -1.
<scales pt_clust_5="13000.00000" pt_clust_6="13000.00000" pt_clust_7="13000.00000" pt_clust_8="13000.00000" pt_clust_9="22.49828"></scales>
<clustering>
<clus scale="   22.498">  2  9  1 -1</clus>
<clus scale="   80.955">  5  6 -1 -1</clus>
<clus scale="   92.076">  7  8 -1 -1</clus>
<clus scale="   98.569">  2  5  1 -1</clus>
<clus scale="   22.498">  2  5  1 -1</clus>
</clustering>
</event>
<event>
 9    2  0.5684583E-005  0.1151196E+03  0.7546771E-02  0.1255801E+00
          2   -1    0    0  502    0  0.00000000000E+00  0.00000000000E+00  0.15149184886E+04  0.15149184886E+04  0.00000000000E+00 0. -1.
         -1   -1    0    0    0  501 -0.00000000000E+00 -0.00000000000E+00 -0.35751034400E+02  0.35751034400E+02  0.00000000000E+00 0.  1.
         23    2    1    2    0    0  0.11893871351E+02 -0.69829507071E+02  0.79147766331E+02  0.14063232076E+03  0.92170800650E+02 0.  0.
         24    2    1    2    0    0  0.13917233147E+02  0.67735423774E+02  0.13459959163E+04  0.13501275519E+04  0.79734703319E+02 0.  0.
        -11    1    4    4    0    0  0.23926311658E+02 -0.72401708891E+00  0.13139133543E+03  0.13355401760E+03  0.00000000000E+00 0.  1.
         12    1    4    4    0    0 -0.10009078511E+02  0.68459440863E+02  0.12146045808E+04  0.12165735343E+04  0.00000000000E+00 0. -1.
        -13    1    3    3    0    0 -0.14264305132E+02 -0.24091839030E+02 -0.15723966105E+02  0.32111216402E+02  0.00000000000E+00 0.  1.
         13    1    3    3    0    0  0.26158176484E+02 -0.45737668041E+02  0.94871732436E+02  0.10852110435E+03  0.00000000000E+00 0. -1.
         21    1    1    2  502  501 -0.25811104498E+02  0.20940832972E+01  0.54023771606E+02  0.59909650298E+02  0.00000000000E+00 0.  1.
<scales pt_clust_5="13000.00000" pt_clust_6="13000.00000" pt_clust_7="13000.00000" pt_clust_8="13000.00000" pt_clust_9="25.89591"></scales>
<clustering>
<clus scale="   25.896">  2  9  1 -1</clus>
<clus scale="   79.735">  5  6 -1 -1</clus>
<clus scale="   92.171">  7  8 -1 -1</clus>
<clus scale="  105.426">  1  5  2 -1</clus>
<clus scale="  105.426">  1  5  2 -1</clus>
</clustering>
</event>
<event>
 9    2  0.5684583E-005  0.9623437E+02  0.7546771E-02  0.1295404E+00
          2   -1    0    0  502    0  0.00000000000E+00  0.00000000000E+00  0.82560993188E+03  0.82560993188E+03  0.00000000000E+00 0. -1.
         -1   -1    0    0    0  501 -0.00000000000E+00 -0.00000000000E+00 -0.10257596141E+03  0.10257596141E+03  0.00000000000E+00 0.  1.
         23    2    1    2    0    0  0.52286694385E+02  0.18160418059E+02 -0.60382009529E+02  0.12378040593E+03  0.92800337417E+02 0.  0.
         24    2    1    2    0    0 -0.20578245551E+02 -0.13781049020E+02  0.76022029512E+03  0.76487519015E+03  0.80534327433E+02 0.  0.
        -11    1    4    4    0    0 -0.28211179886E+02  0.17835140429E+02  0.14483041588E+03  0.14862641847E+03  0.00000000000E+00 0.  1.
         12    1    4    4    0    0  0.76329343355E+01 -0.31616189450E+02  0.61538987924E+03  0.61624877168E+03  0.00000000000E+00 0. -1.
        -13    1    3    3    0    0  0.19192919359E+02 -0.63784418799E+01  0.23089703584E+02  0.30695066150E+02  0.00000000000E+00 0. -1.
         13    1    3    3    0    0  0.33093775026E+02  0.24538859939E+02 -0.83471713114E+02  0.93085339784E+02  0.00000000000E+00 0.  1.
         21    1    1    2  502  501 -0.31708448834E+02 -0.43793690385E+01  0.23195684876E+02  0.39530297210E+02  0.00000000000E+00 0. -1.
<scales pt_clust_5="13000.00000" pt_clust_6="13000.00000" pt_clust_7="13000.00000" pt_clust_8="13000.00000" pt_clust_9="32.00945"></scales>
<clustering>
<clus scale="   32.009">  2  9  1 -1</clus>
<clus scale="   80.534">  5  6 -1 -1</clus>
<clus scale="   84.469">  1  5  2 -1</clus>
<clus scale="   92.800">  7  8 -1 -1</clus>
<clus scale="   84.469">  1  5  2 -1</clus>
</clustering>
</event>
<event>
 9    2  0.5684583E-005  0.9866261E+02  0.7546771E-02  0.1288812E+00
          2   -1    0    0  502    0  0.00000000000E+00  0.00000000000E+00  0.17196212759E+04  0.17196212759E+04  0.00000000000E+00 0. -1.
         -1   -1    0    0    0  501 -0.00000000000E+00 -0.00000000000E+00 -0.37234345124E+02  0.37234345124E+02  0.00000000000E+00 0.  1.
         23    2    1    2    0    0  0.47719207957E+02  0.23778068158E+02  0.13459406525E+03  0.17099244186E+03  0.90996337510E+02 0.  0.
         24    2    1    2    0    0 -0.37469956528E+02  0.16640139238E+01  0.15549948840E+04  0.15575044810E+04  0.80027198569E+02 0.  0.
        -11    1    4    4    0    0 -0.19005893515E+02  0.13785212691E+02  0.11661848169E+03  0.11895850684E+03  0.00000000000E+00 0.  1.
         12    1    4    4    0    0 -0.18464063013E+02 -0.12121198767E+02  0.14383764023E+04  0.14385459741E+04  0.00000000000E+00 0. -1.
        -11    1    3    3    0    0  0.24530191874E+02  0.51316932329E+01  0.13870766971E+03  0.14095347539E+03  0.00000000000E+00 0. -1.
         11    1    3    3    0    0  0.23189016084E+02  0.18646374925E+02 -0.41136044624E+01  0.30038966468E+02  0.00000000000E+00 0.  1.
         21    1    1    2  502  501 -0.10249251429E+02 -0.25442082082E+02 -0.72020184076E+01  0.28358698219E+02  0.00000000000E+00 0.  1.
<scales pt_clust_5="13000.00000" pt_clust_6="13000.00000" pt_clust_7="13000.00000" pt_clust_8="13000.00000" pt_clust_9="27.42894"></scales>
<clustering>
<clus scale="   27.429">  2  9  1 -1</clus>
<clus scale="   80.027">  5  6 -1 -1</clus>
<clus scale="   88.647">  1  5  2 -1</clus>
<clus scale="   90.996">  7  8 -1 -1</clus>
<clus scale="   88.647">  1  5  2 -1</clus>
</clustering>
</event>
<event>
 9    2  0.5684583E-005  0.1377649E+03  0.7546771E-02  0.1240344E+00
          2   -1    0    0  502    0  0.00000000000E+00  0.00000000000E+00  0.66731099329E+02  0.66731099329E+02  0.00000000000E+00 0. -1.
         -1   -1    0    0    0  501 -0.00000000000E+00 -0.00000000000E+00 -0.68069704838E+03  0.68069704838E+03  0.00000000000E+00 0.  1.
         23    2    1    2    0    0  0.42400893876E+02  0.75828499304E+02 -0.16272347128E+03  0.20554171456E+03  0.90667917213E+02 0.  0.
         24    2    1    2    0    0 -0.55528540043E+01  0.26987474489E+02 -0.66973053422E+01  0.84120867777E+02  0.79197907358E+02 0.  0.
        -13    1    4    4    0    0  0.25036080956E+02 -0.14212525996E+02 -0.14471218403E+02  0.32221381207E+02  0.00000000000E+00 0.  1.
         14    1    4    4    0    0 -0.30588934961E+02  0.41200000484E+02  0.77739130608E+01  0.51899486570E+02  0.00000000000E+00 0. -1.
        -13    1    3    3    0    0  0.22962694683E+02  0.76213795054E+01  0.38493474926E+01  0.24498739739E+02  0.00000000000E+00 0.  1.
         13    1    3    3    0    0  0.19438199194E+02  0.68207119798E+02 -0.16657281878E+03  0.18104297483E+03  0.00000000000E+00 0. -1.
         21    1    1    2  502  501 -0.36848039872E+02 -0.10281597379E+03 -0.44454517242E+03  0.45776556536E+03  0.00000000000E+00 0.  1.
<scales pt_clust_5="13000.00000" pt_clust_6="13000.00000" pt_clust_7="13000.00000" pt_clust_8="13000.00000" pt_clust_9="103.72312"></scales>
<clustering>
<clus scale="   79.198">  5  6 -1 -1</clus>
<clus scale="   83.854">  1  5  2 -1</clus>
<clus scale="   90.668">  7  8 -1 -1</clus>
<clus scale="  103.723">  2  9  1 -1</clus>
<clus scale="   83.854">  1  5  2 -1</clus>
</clustering>
</event>
<event>
 9    2  0.5684583E-005  0.1746807E+03  0.7546771E-02  0.1174016E+00
          2   -1    0    0  502    0  0.00000000000E+00  0.00000000000E+00  0.27287216959E+03  0.27287216959E+03  0.00000000000E+00 0. -1.
         -1   -1    0    0    0  501 -0.00000000000E+00 -0.00000000000E+00 -0.17634454604E+03  0.17634454604E+03  0.00000000000E+00 0.  1.
         24    2    1    2    0    0 -0.78891587114E+02  0.10027023481E+03  0.16562430201E+02  0.15312054573E+03  0.83027615429E+02 0.  0.
         23    2    1    2    0    0  0.71702216777E+02 -0.15109975334E+03  0.12517711089E+03  0.22768970465E+03  0.90559092097E+02 0.  0.
        -13    1    3    3    0    0 -0.91218847581E+02  0.10067566857E+03  0.45909758246E+01  0.13593213547E+03  0.00000000000E+00 0.  1.
         14    1    3    3    0    0  0.12327260467E+02 -0.40543375855E+00  0.11971454376E+02  0.17188410253E+02  0.00000000000E+00 0. -1.
        -13    1    4    4    0    0  0.49787510517E+02 -0.14915438958E+03  0.13129761706E+03  0.20485334359E+03  0.00000000000E+00 0. -1.
         13    1    4    4    0    0  0.21914706260E+02 -0.19453637666E+01 -0.61205061728E+01  0.22836361060E+02  0.00000000000E+00 0.  1.
         21    1    1    2  502  501  0.71893703365E+01  0.50829518535E+02 -0.45211917537E+02  0.68406465247E+02  0.00000000000E+00 0.  1.
<scales pt_clust_5="13000.00000" pt_clust_6="13000.00000" pt_clust_7="13000.00000" pt_clust_8="13000.00000" pt_clust_9="51.33544"></scales>
<clustering>
<clus scale="   51.335">  2  9  1 -1</clus>
<clus scale="   83.028">  5  6 -1 -1</clus>
<clus scale="   90.559">  7  8 -1 -1</clus>
<clus scale="  170.898">  2  5  1 -1</clus>
<clus scale="  174.681">  1  5  2 -1</clus>
</clustering>
</event>
<event>
 9    2  0.5684583E-005  0.1774849E+03  0.7546771E-02  0.1171353E+00
          4   -1    0    0  502    0  0.00000000000E+00  0.00000000000E+00  0.50667490397E+03  0.50667490397E+03  0.00000000000E+00 0. -1.
         -3   -1    0    0    0  501 -0.00000000000E+00 -0.00000000000E+00 -0.20084081897E+03  0.20084081897E+03  0.00000000000E+00 0.  1.
         24    2    1    2    0    0  0.13385244053E+03  0.11831550621E+03 -0.11587209666E+03  0.22803487096E+03  0.81599783975E+02 0.  0.
         23    2    1    2    0    0 -0.12036884216E+03 -0.89532874086E+02  0.40954545890E+03  0.44544953529E+03  0.90515257711E+02 0.  0.
        -11    1    3    3    0    0  0.12042975526E+03  0.13019213868E+03 -0.11182160305E+03  0.20966017703E+03  0.00000000000E+00 0.  1.
         12    1    3    3    0    0  0.13422685272E+02 -0.11876632463E+02 -0.40504936073E+01  0.18374693930E+02  0.00000000000E+00 0. -1.
        -13    1    4    4    0    0 -0.73964770946E+02 -0.47298249930E+02  0.11714708184E+03  0.14639450322E+03  0.00000000000E+00 0.  1.
         13    1    4    4    0    0 -0.46404071218E+02 -0.42234624156E+02  0.29239837706E+03  0.29905503208E+03  0.00000000000E+00 0. -1.
         21    1    1    2  502  501 -0.13483598365E+02 -0.28782632128E+02  0.12160722754E+02  0.34031316680E+02  0.00000000000E+00 0.  1.
<scales pt_clust_5="13000.00000" pt_clust_6="13000.00000" pt_clust_7="13000.00000" pt_clust_8="13000.00000" pt_clust_9="31.78439"></scales>
<clustering>
<clus scale="   31.784">  2  9  1 -1</clus>
<clus scale="   81.600">  5  6 -1 -1</clus>
<clus scale="   90.515">  7  8 -1 -1</clus>
<clus scale="  173.108">  2  5  1 -1</clus>
<clus scale="  177.485">  1  5  2 -1</clus>
</clustering>
</event>
<event>
 9    2  0.5684583E-005  0.9002435E+02  0.7546771E-02  0.1309060E+00
          2   -1    0    0  502    0  0.00000000000E+00  0.00000000000E+00  0.12132348991E+03  0.12132348991E+03  0.00000000000E+00 0. -1.
         -1   -1    0    0    0  501 -0.00000000000E+00 -0.00000000000E+00 -0.52406351503E+03  0.52406351503E+03  0.00000000000E+00 0.  1.
         23    2    1    2    0    0 -0.27396406032E+02  0.44157944508E+02 -0.44054038910E+03  0.45254622645E+03  0.89564309411E+02 0.  0.
         24    2    1    2    0    0  0.46818110089E+01 -0.60655894874E+01  0.92522171042E+02  0.12240317129E+03  0.79771382575E+02 0.  0.
        -13    1    4    4    0    0 -0.33754482534E+02 -0.17308677597E+02  0.30971585218E+02  0.48971364104E+02  0.00000000000E+00 0.  1.
         14    1    4    4    0    0  0.38436293543E+02  0.11243088110E+02  0.61550585825E+02  0.73431807188E+02  0.00000000000E+00 0. -1.
        -13    1    3    3    0    0 -0.51088085889E+02  0.43982654673E+02 -0.39958542466E+03  0.40523200520E+03  0.00000000000E+00 0.  1.
         13    1    3    3    0    0  0.23691679857E+02  0.17528983491E+00 -0.40954964439E+02  0.47314221257E+02  0.00000000000E+00 0. -1.
         21    1    1    2  502  501  0.22714595023E+02 -0.38092355021E+02 -0.54721807059E+02  0.70437607184E+02  0.00000000000E+00 0. -1.
<scales pt_clust_5="13000.00000" pt_clust_6="13000.00000" pt_clust_7="13000.00000" pt_clust_8="13000.00000" pt_clust_9="44.35065"></scales>
<clustering>
<clus scale="   44.351">  2  9  1 -1</clus>
<clus scale="   79.771">  5  6 -1 -1</clus>
<clus scale="   80.288">  1  5  2 -1</clus>
<clus scale="   89.564">  7  8 -1 -1</clus>
<clus scale="   80.288">  1  5  2 -1</clus>
</clustering>
</event>
<event>
 9    2  0.5684583E-005  0.1360175E+03  0.7546771E-02  0.1221257E+00
         -1   -1    0    0    0  501 -0.00000000000E+00  0.00000000000E+00  0.56680078763E+02  0.56680078763E+02  0.00000000000E+00 0.  1.
          2   -1    0    0  502    0  0.00000000000E+00 -0.00000000000E+00 -0.86751638187E+03  0.86751638187E+03  0.00000000000E+00 0. -1.
         24    2    1    2    0    0  0.57875620427E+02  0.80553012542E+02 -0.12792869670E+03  0.18054889740E+03  0.79961100804E+02 0.  0.
         23    2    1    2    0    0 -0.78213307623E+02 -0.66378794770E+02 -0.70017933080E+03  0.71343428084E+03  0.90630634498E+02 0.  0.
        -13    1    3    3    0    0  0.26223855474E+02  0.43197420054E+02 -0.81992640094E+01  0.51195074231E+02  0.00000000000E+00 0.  1.
         14    1    3    3    0    0  0.31651764953E+02  0.37355592489E+02 -0.11972943269E+03  0.12935382316E+03  0.00000000000E+00 0. -1.
        -13    1    4    4    0    0 -0.98884460771E+02 -0.54882791024E+02 -0.59072084241E+03  0.60144939187E+03  0.00000000000E+00 0. -1.
         13    1    4    4    0    0  0.20671153148E+02 -0.11496003746E+02 -0.10945848840E+03  0.11198488897E+03  0.00000000000E+00 0.  1.
         21    1    1    2  502  501  0.20337687196E+02 -0.14174217773E+02  0.17271724393E+02  0.30213282401E+02  0.00000000000E+00 0.  1.
<scales pt_clust_5="13000.00000" pt_clust_6="13000.00000" pt_clust_7="13000.00000" pt_clust_8="13000.00000" pt_clust_9="24.78972"></scales>
<clustering>
<clus scale="   24.790">  1  9  2 -1</clus>
<clus scale="   79.961">  5  6 -1 -1</clus>
<clus scale="   90.631">  7  8 -1 -1</clus>
<clus scale="  129.153">  1  5  2 -1</clus>
<clus scale="  136.017">  2  5  1 -1</clus>
</clustering>
</event>
<event>
 9    2  0.5684583E-005  0.9790240E+02  0.7546771E-02  0.1291321E+00
          2   -1    0    0  502    0  0.00000000000E+00  0.00000000000E+00  0.72821616038E+02  0.72821616038E+02  0.00000000000E+00 0. -1.
         -1   -1    0    0    0  501 -0.00000000000E+00 -0.00000000000E+00 -0.42659126340E+03  0.42659126340E+03  0.00000000000E+00 0.  1.
         23    2    1    2    0    0  0.81785162941E+01  0.23226908358E+02 -0.68775186216E+02  0.11820608860E+03  0.92931564830E+02 0.  0.
         24    2    1    2    0    0  0.54632264584E+02  0.31330517933E+02 -0.21318339401E+02  0.10471663887E+03  0.80900044339E+02 0.  0.
        -13    1    4    4    0    0  0.32216733650E+02  0.34213905084E+00 -0.48194530625E+02  0.57971956741E+02  0.00000000000E+00 0.  1.
         14    1    4    4    0    0  0.22415530934E+02  0.30988378882E+02  0.26876191224E+02  0.46744682130E+02  0.00000000000E+00 0. -1.
        -11    1    3    3    0    0 -0.80841776114E+01 -0.28829280174E+02  0.61667489206E+00  0.29947647836E+02  0.00000000000E+00 0.  1.
         11    1    3    3    0    0  0.16262693905E+02  0.52056188532E+02 -0.69391861108E+02  0.88258440761E+02  0.00000000000E+00 0. -1.
         21    1    1    2  502  501 -0.62810780878E+02 -0.54557426291E+02 -0.26367612174E+03  0.27649015197E+03  0.00000000000E+00 0.  1.
<scales pt_clust_5="13000.00000" pt_clust_6="13000.00000" pt_clust_7="13000.00000" pt_clust_8="13000.00000" pt_clust_9="83.19680"></scales>
<clustering>
<clus scale="   80.900">  5  6 -1 -1</clus>
<clus scale="   83.197">  2  9  1 -1</clus>
<clus scale="   86.565">  1  5  2 -1</clus>
<clus scale="   92.932">  7  8 -1 -1</clus>
<clus scale="   86.565">  1  5  2 -1</clus>
</clustering>
</event>
<event>
 9    2  0.5684583E-005  0.1008071E+03  0.7546771E-02  0.1283039E+00
         -1   -1    0    0    0  501 -0.00000000000E+00  0.00000000000E+00  0.40997921177E+02  0.40997921177E+02  0.00000000000E+00 0.  1.
          2   -1    0    0  502    0  0.00000000000E+00 -0.00000000000E+00 -0.87821022319E+03  0.87821022319E+03  0.00000000000E+00 0. -1.
         23    2    1    2    0    0 -0.46294306920E+02 -0.48455620915E+02 -0.63163013314E+02  0.13013702346E+03  0.91950903051E+02 0.  0.
         24    2    1    2    0    0  0.37102616264E+02  0.13733340512E+02 -0.70753840777E+03  0.71348129874E+03  0.82944297027E+02 0.  0.
        -11    1    4    4    0    0  0.53236170301E+02 -0.31481192652E+01 -0.26421090083E+03  0.26953923759E+03  0.00000000000E+00 0.  1.
         12    1    4    4    0    0 -0.16133554037E+02  0.16881459778E+02 -0.44332750694E+03  0.44394206115E+03  0.00000000000E+00 0. -1.
        -13    1    3    3    0    0 -0.53953997729E+02  0.96326676316E+01 -0.25206262356E+02  0.60325598369E+02  0.00000000000E+00 0.  1.
         13    1    3    3    0    0  0.76596908089E+01 -0.58088288547E+02 -0.37956750958E+02  0.69811425089E+02  0.00000000000E+00 0. -1.
         21    1    1    2  502  501  0.91916906556E+01  0.34722280403E+02 -0.66510880934E+02  0.75589822172E+02  0.00000000000E+00 0.  1.
<scales pt_clust_5="13000.00000" pt_clust_6="13000.00000" pt_clust_7="13000.00000" pt_clust_8="13000.00000" pt_clust_9="35.91830"></scales>
<clustering>
<clus scale="   35.918">  1  9  2 -1</clus>
<clus scale="   82.944">  5  6 -1 -1</clus>
<clus scale="   91.951">  7  8 -1 -1</clus>
<clus scale="   92.665">  2  5  1 -1</clus>
<clus scale="   92.665">  2  5  1 -1</clus>
</clustering>
</event>
<event>
 9    2  0.5684583E-005  0.1053450E+03  0.7546771E-02  0.1274030E+00
          4   -1    0    0  502    0  0.00000000000E+00  0.00000000000E+00  0.78382752194E+02  0.78382752194E+02  0.00000000000E+00 0. -1.
         -3   -1    0    0    0  501 -0.00000000000E+00 -0.00000000000E+00 -0.25962641299E+03  0.25962641299E+03  0.00000000000E+00 0.  1.
         24    2    1    2    0    0  0.10298677929E+02 -0.66593263299E+02 -0.10528995763E+03  0.14880005577E+03  0.80714038035E+02 0.  0.
         23    2    1    2    0    0  0.13266038548E+02  0.46760362169E+02  0.41235427268E+01  0.10341280914E+03  0.91184901390E+02 0.  0.
        -11    1    3    3    0    0  0.16773629847E+02 -0.36041456782E+02 -0.11023185557E+03  0.11718107035E+03  0.00000000000E+00 0.  1.
         12    1    3    3    0    0 -0.64749519186E+01 -0.30551806517E+02  0.49418979427E+01  0.31618985422E+02  0.00000000000E+00 0. -1.
        -11    1    4    4    0    0  0.16329828321E+02 -0.23638743743E+02 -0.11983399489E+02  0.31129654063E+02  0.00000000000E+00 0.  1.
         11    1    4    4    0    0 -0.30637897726E+01  0.70399105912E+02  0.16106942216E+02  0.72283155082E+02  0.00000000000E+00 0. -1.
         21    1    1    2  502  501 -0.23564716477E+02  0.19832901130E+02 -0.80077245895E+02  0.85796300270E+02  0.00000000000E+00 0.  1.
<scales pt_clust_5="13000.00000" pt_clust_6="13000.00000" pt_clust_7="13000.00000" pt_clust_8="13000.00000" pt_clust_9="30.80000"></scales>
<clustering>
<clus scale="   30.800">  2  9  1 -1</clus>
<clus scale="   80.714">  5  6 -1 -1</clus>
<clus scale="   91.185">  7  8 -1 -1</clus>
<clus scale="   96.424">  2  5  1 -1</clus>
<clus scale="  105.345">  1  5  2 -1</clus>
</clustering>
</event>
<event>
 9    2  0.5684583E-005  0.1070969E+03  0.7546771E-02  0.1269729E+00
         -1   -1    0    0    0  501 -0.00000000000E+00  0.00000000000E+00  0.11318338798E+03  0.11318338798E+03  0.00000000000E+00 0.  1.
          2   -1    0    0  502    0  0.00000000000E+00 -0.00000000000E+00 -0.19764391259E+03  0.19764391259E+03  0.00000000000E+00 0. -1.
         24    2    1    2    0    0 -0.68413239964E+02 -0.75384078874E+00  0.30083102050E+02  0.11181331770E+03  0.83164206885E+02 0.  0.
         23    2    1    2    0    0  0.46275029744E+02  0.25881538602E+02 -0.12497627049E+03  0.16393775722E+03  0.91898246108E+02 0.  0.
        -13    1    3    3    0    0 -0.45609689835E+02  0.39257916739E+02  0.26078174487E+02  0.65585814154E+02  0.00000000000E+00 0.  1.
         14    1    3    3    0    0 -0.22803550128E+02 -0.40011757528E+02  0.40049275631E+01  0.46227503542E+02  0.00000000000E+00 0. -1.
        -11    1    4    4    0    0 -0.81051206283E+01  0.30485671204E+02 -0.47444079286E+01  0.31899506826E+02  0.00000000000E+00 0.  1.
         11    1    4    4    0    0  0.54380150372E+02 -0.46041326019E+01 -0.12023186256E+03  0.13203825039E+03  0.00000000000E+00 0. -1.
         21    1    1    2  502  501  0.22138210220E+02 -0.25127697813E+02  0.10432643833E+02  0.35076225659E+02  0.00000000000E+00 0. -1.
<scales pt_clust_5="13000.00000" pt_clust_6="13000.00000" pt_clust_7="13000.00000" pt_clust_8="13000.00000" pt_clust_9="33.48883"></scales>
<clustering>
<clus scale="   33.489">  1  9  2 -1</clus>
<clus scale="   83.164">  5  6 -1 -1</clus>
<clus scale="   91.898">  7  8 -1 -1</clus>
<clus scale="   99.703">  1  5  2 -1</clus>
<clus scale="  107.097">  2  5  1 -1</clus>
</clustering>
</event>
<event>
 9    2  0.5684583E-005  0.1047352E+03  0.7546771E-02  0.1275846E+00
         -1   -1    0    0    0  501 -0.00000000000E+00  0.00000000000E+00  0.71345274667E+02  0.71345274667E+02  0.00000000000E+00 0.  1.
          2   -1    0    0  502    0  0.00000000000E+00 -0.00000000000E+00 -0.18077179440E+03  0.18077179440E+03  0.00000000000E+00 0. -1.
         23    2    1    2    0    0  0.23313697985E+02  0.55615452799E+02 -0.36278861949E+02  0.11569588869E+03  0.91830146091E+02 0.  0.
         24    2    1    2    0    0 -0.56190031524E+01 -0.44999144544E+02 -0.69533801754E+02  0.11547199945E+03  0.80264169246E+02 0.  0.
        -13    1    4    4    0    0  0.15278165306E+02  0.13438301903E+02  0.23747270358E+01  0.20485351392E+02  0.00000000000E+00 0.  1.
         14    1    4    4    0    0 -0.20897168458E+02 -0.58437446447E+02 -0.71908528790E+02  0.94986648060E+02  0.00000000000E+00 0. -1.
        -13    1    3    3    0    0 -0.34631292779E+02  0.27139216755E+02 -0.23494049268E+02  0.49878190390E+02  0.00000000000E+00 0. -1.
         13    1    3    3    0    0  0.57944990764E+02  0.28476236044E+02 -0.12784812681E+02  0.65817698297E+02  0.00000000000E+00 0.  1.
         21    1    1    2  502  501 -0.17694694833E+02 -0.10616308255E+02 -0.36138560312E+01  0.20949180929E+02  0.00000000000E+00 0. -1.
<scales pt_clust_5="13000.00000" pt_clust_6="13000.00000" pt_clust_7="13000.00000" pt_clust_8="13000.00000" pt_clust_9="20.63512"></scales>
<clustering>
<clus scale="   20.635">  1  9  2 -1</clus>
<clus scale="   80.264">  5  6 -1 -1</clus>
<clus scale="   91.830">  7  8 -1 -1</clus>
<clus scale="   94.758">  2  5  1 -1</clus>
<clus scale="   94.758">  2  5  1 -1</clus>
</clustering>
</event>
<event>
 9    2  0.5684583E-005  0.1084133E+03  0.7546771E-02  0.1270719E+00
         -1   -1    0    0    0  501 -0.00000000000E+00  0.00000000000E+00  0.19883718409E+02  0.19883718409E+02  0.00000000000E+00 0.  1.
          2   -1    0    0  502    0  0.00000000000E+00 -0.00000000000E+00 -0.13743516595E+04  0.13743516595E+04  0.00000000000E+00 0. -1.
         23    2    1    2    0    0  0.45577538170E+02  0.34530687544E+02 -0.27760082578E+03  0.29613326455E+03  0.85807992217E+02 0.  0.
         24    2    1    2    0    0 -0.27958575369E+02 -0.19201312649E+02 -0.10676988260E+04  0.10730127707E+04  0.10111998182E+03 0.  0.
        -11    1    4    4    0    0 -0.32104705137E+02  0.23909395386E+02 -0.18636944714E+03  0.19061988906E+03  0.00000000000E+00 0.  1.
         12    1    4    4    0    0  0.41461297685E+01 -0.43110708036E+02 -0.88132937887E+03  0.88239288166E+03  0.00000000000E+00 0. -1.
        -11    1    3    3    0    0 -0.71811024371E+01 -0.19632066138E+02 -0.11405290662E+03  0.11595279972E+03  0.00000000000E+00 0. -1.
         11    1    3    3    0    0  0.52758640607E+02  0.54162753681E+02 -0.16354791916E+03  0.18018046483E+03  0.00000000000E+00 0.  1.
         21    1    1    2  502  501 -0.17618962801E+02 -0.15329374894E+02 -0.91682892796E+01  0.25089342621E+02  0.00000000000E+00 0. -1.
<scales pt_clust_5="13000.00000" pt_clust_6="13000.00000" pt_clust_7="13000.00000" pt_clust_8="13000.00000" pt_clust_9="23.35418"></scales>
<clustering>
<clus scale="   23.354">  1  9  2 -1</clus>
<clus scale="   85.808">  7  8 -1 -1</clus>
<clus scale="   94.293">  1  7  2 -1</clus>
<clus scale="  101.120">  5  6 -1 -1</clus>
<clus scale="  108.413">  2  5  1 -1</clus>
</clustering>
</event>
<event>
 9    2  0.5684583E-005  0.2242978E+03  0.7546771E-02  0.1131635E+00
          2   -1    0    0  502    0  0.00000000000E+00  0.00000000000E+00  0.12941514720E+03  0.12941514720E+03  0.00000000000E+00 0. -1.
         -1   -1    0    0    0  501 -0.00000000000E+00 -0.00000000000E+00 -0.62691772724E+03  0.62691772724E+03  0.00000000000E+00 0.  1.
         23    2    1    2    0    0 -0.14971764613E+03 -0.32399637411E+01 -0.32614060706E+03  0.37053822511E+03  0.92222609837E+02 0.  0.
         24    2    1    2    0    0  0.22857469358E+03  0.11728727605E+02 -0.60843456134E+02  0.24976216935E+03  0.79342683896E+02 0.  0.
        -11    1    4    4    0    0  0.18376747830E+03  0.23626693307E+02 -0.17175687217E+02  0.18607447689E+03  0.00000000000E+00 0.  1.
         12    1    4    4    0    0  0.44807215277E+02 -0.11897965702E+02 -0.43667768917E+02  0.63687692460E+02  0.00000000000E+00 0. -1.
        -11    1    3    3    0    0 -0.12339727161E+03  0.32803190069E+02 -0.20583429643E+03  0.24222034081E+03  0.00000000000E+00 0.  1.
         11    1    3    3    0    0 -0.26320374523E+02 -0.36043153810E+02 -0.12030631063E+03  0.12831788429E+03  0.00000000000E+00 0. -1.
         21    1    1    2  502  501 -0.78857047450E+02 -0.84887638640E+01 -0.11051851685E+03  0.13603247998E+03  0.00000000000E+00 0. -1.
<scales pt_clust_5="13000.00000" pt_clust_6="13000.00000" pt_clust_7="13000.00000" pt_clust_8="13000.00000" pt_clust_9="79.31263"></scales>
<clustering>
<clus scale="   79.313">  2  9  1 -1</clus>
<clus scale="   79.343">  5  6 -1 -1</clus>
<clus scale="   92.223">  7  8 -1 -1</clus>
<clus scale="  219.317">  1  5  2 -1</clus>
<clus scale="  219.317">  1  5  2 -1</clus>
</clustering>
</event>
<event>
 9    2  0.5684583E-005  0.3329447E+03  0.7546771E-02  0.1070262E+00
         -1   -1    0    0    0  501 -0.00000000000E+00  0.00000000000E+00  0.32832004921E+03  0.32832004921E+03  0.00000000000E+00 0.  1.
          2   -1    0    0  502    0  0.00000000000E+00 -0.00000000000E+00 -0.91424546580E+03  0.91424546580E+03  0.00000000000E+00 0. -1.
         24    2    1    2    0    0  0.12344245409E+02 -0.27061745070E+03  0.58400082903E+02  0.28869026837E+03  0.80903129445E+02 0.  0.
         23    2    1    2    0    0 -0.17600776916E+03  0.28779744974E+03 -0.69775118193E+03  0.78085731426E+03  0.95264507913E+02 0.  0.
        -13    1    3    3    0    0  0.93377113696E+01 -0.24155963883E+03  0.77415790451E+02  0.25383352138E+03  0.00000000000E+00 0.  1.
         14    1    3    3    0    0  0.30065340389E+01 -0.29057811872E+02 -0.19015707548E+02  0.34856746998E+02  0.00000000000E+00 0. -1.
        -13    1    4    4    0    0 -0.14151251906E+03  0.15289153341E+03 -0.36734747535E+03  0.42231005398E+03  0.00000000000E+00 0.  1.
         13    1    4    4    0    0 -0.34495250108E+02  0.13490591633E+03 -0.33040370658E+03  0.35854726029E+03  0.00000000000E+00 0. -1.
         21    1    1    2  502  501  0.16366352376E+03 -0.17179999042E+02  0.53425682439E+02  0.17301793236E+03  0.00000000000E+00 0.  1.
<scales pt_clust_5="13000.00000" pt_clust_6="13000.00000" pt_clust_7="13000.00000" pt_clust_8="13000.00000" pt_clust_9="164.56276"></scales>
<clustering>
<clus scale="   80.903">  5  6 -1 -1</clus>
<clus scale="   95.265">  7  8 -1 -1</clus>
<clus scale="  164.563">  1  9  2 -1</clus>
<clus scale="  329.123">  1  5  2 -1</clus>
<clus scale="  332.945">  2  5  1 -1</clus>
</clustering>
</event>
<event>
 9    2  0.5684583E-005  0.2221553E+03  0.7546771E-02  0.1132978E+00
          2   -1    0    0  502    0  0.00000000000E+00  0.00000000000E+00  0.13260754414E+04  0.13260754414E+04  0.00000000000E+00 0. -1.
         -1   -1    0    0    0  501 -0.00000000000E+00 -0.00000000000E+00 -0.15130345890E+03  0.15130345890E+03  0.00000000000E+00 0.  1.
         23    2    1    2    0    0  0.11273808426E+03  0.74182986265E+02 -0.42186647164E+02  0.16817950604E+03  0.91058453534E+02 0.  0.
         24    2    1    2    0    0 -0.11560383437E+03 -0.17602430114E+03  0.11790680286E+04  0.12004999758E+04  0.81547376309E+02 0.  0.
        -11    1    4    4    0    0 -0.46231410576E+01 -0.76332341582E+02  0.42224481982E+03  0.42911383999E+03  0.00000000000E+00 0.  1.
         12    1    4    4    0    0 -0.11098069332E+03 -0.99691959554E+02  0.75682320882E+03  0.77138613579E+03  0.00000000000E+00 0. -1.
        -13    1    3    3    0    0  0.40185186158E+02  0.55287103679E+02 -0.60191930231E+02  0.91074592970E+02  0.00000000000E+00 0.  1.
         13    1    3    3    0    0  0.72552898100E+02  0.18895882587E+02  0.18005283066E+02  0.77104913072E+02  0.00000000000E+00 0. -1.
         21    1    1    2  502  501  0.28657501153E+01  0.10184131487E+03  0.37890601065E+02  0.10869941852E+03  0.00000000000E+00 0.  1.
<scales pt_clust_5="13000.00000" pt_clust_6="13000.00000" pt_clust_7="13000.00000" pt_clust_8="13000.00000" pt_clust_9="101.88163"></scales>
<clustering>
<clus scale="   81.547">  5  6 -1 -1</clus>
<clus scale="   91.058">  7  8 -1 -1</clus>
<clus scale="  101.882">  2  9  1 -1</clus>
<clus scale="  218.429">  1  5  2 -1</clus>
<clus scale="  218.429">  1  5  2 -1</clus>
</clustering>
</event>
<event>
 9    2  0.5684583E-005  0.9246032E+02  0.7546771E-02  0.1301475E+00
          2   -1    0    0  502    0  0.00000000000E+00  0.00000000000E+00  0.22513703258E+03  0.22513703258E+03  0.00000000000E+00 0. -1.
         -1   -1    0    0    0  501 -0.00000000000E+00 -0.00000000000E+00 -0.56020746106E+02  0.56020746106E+02  0.00000000000E+00 0.  1.
         23    2    1    2    0    0 -0.19541999956E+01 -0.10492517343E+02  0.32158905129E+02  0.96433436448E+02  0.90284553875E+02 0.  0.
         24    2    1    2    0    0 -0.18695313339E+02  0.35063286871E+02  0.99043433078E+02  0.13504947345E+03  0.82763577833E+02 0.  0.
        -11    1    4    4    0    0 -0.10787097929E+02  0.59999266362E+02  0.87045385616E+02  0.10626933990E+03  0.00000000000E+00 0.  1.
         12    1    4    4    0    0 -0.79082154095E+01 -0.24935979491E+02  0.11998047462E+02  0.28780133548E+02  0.00000000000E+00 0. -1.
        -13    1    3    3    0    0  0.21410841947E+02 -0.42938026850E+02  0.29584034336E+02  0.56367662629E+02  0.00000000000E+00 0. -1.
         13    1    3    3    0    0 -0.23365041943E+02  0.32445509507E+02  0.25748707928E+01  0.40065773819E+02  0.00000000000E+00 0.  1.
         21    1    1    2  502  501  0.20649513334E+02 -0.24570769528E+02  0.37913948268E+02  0.49674868791E+02  0.00000000000E+00 0. -1.
<scales pt_clust_5="13000.00000" pt_clust_6="13000.00000" pt_clust_7="13000.00000" pt_clust_8="13000.00000" pt_clust_9="32.09556"></scales>
<clustering>
<clus scale="   32.096">  1  9  2 -1</clus>
<clus scale="   82.764">  5  6 -1 -1</clus>
<clus scale="   85.132">  1  5  2 -1</clus>
<clus scale="   90.285">  7  8 -1 -1</clus>
<clus scale="   32.096">  1  5  2 -1</clus>
</clustering>
</event>
<event>
 9    2  0.5684583E-005  0.1375972E+03  0.7546771E-02  0.1219025E+00
          2   -1    0    0  502    0  0.00000000000E+00  0.00000000000E+00  0.12862658539E+03  0.12862658539E+03  0.00000000000E+00 0. -1.
         -1   -1    0    0    0  501 -0.00000000000E+00 -0.00000000000E+00 -0.35318703854E+03  0.35318703854E+03  0.00000000000E+00 0.  1.
         23    2    1    2    0    0 -0.10272899909E+03  0.23393960484E+02 -0.54115943124E+02  0.15611104091E+03  0.10169364362E+03 0.  0.
         24    2    1    2    0    0  0.87124104049E+02 -0.71059179840E+00  0.24180783488E+02  0.12913948159E+03  0.92201849053E+02 0.  0.
        -11    1    4    4    0    0  0.81451112452E+02  0.35884637042E+02  0.10335673468E+02  0.89603666450E+02  0.00000000000E+00 0.  1.
         12    1    4    4    0    0  0.56729915979E+01 -0.36595228840E+02  0.13845110020E+02  0.39535815143E+02  0.00000000000E+00 0. -1.
        -11    1    3    3    0    0 -0.11788846717E+03  0.38373332088E+02 -0.52820889060E+02  0.13475997042E+03  0.00000000000E+00 0.  1.
         11    1    3    3    0    0  0.15159468077E+02 -0.14979371604E+02 -0.12950540639E+01  0.21351070490E+02  0.00000000000E+00 0. -1.
         21    1    1    2  502  501  0.15604895041E+02 -0.22683368685E+02 -0.19462529351E+03  0.19656310142E+03  0.00000000000E+00 0.  1.
<scales pt_clust_5="13000.00000" pt_clust_6="13000.00000" pt_clust_7="13000.00000" pt_clust_8="13000.00000" pt_clust_9="27.53267"></scales>
<clustering>
<clus scale="   27.533">  2  9  1 -1</clus>
<clus scale="   92.202">  5  6 -1 -1</clus>
<clus scale="  101.694">  7  8 -1 -1</clus>
<clus scale="  130.739">  1  5  2 -1</clus>
<clus scale="  130.739">  1  5  2 -1</clus>
</clustering>
</event>
<event>
 9    2  0.5684583E-005  0.1448340E+03  0.7546771E-02  0.1211043E+00
          2   -1    0    0  502    0  0.00000000000E+00  0.00000000000E+00  0.36256675320E+03  0.36256675320E+03  0.00000000000E+00 0. -1.
         -1   -1    0    0    0  501 -0.00000000000E+00 -0.00000000000E+00 -0.26394390440E+03  0.26394390440E+03  0.00000000000E+00 0.  1.
         24    2    1    2    0    0 -0.58788356906E+01 -0.58479959333E+02 -0.43074701670E+02  0.10074248988E+03  0.69564020810E+02 0.  0.
         23    2    1    2    0    0  0.31464137375E+02  0.12335901920E+03  0.30804708324E+03  0.34539059948E+03  0.90521937421E+02 0.  0.
        -11    1    3    3    0    0  0.21362126412E+02 -0.28809436969E+02 -0.48263390627E+02  0.60130516197E+02  0.00000000000E+00 0.  1.
         12    1    3    3    0    0 -0.27240962102E+02 -0.29670522364E+02  0.51886889567E+01  0.40611973686E+02  0.00000000000E+00 0. -1.
        -11    1    4    4    0    0  0.37325811737E+02  0.64371393759E+01  0.95476692348E+02  0.10271539206E+03  0.00000000000E+00 0.  1.
         11    1    4    4    0    0 -0.58616743619E+01  0.11692187983E+03  0.21257039089E+03  0.24267520741E+03  0.00000000000E+00 0. -1.
         21    1    1    2  502  501 -0.25585301684E+02 -0.64879059870E+02 -0.16634953277E+03  0.18037756824E+03  0.00000000000E+00 0. -1.
<scales pt_clust_5="13000.00000" pt_clust_6="13000.00000" pt_clust_7="13000.00000" pt_clust_8="13000.00000" pt_clust_9="69.74167"></scales>
<clustering>
<clus scale="   69.564">  5  6 -1 -1</clus>
<clus scale="   69.742">  2  9  1 -1</clus>
<clus scale="   90.522">  7  8 -1 -1</clus>
<clus scale="  132.747">  2  5  1 -1</clus>
<clus scale="  144.834">  1  5  2 -1</clus>
</clustering>
</event>
<event>
 9    2  0.5684583E-005  0.1061908E+03  0.7546771E-02  0.1271101E+00
         -1   -1    0    0    0  501 -0.00000000000E+00  0.00000000000E+00  0.58318031613E+02  0.58318031613E+02  0.00000000000E+00 0.  1.
          2   -1    0    0  502    0  0.00000000000E+00 -0.00000000000E+00 -0.41715794834E+03  0.41715794834E+03  0.00000000000E+00 0. -1.
         24    2    1    2    0    0  0.19333740490E+02 -0.34706603211E+02 -0.19185265740E+02  0.90701562153E+02  0.79248704265E+02 0.  0.
         23    2    1    2    0    0 -0.49994719641E+02  0.42884735645E+02 -0.33534706929E+03  0.35275047750E+03  0.87388042384E+02 0.  0.
        -11    1    3    3    0    0  0.42372381411E+02 -0.15192312800E+01 -0.25991302298E+02  0.49732027560E+02  0.00000000000E+00 0.  1.
         12    1    3    3    0    0 -0.23038640921E+02 -0.33187371931E+02  0.68060365578E+01  0.40969534593E+02  0.00000000000E+00 0. -1.
        -11    1    4    4    0    0 -0.43283832248E+02  0.61963065535E+02 -0.31545255511E+03  0.32438129747E+03  0.00000000000E+00 0.  1.
         11    1    4    4    0    0 -0.67108873936E+01 -0.19078329890E+02 -0.19894514181E+02  0.28369180029E+02  0.00000000000E+00 0. -1.
         21    1    1    2  502  501  0.30660979151E+02 -0.81781324340E+01 -0.43075817035E+01  0.32023940306E+02  0.00000000000E+00 0. -1.
<scales pt_clust_5="13000.00000" pt_clust_6="13000.00000" pt_clust_7="13000.00000" pt_clust_8="13000.00000" pt_clust_9="31.73291"></scales>
<clustering>
<clus scale="   31.733">  1  9  2 -1</clus>
<clus scale="   79.249">  5  6 -1 -1</clus>
<clus scale="   87.388">  7  8 -1 -1</clus>
<clus scale="   99.600">  1  5  2 -1</clus>
<clus scale="  106.191">  2  5  1 -1</clus>
</clustering>
</event>
<event>
 9    2  0.5684583E-005  0.1093198E+03  0.7546771E-02  0.1264812E+00
         -1   -1    0    0    0  501 -0.00000000000E+00  0.00000000000E+00  0.85541377055E+02  0.85541377055E+02  0.00000000000E+00 0.  1.
          2   -1    0    0  502    0  0.00000000000E+00 -0.00000000000E+00 -0.51808981187E+03  0.51808981187E+03  0.00000000000E+00 0. -1.
         23    2    1    2    0    0  0.56927873601E+02 -0.14481158571E+02  0.23530818457E+02  0.10947883558E+03  0.89338845288E+02 0.  0.
         24    2    1    2    0    0 -0.45105353881E+02  0.45513616202E+02 -0.44814594606E+03  0.46000967092E+03  0.81658595167E+02 0.  0.
        -11    1    4    4    0    0  0.13390052410E+02  0.20221745893E+02 -0.38970856237E+02  0.45901417694E+02  0.00000000000E+00 0.  1.
         12    1    4    4    0    0 -0.58495406291E+02  0.25291870309E+02 -0.40917508982E+03  0.41410825323E+03  0.00000000000E+00 0. -1.
        -11    1    3    3    0    0 -0.16647952401E+02 -0.16073610021E+02  0.27301203529E+02  0.35789257779E+02  0.00000000000E+00 0. -1.
         11    1    3    3    0    0  0.73575826002E+02  0.15924514502E+01 -0.37703850728E+01  0.73689577805E+02  0.00000000000E+00 0.  1.
         21    1    1    2  502  501 -0.11822519720E+02 -0.31032457632E+02 -0.79333072102E+01  0.34142682415E+02  0.00000000000E+00 0.  1.
<scales pt_clust_5="13000.00000" pt_clust_6="13000.00000" pt_clust_7="13000.00000" pt_clust_8="13000.00000" pt_clust_9="33.20821"></scales>
<clustering>
<clus scale="   33.208">  1  9  2 -1</clus>
<clus scale="   81.659">  5  6 -1 -1</clus>
<clus scale="   89.339">  7  8 -1 -1</clus>
<clus scale="  103.138">  2  5  1 -1</clus>
<clus scale="  103.138">  2  5  1 -1</clus>
</clustering>
</event>
<event>
 9    2  0.5684583E-005  0.1025277E+03  0.7546771E-02  0.1280563E+00
         -1   -1    0    0    0  501 -0.00000000000E+00  0.00000000000E+00  0.17180697544E+03  0.17180697544E+03  0.00000000000E+00 0.  1.
          2   -1    0    0  502    0  0.00000000000E+00 -0.00000000000E+00 -0.33829075574E+03  0.33829075574E+03  0.00000000000E+00 0. -1.
         23    2    1    2    0    0 -0.22845079777E+02 -0.61159092614E+02  0.49725081148E+02  0.12195471755E+03  0.90211070044E+02 0.  0.
         24    2    1    2    0    0  0.33721844151E+02  0.33871096537E+02 -0.29240246319E+03  0.30648271925E+03  0.78409455872E+02 0.  0.
        -13    1    4    4    0    0  0.18622673386E+02 -0.24777944036E+02 -0.88131867894E+02  0.93423640547E+02  0.00000000000E+00 0.  1.
         14    1    4    4    0    0  0.15099170764E+02  0.58649040573E+02 -0.20427059529E+03  0.21305907871E+03  0.00000000000E+00 0. -1.
        -11    1    3    3    0    0  0.31305872687E+02 -0.26758182197E+01  0.10547718845E+02  0.33143205046E+02  0.00000000000E+00 0. -1.
         11    1    3    3    0    0 -0.54150952464E+02 -0.58483274394E+02  0.39177362303E+02  0.88811512506E+02  0.00000000000E+00 0.  1.
         21    1    1    2  502  501 -0.10876764374E+02  0.27287996077E+02  0.76193601734E+02  0.81660294381E+02  0.00000000000E+00 0. -1.
<scales pt_clust_5="13000.00000" pt_clust_6="13000.00000" pt_clust_7="13000.00000" pt_clust_8="13000.00000" pt_clust_9="29.37582"></scales>
<clustering>
<clus scale="   29.376">  1  9  2 -1</clus>
<clus scale="   78.409">  5  6 -1 -1</clus>
<clus scale="   90.211">  7  8 -1 -1</clus>
<clus scale="   92.314">  2  5  1 -1</clus>
<clus scale="   92.314">  2  5  1 -1</clus>
</clustering>
</event>
<event>
 9    2  0.5684583E-005  0.3954322E+03  0.7546771E-02  0.1045772E+00
         -1   -1    0    0    0  501 -0.00000000000E+00  0.00000000000E+00  0.91335692324E+02  0.91335692324E+02  0.00000000000E+00 0.  1.
          2   -1    0    0  502    0  0.00000000000E+00 -0.00000000000E+00 -0.27503961639E+04  0.27503961639E+04  0.00000000000E+00 0. -1.
         24    2    1    2    0    0 -0.39165708190E+03 -0.21527294447E+03 -0.99920692560E+03  0.10975289673E+04  0.80110195761E+02 0.  0.
         23    2    1    2    0    0  0.30974332362E+03  0.17318176551E+03 -0.15796006224E+04  0.16220469931E+04  0.99827206324E+02 0.  0.
        -13    1    3    3    0    0 -0.13088652887E+03 -0.90185583859E+02 -0.27382438094E+03  0.31661414146E+03  0.00000000000E+00 0.  1.
         14    1    3    3    0    0 -0.26077055303E+03 -0.12508736061E+03 -0.72538254466E+03  0.78091482584E+03  0.00000000000E+00 0. -1.
        -11    1    4    4    0    0  0.12589648632E+03  0.11269091464E+03 -0.88505167353E+03  0.90103586628E+03  0.00000000000E+00 0. -1.
         11    1    4    4    0    0  0.18384683730E+03  0.60490850863E+02 -0.69454894886E+03  0.72101112681E+03  0.00000000000E+00 0.  1.
         21    1    1    2  502  501  0.81913758287E+02  0.42091178960E+02 -0.80252923591E+02  0.12215589584E+03  0.00000000000E+00 0. -1.
<scales pt_clust_5="13000.00000" pt_clust_6="13000.00000" pt_clust_7="13000.00000" pt_clust_8="13000.00000" pt_clust_9="92.09523"></scales>
<clustering>
<clus scale="   80.110">  5  6 -1 -1</clus>
<clus scale="   92.095">  1  9  2 -1</clus>
<clus scale="   99.827">  7  8 -1 -1</clus>
<clus scale="  390.920">  1  5  2 -1</clus>
<clus scale="  395.432">  2  5  1 -1</clus>
</clustering>
</event>
<event>
 9    2  0.5684583E-005  0.1157645E+03  0.7546771E-02  0.1256628E+00
          2   -1    0    0  502    0  0.00000000000E+00  0.00000000000E+00  0.59296412015E+03  0.59296412015E+03  0.00000000000E+00 0. -1.
         -1   -1    0    0    0  501 -0.00000000000E+00 -0.00000000000E+00 -0.19707368636E+03  0.19707368636E+03  0.00000000000E+00 0.  1.
         23    2    1    2    0    0 -0.18413485950E+02 -0.38575537612E+02 -0.17158712013E+03  0.19960098179E+03  0.92581226885E+02 0.  0.
         24    2    1    2    0    0  0.43069066192E+02  0.28735999513E+02  0.53659150626E+03  0.54971014933E+03  0.10756440657E+03 0.  0.
        -13    1    4    4    0    0  0.17861608018E+02 -0.94661238065E+01  0.12808396060E+02  0.23931141856E+02  0.00000000000E+00 0.  1.
         14    1    4    4    0    0  0.25207458174E+02  0.38202123320E+02  0.52378311020E+03  0.52577900748E+03  0.00000000000E+00 0. -1.
        -13    1    3    3    0    0 -0.27419855832E+01 -0.66965013647E+02 -0.93420523372E+02  0.11497489171E+03  0.00000000000E+00 0. -1.
         13    1    3    3    0    0 -0.15671500366E+02  0.28389476035E+02 -0.78166596759E+02  0.84626090080E+02  0.00000000000E+00 0.  1.
         21    1    1    2  502  501 -0.24655580243E+02  0.98395380985E+01  0.30886047671E+02  0.40726675384E+02  0.00000000000E+00 0. -1.
<scales pt_clust_5="13000.00000" pt_clust_6="13000.00000" pt_clust_7="13000.00000" pt_clust_8="13000.00000" pt_clust_9="26.54645"></scales>
<clustering>
<clus scale="   26.546">  1  9  2 -1</clus>
<clus scale="   92.581">  7  8 -1 -1</clus>
<clus scale="  101.993">  2  7  1 -1</clus>
<clus scale="  107.564">  5  6 -1 -1</clus>
<clus scale="   26.546">  1  5  2 -1</clus>
</clustering>
</event>
<event>
 9    2  0.5684583E-005  0.1043552E+03  0.7546771E-02  0.1276186E+00
          2   -1    0    0  502    0  0.00000000000E+00  0.00000000000E+00  0.11835635326E+03  0.11835635326E+03  0.00000000000E+00 0. -1.
         -1   -1    0    0    0  501 -0.00000000000E+00 -0.00000000000E+00 -0.13313943043E+03  0.13313943043E+03  0.00000000000E+00 0.  1.
         23    2    1    2    0    0 -0.19649289871E+02  0.31144962992E+02 -0.26723748991E+02  0.10172987330E+03  0.90987389512E+02 0.  0.
         24    2    1    2    0    0  0.27767550645E+02 -0.51097826674E+02  0.46137114535E+02  0.10935032401E+03  0.80292186822E+02 0.  0.
        -11    1    4    4    0    0  0.22859226615E+01 -0.64669053863E+02  0.14106925644E+02  0.66229278428E+02  0.00000000000E+00 0.  1.
         12    1    4    4    0    0  0.25481627984E+02  0.13571227188E+02  0.32030188890E+02  0.43121045586E+02  0.00000000000E+00 0. -1.
        -13    1    3    3    0    0 -0.23222138359E+02  0.24816180291E+00 -0.54995655164E+02  0.59698001484E+02  0.00000000000E+00 0.  1.
         13    1    3    3    0    0  0.35728484886E+01  0.30896801189E+02  0.28271906174E+02  0.42031871821E+02  0.00000000000E+00 0. -1.
         21    1    1    2  502  501 -0.81182607747E+01  0.19952863682E+02 -0.34196442714E+02  0.40415586367E+02  0.00000000000E+00 0.  1.
<scales pt_clust_5="13000.00000" pt_clust_6="13000.00000" pt_clust_7="13000.00000" pt_clust_8="13000.00000" pt_clust_9="21.54119"></scales>
<clustering>
<clus scale="   21.541">  2  9  1 -1</clus>
<clus scale="   80.292">  5  6 -1 -1</clus>
<clus scale="   90.987">  7  8 -1 -1</clus>
<clus scale="   95.174">  1  5  2 -1</clus>
<clus scale="   95.174">  1  5  2 -1</clus>
</clustering>
</event>
<event>
 9    2  0.5684583E-005  0.9804201E+02  0.7546771E-02  0.1286920E+00
          2   -1    0    0  502    0  0.00000000000E+00  0.00000000000E+00  0.61897837198E+03  0.61897837198E+03  0.00000000000E+00 0. -1.
         -1   -1    0    0    0  501 -0.00000000000E+00 -0.00000000000E+00 -0.28020298340E+02  0.28020298340E+02  0.00000000000E+00 0.  1.
         23    2    1    2    0    0  0.36047673688E+02  0.17255129758E+02  0.10636519897E+03  0.14148180926E+03  0.84299303189E+02 0.  0.
         24    2    1    2    0    0 -0.36153486589E+02 -0.39417874264E+02  0.46848832256E+03  0.47812060148E+03  0.79102198302E+02 0.  0.
        -13    1    4    4    0    0 -0.23287326216E+02 -0.63486321748E+02  0.30886030801E+03  0.31617637874E+03  0.00000000000E+00 0.  1.
         14    1    4    4    0    0 -0.12866160373E+02  0.24068447484E+02  0.15962801455E+03  0.16194422273E+03  0.00000000000E+00 0. -1.
        -11    1    3    3    0    0  0.55604325600E+02 -0.94928393454E+01  0.46691969847E+02  0.73226327727E+02  0.00000000000E+00 0.  1.
         11    1    3    3    0    0 -0.19556651912E+02  0.26747969104E+02  0.59673229124E+02  0.68255481533E+02  0.00000000000E+00 0. -1.
         21    1    1    2  502  501  0.10581290110E+00  0.22162744506E+02  0.16104552102E+02  0.27396259576E+02  0.00000000000E+00 0.  1.
<scales pt_clust_5="13000.00000" pt_clust_6="13000.00000" pt_clust_7="13000.00000" pt_clust_8="13000.00000" pt_clust_9="22.16300"></scales>
<clustering>
<clus scale="   22.163">  2  9  1 -1</clus>
<clus scale="   79.102">  5  6 -1 -1</clus>
<clus scale="   84.299">  7  8 -1 -1</clus>
<clus scale="   93.611">  1  5  2 -1</clus>
<clus scale="   93.611">  1  5  2 -1</clus>
</clustering>
</event>
<event>
 9    2  0.5684583E-005  0.4205146E+03  0.7546771E-02  0.1079249E+00
         -1   -1    0    0    0  501 -0.00000000000E+00  0.00000000000E+00  0.68107289305E+03  0.68107289305E+03  0.00000000000E+00 0.  1.
          2   -1    0    0  502    0  0.00000000000E+00 -0.00000000000E+00 -0.82761519238E+03  0.82761519238E+03  0.00000000000E+00 0. -1.
         23    2    1    2    0    0 -0.14036868920E+03 -0.44031795109E+03  0.24720584767E+03  0.53216872108E+03  0.92247220080E+02 0.  0.
         24    2    1    2    0    0 -0.28881193203E+01  0.10162856251E+03 -0.55893207088E+03  0.57338322874E+03  0.77630929358E+02 0.  0.
        -13    1    4    4    0    0  0.25060843119E+02  0.46731366575E+02 -0.13572061529E+03  0.14571187973E+03  0.00000000000E+00 0.  1.
         14    1    4    4    0    0 -0.27948962439E+02  0.54897195937E+02 -0.42321145559E+03  0.42767134901E+03  0.00000000000E+00 0. -1.
        -11    1    3    3    0    0 -0.10742028259E+03 -0.25374902130E+03  0.18838660204E+03  0.33379214303E+03  0.00000000000E+00 0.  1.
         11    1    3    3    0    0 -0.32948406609E+02 -0.18656892979E+03  0.58819245640E+02  0.19837657805E+03  0.00000000000E+00 0. -1.
         21    1    1    2  502  501  0.14325680852E+03  0.33868938858E+03  0.16518392388E+03  0.40313613560E+03  0.00000000000E+00 0.  1.
<scales pt_clust_5="13000.00000" pt_clust_6="13000.00000" pt_clust_7="13000.00000" pt_clust_8="13000.00000" pt_clust_9="410.27181"></scales>
<clustering>
<clus scale="   77.631">  5  6 -1 -1</clus>
<clus scale="   92.247">  7  8 -1 -1</clus>
<clus scale="  127.919">  2  5  1 -1</clus>
<clus scale="  410.272">  1  9  2 -1</clus>
<clus scale="  127.919">  2  5  1 -1</clus>
</clustering>
</event>
<event>
 9    2  0.5684583E-005  0.1015465E+03  0.7546771E-02  0.1283439E+00
         -1   -1    0    0    0  501 -0.00000000000E+00  0.00000000000E+00  0.15687028351E+03  0.15687028351E+03  0.00000000000E+00 0.  1.
          2   -1    0    0  502    0  0.00000000000E+00 -0.00000000000E+00 -0.38546555282E+03  0.38546555282E+03  0.00000000000E+00 0. -1.
         23    2    1    2    0    0  0.23505896202E+02 -0.22346743458E+02 -0.13887627838E+02  0.99406256835E+02  0.92934566183E+02 0.  0.
         24    2    1    2    0    0 -0.36425755487E+02 -0.28555762136E+02 -0.31576359384E+03  0.32904238377E+03  0.80124752197E+02 0.  0.
        -11    1    4    4    0    0  0.12752114289E+02 -0.29469588136E+02 -0.55057543765E+02  0.63737007846E+02  0.00000000000E+00 0.  1.
         12    1    4    4    0    0 -0.49177869775E+02  0.91382600013E+00 -0.26070605007E+03  0.26530537593E+03  0.00000000000E+00 0. -1.
        -11    1    3    3    0    0  0.52383998329E+02  0.11813969246E+02 -0.77023743729E+01  0.54249237056E+02  0.00000000000E+00 0.  1.
         11    1    3    3    0    0 -0.28878102127E+02 -0.34160712704E+02 -0.61852534653E+01  0.45157019779E+02  0.00000000000E+00 0. -1.
         21    1    1    2  502  501  0.12919859285E+02  0.50902505594E+02  0.10105595237E+03  0.11388719572E+03  0.00000000000E+00 0.  1.
<scales pt_clust_5="13000.00000" pt_clust_6="13000.00000" pt_clust_7="13000.00000" pt_clust_8="13000.00000" pt_clust_9="52.51655"></scales>
<clustering>
<clus scale="   52.517">  1  9  2 -1</clus>
<clus scale="   80.125">  5  6 -1 -1</clus>
<clus scale="   89.971">  2  5  1 -1</clus>
<clus scale="   92.935">  7  8 -1 -1</clus>
<clus scale="   89.971">  2  5  1 -1</clus>
</clustering>
</event>
<event>
 9    2  0.5684583E-005  0.2020305E+03  0.7546771E-02  0.1148789E+00
         -1   -1    0    0    0  501 -0.00000000000E+00  0.00000000000E+00  0.40128894012E+02  0.40128894012E+02  0.00000000000E+00 0.  1.
          2   -1    0    0  502    0  0.00000000000E+00 -0.00000000000E+00 -0.11446171523E+04  0.11446171523E+04  0.00000000000E+00 0. -1.
         23    2    1    2    0    0 -0.64866723983E+02 -0.17988426978E+03 -0.49512151972E+03  0.53853013041E+03  0.91122662806E+02 0.  0.
         24    2    1    2    0    0  0.69422482751E+02  0.15797557504E+03 -0.56453970708E+03  0.59611393395E+03  0.82891362380E+02 0.  0.
        -11    1    4    4    0    0 -0.15461774451E+02  0.50972285603E+02 -0.19488506866E+03  0.20203324072E+03  0.00000000000E+00 0.  1.
         12    1    4    4    0    0  0.84884257202E+02  0.10700328944E+03 -0.36965463843E+03  0.39408069324E+03  0.00000000000E+00 0. -1.
        -13    1    3    3    0    0 -0.27229610082E+02 -0.10300091096E+03 -0.38255283192E+03  0.39711120424E+03  0.00000000000E+00 0.  1.
         13    1    3    3    0    0 -0.37637113900E+02 -0.76883358822E+02 -0.11256868780E+03  0.14141892617E+03  0.00000000000E+00 0. -1.
         21    1    1    2  502  501 -0.45557587681E+01  0.21908694740E+02 -0.44827031487E+02  0.50101981948E+02  0.00000000000E+00 0.  1.
<scales pt_clust_5="13000.00000" pt_clust_6="13000.00000" pt_clust_7="13000.00000" pt_clust_8="13000.00000" pt_clust_9="22.37735"></scales>
<clustering>
<clus scale="   22.377">  1  9  2 -1</clus>
<clus scale="   82.891">  5  6 -1 -1</clus>
<clus scale="   91.123">  7  8 -1 -1</clus>
<clus scale="  198.454">  2  5  1 -1</clus>
<clus scale="  198.454">  2  5  1 -1</clus>
</clustering>
</event>
<event>
 9    2  0.5684583E-005  0.9188018E+02  0.7546771E-02  0.1305404E+00
          2   -1    0    0  502    0  0.00000000000E+00  0.00000000000E+00  0.47371335799E+02  0.47371335799E+02  0.00000000000E+00 0. -1.
         -1   -1    0    0    0  501 -0.00000000000E+00 -0.00000000000E+00 -0.29558123389E+03  0.29558123389E+03  0.00000000000E+00 0.  1.
         24    2    1    2    0    0  0.13290427337E+01 -0.30841655244E+02 -0.19505622188E+03  0.21583119803E+03  0.87081584141E+02 0.  0.
         23    2    1    2    0    0  0.22487942629E+02  0.21427235261E+02 -0.17525522039E+02  0.83243752475E+02  0.75216649944E+02 0.  0.
        -11    1    3    3    0    0  0.29190971112E+02 -0.31769528796E+02 -0.17799087009E+03  0.18314520357E+03  0.00000000000E+00 0.  1.
         12    1    3    3    0    0 -0.27861928378E+02  0.92787355275E+00 -0.17065351790E+02  0.32685994462E+02  0.00000000000E+00 0. -1.
        -11    1    4    4    0    0  0.20413617586E+02  0.47444624110E+02  0.27671922011E+00  0.51650602257E+02  0.00000000000E+00 0. -1.
         11    1    4    4    0    0  0.20743250430E+01 -0.26017388849E+02 -0.17802241259E+02  0.31593150219E+02  0.00000000000E+00 0.  1.
         21    1    1    2  502  501 -0.23816985363E+02  0.94144199823E+01 -0.35628154169E+02  0.43877619180E+02  0.00000000000E+00 0.  1.
<scales pt_clust_5="13000.00000" pt_clust_6="13000.00000" pt_clust_7="13000.00000" pt_clust_8="13000.00000" pt_clust_9="25.61016"></scales>
<clustering>
<clus scale="   25.610">  2  9  1 -1</clus>
<clus scale="   75.217">  7  8 -1 -1</clus>
<clus scale="   80.724">  1  7  2 -1</clus>
<clus scale="   87.082">  5  6 -1 -1</clus>
<clus scale="   80.724">  1  5  2 -1</clus>
</clustering>
</event>
<event>
 9    2  0.5684583E-005  0.1341894E+03  0.7546771E-02  0.1223863E+00
          2   -1    0    0  502    0  0.00000000000E+00  0.00000000000E+00  0.39811998871E+03  0.39811998871E+03  0.00000000000E+00 0. -1.
         -1   -1    0    0    0  501 -0.00000000000E+00 -0.00000000000E+00 -0.13016657204E+03  0.13016657204E+03  0.00000000000E+00 0.  1.
         24    2    1    2    0    0  0.90510406969E+02 -0.63607889911E+02 -0.55984722659E+02  0.14824277666E+03  0.81262132822E+02 0.  0.
         23    2    1    2    0    0 -0.93826238727E+02  0.25305082507E+02  0.31265448675E+03  0.33997608375E+03  0.91581652998E+02 0.  0.
        -11    1    3    3    0    0  0.10593781375E+03 -0.52595315032E+02 -0.49390742821E+02  0.12817383907E+03  0.00000000000E+00 0.  1.
         12    1    3    3    0    0 -0.15427406785E+02 -0.11012574879E+02 -0.65939798382E+01  0.20068937582E+02  0.00000000000E+00 0. -1.
        -11    1    4    4    0    0 -0.92352786650E+02  0.49028640577E+02  0.28463682278E+03  0.30323417630E+03  0.00000000000E+00 0. -1.
         11    1    4    4    0    0 -0.14734520769E+01 -0.23723558070E+02  0.28017663974E+02  0.36741907450E+02  0.00000000000E+00 0.  1.
         21    1    1    2  502  501  0.33158317583E+01  0.38302807404E+02  0.11283652573E+02  0.40067700342E+02  0.00000000000E+00 0. -1.
<scales pt_clust_5="13000.00000" pt_clust_6="13000.00000" pt_clust_7="13000.00000" pt_clust_8="13000.00000" pt_clust_9="38.44606"></scales>
<clustering>
<clus scale="   38.446">  2  9  1 -1</clus>
<clus scale="   81.262">  5  6 -1 -1</clus>
<clus scale="   91.582">  7  8 -1 -1</clus>
<clus scale="  127.370">  2  5  1 -1</clus>
<clus scale="  134.189">  1  5  2 -1</clus>
</clustering>
</event>
<event>
 9    2  0.5684583E-005  0.1078025E+03  0.7546771E-02  0.1269294E+00
         -1   -1    0    0    0  501 -0.00000000000E+00  0.00000000000E+00  0.17293755175E+02  0.17293755175E+02  0.00000000000E+00 0.  1.
          2   -1    0    0  502    0  0.00000000000E+00 -0.00000000000E+00 -0.91678805988E+03  0.91678805988E+03  0.00000000000E+00 0. -1.
         23    2    1    2    0    0 -0.34387704331E+02 -0.24955663948E+02 -0.23451948080E+03  0.25534626319E+03  0.91635298226E+02 0.  0.
         24    2    1    2    0    0  0.55701995699E+02  0.28610584449E+02 -0.62507846457E+03  0.63335519324E+03  0.80588064046E+02 0.  0.
        -11    1    4    4    0    0  0.30633597142E+02 -0.20967759916E+02 -0.13084591130E+03  0.13600998763E+03  0.00000000000E+00 0.  1.
         12    1    4    4    0    0  0.25068398557E+02  0.49578344365E+02 -0.49423255326E+03  0.49734520561E+03  0.00000000000E+00 0. -1.
        -11    1    3    3    0    0  0.22282204170E+01 -0.34834469098E+02 -0.20315518624E+03  0.20613208120E+03  0.00000000000E+00 0.  1.
         11    1    3    3    0    0 -0.36615924748E+02  0.98788051499E+01 -0.31364294562E+02  0.49214181997E+02  0.00000000000E+00 0. -1.
         21    1    1    2  502  501 -0.21314291369E+02 -0.36549205012E+01 -0.39896359342E+02  0.45380358627E+02  0.00000000000E+00 0. -1.
<scales pt_clust_5="13000.00000" pt_clust_6="13000.00000" pt_clust_7="13000.00000" pt_clust_8="13000.00000" pt_clust_9="21.62539"></scales>
<clustering>
<clus scale="   21.625">  1  9  2 -1</clus>
<clus scale="   80.588">  5  6 -1 -1</clus>
<clus scale="   91.635">  7  8 -1 -1</clus>
<clus scale="   98.584">  2  5  1 -1</clus>
<clus scale="   98.584">  2  5  1 -1</clus>
</clustering>
</event>
<event>
 9    2  0.5684583E-005  0.1031921E+03  0.7546771E-02  0.1287884E+00
         -1   -1    0    0    0  501 -0.00000000000E+00  0.00000000000E+00  0.43529071728E+02  0.43529071728E+02  0.00000000000E+00 0.  1.
          2   -1    0    0  502    0  0.00000000000E+00 -0.00000000000E+00 -0.44902602963E+03  0.44902602963E+03  0.00000000000E+00 0. -1.
         23    2    1    2    0    0 -0.36647480699E+02 -0.59575773327E+01 -0.54586614495E+02  0.12108412752E+03  0.10150436881E+03 0.  0.
         24    2    1    2    0    0  0.12272015268E+02 -0.12827414647E+02 -0.31254251343E+03  0.32228632566E+03  0.76619240935E+02 0.  0.
        -13    1    4    4    0    0  0.29676574781E+00  0.28635592060E+02 -0.65271848130E+02  0.71277621739E+02  0.00000000000E+00 0.  1.
         14    1    4    4    0    0  0.11975249520E+02 -0.41463006707E+02 -0.24727066530E+03  0.25100870392E+03  0.00000000000E+00 0. -1.
        -13    1    3    3    0    0  0.23086268207E+02 -0.29314491754E+02 -0.41160073101E+02  0.55555979194E+02  0.00000000000E+00 0. -1.
         13    1    3    3    0    0 -0.59733748907E+02  0.23356914422E+02 -0.13426541394E+02  0.65528148330E+02  0.00000000000E+00 0.  1.
         21    1    1    2  502  501  0.24375465431E+02  0.18784991980E+02 -0.38367829974E+02  0.49184648170E+02  0.00000000000E+00 0.  1.
<scales pt_clust_5="13000.00000" pt_clust_6="13000.00000" pt_clust_7="13000.00000" pt_clust_8="13000.00000" pt_clust_9="30.77400"></scales>
<clustering>
<clus scale="   30.774">  1  9  2 -1</clus>
<clus scale="   76.619">  5  6 -1 -1</clus>
<clus scale="   78.842">  2  5  1 -1</clus>
<clus scale="  101.504">  7  8 -1 -1</clus>
<clus scale="   78.842">  2  5  1 -1</clus>
</clustering>
</event>
<event>
 9    2  0.5684583E-005  0.1137704E+03  0.7546771E-02  0.1265199E+00
         -1   -1    0    0    0  501 -0.00000000000E+00  0.00000000000E+00  0.85771269250E+02  0.85771269250E+02  0.00000000000E+00 0.  1.
          2   -1    0    0  502    0  0.00000000000E+00 -0.00000000000E+00 -0.23720273274E+03  0.23720273274E+03  0.00000000000E+00 0. -1.
         24    2    1    2    0    0  0.68777748887E+02  0.24682458174E+02 -0.32625828788E+02  0.10015031839E+03  0.60216601414E+02 0.  0.
         23    2    1    2    0    0 -0.35584460747E+02 -0.62318507180E+02 -0.12691820708E+03  0.17198983275E+03  0.91227304558E+02 0.  0.
        -13    1    3    3    0    0  0.69769890374E+02  0.13393325293E+02 -0.44425093293E+02  0.83790260051E+02  0.00000000000E+00 0.  1.
         14    1    3    3    0    0 -0.99214148709E+00  0.11289132882E+02  0.11799264506E+02  0.16360058338E+02  0.00000000000E+00 0. -1.
        -13    1    4    4    0    0 -0.38764993548E+02  0.85471005446E+01 -0.72230416407E+02  0.82419722802E+02  0.00000000000E+00 0. -1.
         13    1    4    4    0    0  0.31805328009E+01 -0.70865607725E+02 -0.54687790670E+02  0.89570109944E+02  0.00000000000E+00 0.  1.
         21    1    1    2  502  501 -0.33193288140E+02  0.37636049006E+02  0.81125723736E+01  0.50833850856E+02  0.00000000000E+00 0. -1.
<scales pt_clust_5="13000.00000" pt_clust_6="13000.00000" pt_clust_7="13000.00000" pt_clust_8="13000.00000" pt_clust_9="50.18233"></scales>
<clustering>
<clus scale="   50.182">  1  9  2 -1</clus>
<clus scale="   60.217">  5  6 -1 -1</clus>
<clus scale="   90.815">  1  5  2 -1</clus>
<clus scale="   91.227">  7  8 -1 -1</clus>
<clus scale="  113.770">  2  5  1 -1</clus>
</clustering>
</event>
<event>
 9    2  0.5684583E-005  0.1198077E+03  0.7546771E-02  0.1246015E+00
          2   -1    0    0  502    0  0.00000000000E+00  0.00000000000E+00  0.62018250029E+03  0.62018250029E+03  0.00000000000E+00 0. -1.
         -1   -1    0    0    0  501 -0.00000000000E+00 -0.00000000000E+00 -0.32349650617E+02  0.32349650617E+02  0.00000000000E+00 0.  1.
         23    2    1    2    0    0  0.98519718514E+02 -0.17093381546E+02  0.29071420835E+03  0.32018061219E+03  0.89457000057E+02 0.  0.
         24    2    1    2    0    0 -0.62596572756E+02  0.21565478498E+02  0.26102269517E+03  0.28123021849E+03  0.81081364177E+02 0.  0.
        -11    1    4    4    0    0 -0.30581022248E+02 -0.20387429118E+02  0.41420981374E+02  0.55376383827E+02  0.00000000000E+00 0.  1.
         12    1    4    4    0    0 -0.32015550508E+02  0.41952907616E+02  0.21960171379E+03  0.22585383467E+03  0.00000000000E+00 0. -1.
        -13    1    3    3    0    0  0.14937314186E+02 -0.30291655585E+02  0.27051608750E+02  0.43272361724E+02  0.00000000000E+00 0.  1.
         13    1    3    3    0    0  0.83582404328E+02  0.13198274039E+02  0.26366259960E+03  0.27690825047E+03  0.00000000000E+00 0. -1.
         21    1    1    2  502  501 -0.35923145758E+02 -0.44720969524E+01  0.36095946155E+02  0.51121320221E+02  0.00000000000E+00 0.  1.
<scales pt_clust_5="13000.00000" pt_clust_6="13000.00000" pt_clust_7="13000.00000" pt_clust_8="13000.00000" pt_clust_9="36.20044"></scales>
<clustering>
<clus scale="   36.200">  2  9  1 -1</clus>
<clus scale="   81.081">  5  6 -1 -1</clus>
<clus scale="   89.457">  7  8 -1 -1</clus>
<clus scale="  113.690">  1  5  2 -1</clus>
<clus scale="  113.690">  1  5  2 -1</clus>
</clustering>
</event>
<event>
 9    2  0.5684583E-005  0.1986170E+03  0.7546771E-02  0.1163430E+00
          2   -1    0    0  502    0  0.00000000000E+00  0.00000000000E+00  0.62618241002E+03  0.62618241002E+03  0.00000000000E+00 0. -1.
         -1   -1    0    0    0  501 -0.00000000000E+00 -0.00000000000E+00 -0.59559703920E+03  0.59559703920E+03  0.00000000000E+00 0.  1.
         23    2    1    2    0    0 -0.42746805233E+02  0.10877825643E+03 -0.49308987382E+03  0.51487637073E+03  0.91104637871E+02 0.  0.
         24    2    1    2    0    0  0.17159485067E+03 -0.20529642496E+03  0.19433127486E+03  0.34031744578E+03  0.80373531909E+02 0.  0.
        -13    1    4    4    0    0  0.15830843327E+03 -0.17177889090E+03  0.13201770938E+03  0.26832484602E+03  0.00000000000E+00 0.  1.
         14    1    4    4    0    0  0.13286417408E+02 -0.33517534060E+02  0.62313565473E+02  0.71992599752E+02  0.00000000000E+00 0. -1.
        -11    1    3    3    0    0 -0.58294651806E+02  0.41636076795E+02 -0.33238039550E+03  0.34001258306E+03  0.00000000000E+00 0. -1.
         11    1    3    3    0    0  0.15547846574E+02  0.67142179635E+02 -0.16070947832E+03  0.17486378768E+03  0.00000000000E+00 0.  1.
         21    1    1    2  502  501 -0.12884804544E+03  0.96518168534E+02  0.32934396979E+03  0.36658563271E+03  0.00000000000E+00 0. -1.
<scales pt_clust_5="13000.00000" pt_clust_6="13000.00000" pt_clust_7="13000.00000" pt_clust_8="13000.00000" pt_clust_9="181.62823"></scales>
<clustering>
<clus scale="   80.374">  5  6 -1 -1</clus>
<clus scale="   91.105">  7  8 -1 -1</clus>
<clus scale="  148.189">  2  7  1 -1</clus>
<clus scale="  181.628">  1  9  2 -1</clus>
<clus scale="  181.628">  1  5  2 -1</clus>
</clustering>
</event>
<event>
 9    2  0.5684583E-005  0.9089324E+02  0.7546771E-02  0.1306087E+00
          2   -1    0    0  502    0  0.00000000000E+00  0.00000000000E+00  0.62107782398E+03  0.62107782398E+03  0.00000000000E+00 0. -1.
         -1   -1    0    0    0  501 -0.00000000000E+00 -0.00000000000E+00 -0.17984674212E+02  0.17984674212E+02  0.00000000000E+00 0.  1.
         23    2    1    2    0    0 -0.12097748876E+02 -0.46738041388E+01  0.23727875588E+03  0.25439039781E+03  0.90802348705E+02 0.  0.
         24    2    1    2    0    0 -0.17096151794E+02 -0.12739274814E+02  0.26293507621E+03  0.27632242037E+03  0.82247542009E+02 0.  0.
        -13    1    4    4    0    0  0.22776763397E+02 -0.25301793413E+02  0.58742807100E+02  0.67894617509E+02  0.00000000000E+00 0.  1.
         14    1    4    4    0    0 -0.39872915191E+02  0.12562518599E+02  0.20419226911E+03  0.20842780286E+03  0.00000000000E+00 0. -1.
        -11    1    3    3    0    0 -0.44319113491E+01  0.32135858199E+02  0.31543605178E+02  0.45247698814E+02  0.00000000000E+00 0.  1.
         11    1    3    3    0    0 -0.76658375273E+01 -0.36809662338E+02  0.20573515071E+03  0.20914269899E+03  0.00000000000E+00 0. -1.
         21    1    1    2  502  501  0.29193900670E+02  0.17413078953E+02  0.10287931767E+03  0.10834968002E+03  0.00000000000E+00 0.  1.
<scales pt_clust_5="13000.00000" pt_clust_6="13000.00000" pt_clust_7="13000.00000" pt_clust_8="13000.00000" pt_clust_9="33.99263"></scales>
<clustering>
<clus scale="   33.993">  1  9  2 -1</clus>
<clus scale="   82.248">  5  6 -1 -1</clus>
<clus scale="   82.348">  1  5  2 -1</clus>
<clus scale="   90.802">  7  8 -1 -1</clus>
<clus scale="   33.993">  1  5  2 -1</clus>
</clustering>
</event>
<event>
 9    2  0.5684583E-005  0.9891300E+02  0.7546771E-02  0.1288408E+00
         -3   -1    0    0    0  501 -0.00000000000E+00  0.00000000000E+00  0.15017092309E+03  0.15017092309E+03  0.00000000000E+00 0.  1.
          4   -1    0    0  502    0  0.00000000000E+00 -0.00000000000E+00 -0.14027989439E+03  0.14027989439E+03  0.00000000000E+00 0. -1.
         23    2    1    2    0    0  0.14066087427E+01  0.30571001019E+02  0.96026915934E+02  0.13563656721E+03  0.90771940203E+02 0.  0.
         24    2    1    2    0    0 -0.30162495428E+02 -0.29142856043E+02 -0.88256727225E+02  0.12594491395E+03  0.79459356037E+02 0.  0.
        -13    1    4    4    0    0 -0.28736974154E+02  0.23387602064E+02 -0.41144163954E+02  0.55368184378E+02  0.00000000000E+00 0.  1.
         14    1    4    4    0    0 -0.14255212740E+01 -0.52530458107E+02 -0.47112563271E+02  0.70576729577E+02  0.00000000000E+00 0. -1.
        -11    1    3    3    0    0  0.52195120978E+01  0.59321294691E+02  0.86681035356E+02  0.10516587470E+03  0.00000000000E+00 0.  1.
         11    1    3    3    0    0 -0.38129033551E+01 -0.28750293672E+02  0.93458805782E+01  0.30470692510E+02  0.00000000000E+00 0. -1.
         21    1    1    2  502  501  0.28755886685E+02 -0.14281449763E+01  0.21208399959E+01  0.28869336317E+02  0.00000000000E+00 0. -1.
<scales pt_clust_5="13000.00000" pt_clust_6="13000.00000" pt_clust_7="13000.00000" pt_clust_8="13000.00000" pt_clust_9="28.79133"></scales>
<clustering>
<clus scale="   28.791">  1  9  2 -1</clus>
<clus scale="   79.459">  5  6 -1 -1</clus>
<clus scale="   88.646">  2  5  1 -1</clus>
<clus scale="   90.772">  7  8 -1 -1</clus>
<clus scale="   88.646">  2  5  1 -1</clus>
</clustering>
</event>
<event>
 9    2  0.5684583E-005  0.1363349E+03  0.7546771E-02  0.1220222E+00
         -1   -1    0    0    0  501 -0.00000000000E+00  0.00000000000E+00  0.38509866180E+03  0.38509866180E+03  0.00000000000E+00 0.  1.
          2   -1    0    0  502    0  0.00000000000E+00 -0.00000000000E+00 -0.10087621677E+04  0.10087621677E+04  0.00000000000E+00 0. -1.
         23    2    1    2    0    0 -0.18016085236E+03 -0.62664194003E+01  0.11166251082E+03  0.24123679264E+03  0.11501944647E+03 0.  0.
         24    2    1    2    0    0  0.59481649790E+02  0.38883751374E+02 -0.92027170943E+03  0.92939261086E+03  0.10872255127E+03 0.  0.
        -13    1    4    4    0    0  0.52615885025E+02  0.52402390872E+02 -0.30414120113E+03  0.31307556939E+03  0.00000000000E+00 0.  1.
         14    1    4    4    0    0  0.68657647658E+01 -0.13518639498E+02 -0.61613050831E+03  0.61631704147E+03  0.00000000000E+00 0. -1.
        -13    1    3    3    0    0 -0.10839627196E+03  0.34348461863E+02  0.15820829533E+02  0.11480360296E+03  0.00000000000E+00 0. -1.
         13    1    3    3    0    0 -0.71764580404E+02 -0.40614881263E+02  0.95841681288E+02  0.12643318968E+03  0.00000000000E+00 0.  1.
         21    1    1    2  502  501  0.12067920257E+03 -0.32617331973E+02  0.18494569274E+03  0.22323142597E+03  0.00000000000E+00 0. -1.
<scales pt_clust_5="13000.00000" pt_clust_6="13000.00000" pt_clust_7="13000.00000" pt_clust_8="13000.00000" pt_clust_9="125.00944"></scales>
<clustering>
<clus scale="  108.723">  5  6 -1 -1</clus>
<clus scale="  115.019">  7  8 -1 -1</clus>
<clus scale="  125.009">  1  9  2 -1</clus>
<clus scale="  131.066">  2  5  1 -1</clus>
<clus scale="  131.066">  2  5  1 -1</clus>
</clustering>
</event>
<event>
 9    2  0.5684583E-005  0.1461418E+03  0.7546771E-02  0.1228334E+00
          2   -1    0    0  502    0  0.00000000000E+00  0.00000000000E+00  0.36588289161E+03  0.36588289161E+03  0.00000000000E+00 0. -1.
         -1   -1    0    0    0  501 -0.00000000000E+00 -0.00000000000E+00 -0.41142637653E+03  0.41142637653E+03  0.00000000000E+00 0.  1.
         23    2    1    2    0    0  0.71664813525E+02  0.88595050947E+02 -0.36410619835E+03  0.39234238885E+03  0.91511189812E+02 0.  0.
         24    2    1    2    0    0  0.32621161386E+02 -0.27137268870E+02  0.95176025470E+02  0.13089162292E+03  0.79205868441E+02 0.  0.
        -13    1    4    4    0    0  0.48593012202E+02  0.50393994877E+01  0.75516594548E+02  0.89941272140E+02  0.00000000000E+00 0.  1.
         14    1    4    4    0    0 -0.15971850816E+02 -0.32176668358E+02  0.19659430922E+02  0.40950350784E+02  0.00000000000E+00 0. -1.
        -13    1    3    3    0    0 -0.17480372995E+02  0.42129329268E+02 -0.11176626331E+03  0.12071512515E+03  0.00000000000E+00 0. -1.
         13    1    3    3    0    0  0.89145186520E+02  0.46465721679E+02 -0.25233993504E+03  0.27162726371E+03  0.00000000000E+00 0.  1.
         21    1    1    2  502  501 -0.10428597491E+03 -0.61457782077E+02  0.22338668796E+03  0.25407525636E+03  0.00000000000E+00 0. -1.
<scales pt_clust_5="13000.00000" pt_clust_6="13000.00000" pt_clust_7="13000.00000" pt_clust_8="13000.00000" pt_clust_9="113.94351"></scales>
<clustering>
<clus scale="   79.206">  5  6 -1 -1</clus>
<clus scale="   89.856">  1  5  2 -1</clus>
<clus scale="   91.511">  7  8 -1 -1</clus>
<clus scale="  113.944">  1  9  2 -1</clus>
<clus scale="   89.856">  1  5  2 -1</clus>
</clustering>
</event>
<event>
 9    2  0.5684583E-005  0.1638484E+03  0.7546771E-02  0.1195007E+00
         -1   -1    0    0    0  501 -0.00000000000E+00  0.00000000000E+00  0.37746843120E+03  0.37746843120E+03  0.00000000000E+00 0.  1.
          2   -1    0    0  502    0  0.00000000000E+00 -0.00000000000E+00 -0.17600001386E+03  0.17600001386E+03  0.00000000000E+00 0. -1.
         24    2    1    2    0    0 -0.18174904851E+02  0.98939011456E+02  0.18034937633E+03  0.22211860638E+03  0.81801727382E+02 0.  0.
         23    2    1    2    0    0  0.14643675927E+03 -0.49151960181E+02  0.57529896123E+02  0.18902765438E+03  0.92531754105E+02 0.  0.
        -13    1    3    3    0    0  0.31706849921E+02  0.30306676522E+02  0.74615400347E+02  0.86552163131E+02  0.00000000000E+00 0.  1.
         14    1    3    3    0    0 -0.49881754772E+02  0.68632334934E+02  0.10573397598E+03  0.13556644325E+03  0.00000000000E+00 0. -1.
        -13    1    4    4    0    0  0.51744650800E+00 -0.22204190388E+02  0.31239114719E+02  0.38329833161E+02  0.00000000000E+00 0. -1.
         13    1    4    4    0    0  0.14591931276E+03 -0.26947769793E+02  0.26290781404E+02  0.15069782122E+03  0.00000000000E+00 0.  1.
         21    1    1    2  502  501 -0.12826185442E+03 -0.49787051274E+02 -0.36410855107E+02  0.14232218430E+03  0.00000000000E+00 0. -1.
<scales pt_clust_5="13000.00000" pt_clust_6="13000.00000" pt_clust_7="13000.00000" pt_clust_8="13000.00000" pt_clust_9="135.21899"></scales>
<clustering>
<clus scale="   81.802">  5  6 -1 -1</clus>
<clus scale="   92.532">  7  8 -1 -1</clus>
<clus scale="  129.656">  1  5  2 -1</clus>
<clus scale="  135.219">  2  9  1 -1</clus>
<clus scale="  135.219">  2  5  1 -1</clus>
</clustering>
</event>
<event>
 9    2  0.5684583E-005  0.1253271E+03  0.7546771E-02  0.1237987E+00
          2   -1    0    0  502    0  0.00000000000E+00  0.00000000000E+00  0.66778859446E+03  0.66778859446E+03  0.00000000000E+00 0. -1.
         -1   -1    0    0    0  501 -0.00000000000E+00 -0.00000000000E+00 -0.71443324104E+02  0.71443324104E+02  0.00000000000E+00 0.  1.
         23    2    1    2    0    0 -0.19313700920E+02  0.10762107586E+03  0.13325719245E+03  0.19565703845E+03  0.92568257754E+02 0.  0.
         24    2    1    2    0    0  0.19351868774E+02 -0.76991061730E+02  0.48993427656E+03  0.50284506788E+03  0.80718328359E+02 0.  0.
        -11    1    4    4    0    0  0.47996364524E+02 -0.31604358208E+02  0.30095028256E+03  0.30638792247E+03  0.00000000000E+00 0.  1.
         12    1    4    4    0    0 -0.28644495749E+02 -0.45386703522E+02  0.18898399400E+03  0.19645714541E+03  0.00000000000E+00 0. -1.
        -11    1    3    3    0    0  0.23939785788E+02 -0.26057408114E+01  0.15361328716E+02  0.28563502038E+02  0.00000000000E+00 0.  1.
         11    1    3    3    0    0 -0.43253486708E+02  0.11022681667E+03  0.11789586373E+03  0.16709353641E+03  0.00000000000E+00 0. -1.
         21    1    1    2  502  501 -0.38167854542E-01 -0.30630014127E+02 -0.26846198655E+02  0.40729812232E+02  0.00000000000E+00 0.  1.
<scales pt_clust_5="13000.00000" pt_clust_6="13000.00000" pt_clust_7="13000.00000" pt_clust_8="13000.00000" pt_clust_9="30.63004"></scales>
<clustering>
<clus scale="   30.630">  2  9  1 -1</clus>
<clus scale="   80.718">  5  6 -1 -1</clus>
<clus scale="   92.568">  7  8 -1 -1</clus>
<clus scale="  116.848">  1  5  2 -1</clus>
<clus scale="  116.848">  1  5  2 -1</clus>
</clustering>
</event>
<event>
 9    2  0.5684583E-005  0.2251837E+03  0.7546771E-02  0.1158108E+00
          2   -1    0    0  502    0  0.00000000000E+00  0.00000000000E+00  0.63928085627E+03  0.63928085627E+03  0.00000000000E+00 0. -1.
         -1   -1    0    0    0  501 -0.00000000000E+00 -0.00000000000E+00 -0.33392936341E+03  0.33392936341E+03  0.00000000000E+00 0.  1.
         24    2    1    2    0    0  0.16318485149E+03 -0.13081041085E+03 -0.21965014610E+03  0.31417019048E+03  0.81951586681E+02 0.  0.
         23    2    1    2    0    0 -0.42661686752E+02 -0.55044880804E+02  0.37310974391E+03  0.39045266826E+03  0.91610298182E+02 0.  0.
        -13    1    3    3    0    0  0.16856617158E+03 -0.13616977006E+03 -0.20876971191E+03  0.30090123478E+03  0.00000000000E+00 0.  1.
         14    1    3    3    0    0 -0.53813200948E+01  0.53593592109E+01 -0.10880434186E+02  0.13268955693E+02  0.00000000000E+00 0. -1.
        -13    1    4    4    0    0 -0.21309232546E+02  0.22924722146E+02  0.14784037683E+03  0.15111718400E+03  0.00000000000E+00 0. -1.
         13    1    4    4    0    0 -0.21352454207E+02 -0.77969602950E+02  0.22526936707E+03  0.23933548426E+03  0.00000000000E+00 0.  1.
         21    1    1    2  502  501 -0.12052316473E+03  0.18585529166E+03  0.15189189505E+03  0.26858736094E+03  0.00000000000E+00 0. -1.
<scales pt_clust_5="13000.00000" pt_clust_6="13000.00000" pt_clust_7="13000.00000" pt_clust_8="13000.00000" pt_clust_9="209.74186"></scales>
<clustering>
<clus scale="   81.952">  5  6 -1 -1</clus>
<clus scale="   91.610">  7  8 -1 -1</clus>
<clus scale="  115.076">  1  7  2 -1</clus>
<clus scale="  209.742">  1  9  2 -1</clus>
<clus scale="  115.076">  1  5  2 -1</clus>
</clustering>
</event>
<event>
 9    2  0.5684583E-005  0.9376079E+02  0.7546771E-02  0.1300943E+00
         -1   -1    0    0    0  501 -0.00000000000E+00  0.00000000000E+00  0.45324490471E+03  0.45324490471E+03  0.00000000000E+00 0.  1.
          2   -1    0    0  502    0  0.00000000000E+00 -0.00000000000E+00 -0.64226295529E+02  0.64226295529E+02  0.00000000000E+00 0. -1.
         23    2    1    2    0    0 -0.11713717538E+02  0.33049772488E+02  0.36998528307E+03  0.38300697322E+03  0.92605254742E+02 0.  0.
         24    2    1    2    0    0  0.96628971268E+01 -0.90851229642E+01 -0.23593472568E+02  0.85519827373E+02  0.81123842895E+02 0.  0.
        -11    1    4    4    0    0 -0.13812755918E+02  0.25529720832E+02  0.11202374216E+02  0.31113534995E+02  0.00000000000E+00 0.  1.
         12    1    4    4    0    0  0.23475653045E+02 -0.34614843796E+02 -0.34795846784E+02  0.54406292378E+02  0.00000000000E+00 0. -1.
        -11    1    3    3    0    0 -0.34142654473E+02 -0.21129808661E+02  0.13770150921E+03  0.14343603211E+03  0.00000000000E+00 0. -1.
         11    1    3    3    0    0  0.22428936935E+02  0.54179581150E+02  0.23228377386E+03  0.23957094111E+03  0.00000000000E+00 0.  1.
         21    1    1    2  502  501  0.20508204109E+01 -0.23964649524E+02  0.42626798680E+02  0.48944399648E+02  0.00000000000E+00 0. -1.
<scales pt_clust_5="13000.00000" pt_clust_6="13000.00000" pt_clust_7="13000.00000" pt_clust_8="13000.00000" pt_clust_9="24.05224"></scales>
<clustering>
<clus scale="   24.052">  1  9  2 -1</clus>
<clus scale="   81.124">  5  6 -1 -1</clus>
<clus scale="   82.440">  2  5  1 -1</clus>
<clus scale="   92.605">  7  8 -1 -1</clus>
<clus scale="   82.440">  2  5  1 -1</clus>
</clustering>
</event>
<event>
 9    2  0.5684583E-005  0.1049254E+03  0.7546771E-02  0.1275412E+00
         -1   -1    0    0    0  501 -0.00000000000E+00  0.00000000000E+00  0.11397774196E+03  0.11397774196E+03  0.00000000000E+00 0.  1.
          2   -1    0    0  502    0  0.00000000000E+00 -0.00000000000E+00 -0.53473613318E+03  0.53473613318E+03  0.00000000000E+00 0. -1.
         23    2    1    2    0    0 -0.46122770475E+02  0.17402502571E+02  0.67291728232E+02  0.12410664808E+03  0.91891927600E+02 0.  0.
         24    2    1    2    0    0  0.50064547868E+02  0.10026755247E+02 -0.48767894720E+03  0.49689370035E+03  0.80408949355E+02 0.  0.
        -11    1    4    4    0    0  0.38068400552E+01  0.31235880037E+02 -0.78648181611E+02  0.84709554972E+02  0.00000000000E+00 0.  1.
         12    1    4    4    0    0  0.46257707813E+02 -0.21209124790E+02 -0.40903076559E+03  0.41218414538E+03  0.00000000000E+00 0. -1.
        -11    1    3    3    0    0 -0.58948169267E+02  0.34894001495E+02  0.74541957723E+02  0.10123725333E+03  0.00000000000E+00 0.  1.
         11    1    3    3    0    0  0.12825398792E+02 -0.17491498925E+02 -0.72502294908E+01  0.22869394755E+02  0.00000000000E+00 0. -1.
         21    1    1    2  502  501 -0.39417773930E+01 -0.27429257817E+02 -0.37117225654E+00  0.27713526702E+02  0.00000000000E+00 0. -1.
<scales pt_clust_5="13000.00000" pt_clust_6="13000.00000" pt_clust_7="13000.00000" pt_clust_8="13000.00000" pt_clust_9="27.71104"></scales>
<clustering>
<clus scale="   27.711">  1  9  2 -1</clus>
<clus scale="   80.409">  5  6 -1 -1</clus>
<clus scale="   91.892">  7  8 -1 -1</clus>
<clus scale="   95.031">  2  5  1 -1</clus>
<clus scale="   95.031">  2  5  1 -1</clus>
</clustering>
</event>
<event>
 9    2  0.5684583E-005  0.1127642E+03  0.7546771E-02  0.1258490E+00
         -1   -1    0    0    0  501 -0.00000000000E+00  0.00000000000E+00  0.44397439545E+03  0.44397439545E+03  0.00000000000E+00 0.  1.
          2   -1    0    0  502    0  0.00000000000E+00 -0.00000000000E+00 -0.72392714742E+03  0.72392714742E+03  0.00000000000E+00 0. -1.
         23    2    1    2    0    0 -0.50098483371E+02 -0.78158097637E+01  0.40462943342E+03  0.41727603326E+03  0.88449785898E+02 0.  0.
         24    2    1    2    0    0  0.51144151187E+02  0.48117251579E+02 -0.69955238852E+03  0.70762078178E+03  0.80141327791E+02 0.  0.
        -13    1    4    4    0    0  0.46993407672E+02  0.56653336582E+01 -0.17346560785E+03  0.17980765690E+03  0.00000000000E+00 0.  1.
         14    1    4    4    0    0  0.41507435154E+01  0.42451917921E+02 -0.52608678067E+03  0.52781312489E+03  0.00000000000E+00 0. -1.
        -13    1    3    3    0    0 -0.60919886426E+02 -0.32556957754E+02  0.34456658288E+03  0.35142185205E+03  0.00000000000E+00 0.  1.
         13    1    3    3    0    0  0.10821403056E+02  0.24741147990E+02  0.60062850541E+02  0.65854181212E+02  0.00000000000E+00 0. -1.
         21    1    1    2  502  501 -0.10456678168E+01 -0.40301441815E+02  0.14970203144E+02  0.43004727830E+02  0.00000000000E+00 0.  1.
<scales pt_clust_5="13000.00000" pt_clust_6="13000.00000" pt_clust_7="13000.00000" pt_clust_8="13000.00000" pt_clust_9="40.31501"></scales>
<clustering>
<clus scale="   40.315">  1  9  2 -1</clus>
<clus scale="   80.141">  5  6 -1 -1</clus>
<clus scale="   88.450">  7  8 -1 -1</clus>
<clus scale="  106.372">  2  5  1 -1</clus>
<clus scale="  106.372">  2  5  1 -1</clus>
</clustering>
</event>
<event>
 9    2  0.5684583E-005  0.2192684E+03  0.7546771E-02  0.1148692E+00
          2   -1    0    0  502    0  0.00000000000E+00  0.00000000000E+00  0.26976037604E+03  0.26976037604E+03  0.00000000000E+00 0. -1.
         -1   -1    0    0    0  501 -0.00000000000E+00 -0.00000000000E+00 -0.46379834446E+03  0.46379834446E+03  0.00000000000E+00 0.  1.
         23    2    1    2    0    0 -0.15565248508E+03  0.73775525154E+02 -0.16459842746E+03  0.25521234812E+03  0.91488666446E+02 0.  0.
         24    2    1    2    0    0 -0.10559208598E+03 -0.74585954008E+02  0.10185498396E+03  0.18596368653E+03  0.86575411022E+02 0.  0.
        -11    1    4    4    0    0 -0.45863844607E+02  0.10840936317E+02  0.12722371164E+02  0.48814719813E+02  0.00000000000E+00 0.  1.
         12    1    4    4    0    0 -0.59728241377E+02 -0.85426890325E+02  0.89132612797E+02  0.13714896672E+03  0.00000000000E+00 0. -1.
        -11    1    3    3    0    0 -0.47417808063E+02  0.72627082480E+02 -0.76462524464E+02  0.11562724280E+03  0.00000000000E+00 0.  1.
         11    1    3    3    0    0 -0.10823467702E+03  0.11484426739E+01 -0.88135902995E+02  0.13958510532E+03  0.00000000000E+00 0. -1.
         21    1    1    2  502  501  0.26124457107E+03  0.81042885379E+00 -0.13129452493E+03  0.29238268584E+03  0.00000000000E+00 0.  1.
<scales pt_clust_5="13000.00000" pt_clust_6="13000.00000" pt_clust_7="13000.00000" pt_clust_8="13000.00000" pt_clust_9="199.26980"></scales>
<clustering>
<clus scale="   86.575">  5  6 -1 -1</clus>
<clus scale="   91.489">  7  8 -1 -1</clus>
<clus scale="  155.589">  1  5  2 -1</clus>
<clus scale="  199.270">  1  9  2 -1</clus>
<clus scale="  155.589">  1  5  2 -1</clus>
</clustering>
</event>
<event>
 9    2  0.5684583E-005  0.1551311E+03  0.7546771E-02  0.1195988E+00
          2   -1    0    0  502    0  0.00000000000E+00  0.00000000000E+00  0.52407172988E+03  0.52407172988E+03  0.00000000000E+00 0. -1.
         -1   -1    0    0    0  501 -0.00000000000E+00 -0.00000000000E+00 -0.42275994590E+03  0.42275994590E+03  0.00000000000E+00 0.  1.
         23    2    1    2    0    0 -0.26898941272E+02 -0.19780823985E+03 -0.29615188320E+03  0.36857757866E+03  0.91059545217E+02 0.  0.
         24    2    1    2    0    0 -0.27285471756E+02  0.12032405548E+03  0.44753303491E+03  0.47126488725E+03  0.81131999394E+02 0.  0.
        -11    1    4    4    0    0 -0.23671865686E+02 -0.43040645345E+00  0.43109621716E+02  0.49183147106E+02  0.00000000000E+00 0.  1.
         12    1    4    4    0    0 -0.36136060698E+01  0.12075446193E+03  0.40442341320E+03  0.42208174015E+03  0.00000000000E+00 0. -1.
        -11    1    3    3    0    0 -0.18250408924E+02 -0.15496631466E+03 -0.28260393839E+03  0.32281979818E+03  0.00000000000E+00 0.  1.
         11    1    3    3    0    0 -0.86485323482E+01 -0.42841925193E+02 -0.13547944812E+02  0.45757780482E+02  0.00000000000E+00 0. -1.
         21    1    1    2  502  501  0.54184413028E+02  0.77484184372E+02 -0.50069367731E+02  0.10698920987E+03  0.00000000000E+00 0. -1.
<scales pt_clust_5="13000.00000" pt_clust_6="13000.00000" pt_clust_7="13000.00000" pt_clust_8="13000.00000" pt_clust_9="94.55025"></scales>
<clustering>
<clus scale="   81.132">  5  6 -1 -1</clus>
<clus scale="   91.060">  7  8 -1 -1</clus>
<clus scale="   94.550">  2  9  1 -1</clus>
<clus scale="  149.520">  1  5  2 -1</clus>
<clus scale="  149.520">  1  5  2 -1</clus>
</clustering>
</event>
<event>
 9    2  0.5684583E-005  0.2292486E+03  0.7546771E-02  0.1157837E+00
         -1   -1    0    0    0  501 -0.00000000000E+00  0.00000000000E+00  0.17281249319E+03  0.17281249319E+03  0.00000000000E+00 0.  1.
          2   -1    0    0  502    0  0.00000000000E+00 -0.00000000000E+00 -0.45824877243E+03  0.45824877243E+03  0.00000000000E+00 0. -1.
         24    2    1    2    0    0 -0.47902047447E+02  0.57643316730E+02 -0.27950612454E+02  0.11325785229E+03  0.80179462800E+02 0.  0.
         23    2    1    2    0    0  0.21806274354E+03  0.57783038826E+02 -0.12220086136E+03  0.27167360077E+03  0.89349063475E+02 0.  0.
        -13    1    3    3    0    0 -0.56757419010E+02  0.36961032760E+02  0.10665463501E+02  0.68565841839E+02  0.00000000000E+00 0.  1.
         14    1    3    3    0    0  0.88553715632E+01  0.20682283970E+02 -0.38616075955E+02  0.44692010448E+02  0.00000000000E+00 0. -1.
        -11    1    4    4    0    0  0.54260654864E+02  0.28768743030E+02  0.59232070935E+01  0.61700434553E+02  0.00000000000E+00 0. -1.
         11    1    4    4    0    0  0.16380208867E+03  0.29014295796E+02 -0.12812406846E+03  0.20997316622E+03  0.00000000000E+00 0.  1.
         21    1    1    2  502  501 -0.17016069609E+03 -0.11542635556E+03 -0.13528480543E+03  0.24612981256E+03  0.00000000000E+00 0. -1.
<scales pt_clust_5="13000.00000" pt_clust_6="13000.00000" pt_clust_7="13000.00000" pt_clust_8="13000.00000" pt_clust_9="211.12005"></scales>
<clustering>
<clus scale="   80.179">  5  6 -1 -1</clus>
<clus scale="   89.349">  7  8 -1 -1</clus>
<clus scale="  109.755">  1  5  2 -1</clus>
<clus scale="  211.120">  2  9  1 -1</clus>
<clus scale="  211.120">  2  5  1 -1</clus>
</clustering>
</event>
<event>
 9    2  0.5684583E-005  0.1909418E+03  0.7546771E-02  0.1159463E+00
         -1   -1    0    0    0  501 -0.00000000000E+00  0.00000000000E+00  0.26394602021E+03  0.26394602021E+03  0.00000000000E+00 0.  1.
          2   -1    0    0  502    0  0.00000000000E+00 -0.00000000000E+00 -0.46643481218E+03  0.46643481218E+03  0.00000000000E+00 0. -1.
         24    2    1    2    0    0 -0.14797525977E+03  0.11503520796E+03  0.49409203874E+02  0.21066805281E+03  0.82522617933E+02 0.  0.
         23    2    1    2    0    0  0.12717446024E+03 -0.95348433106E+02 -0.36111227902E+03  0.40680572926E+03  0.99116881816E+02 0.  0.
        -11    1    3    3    0    0 -0.75445805819E+02  0.12674409873E+02  0.35846638341E+02  0.84484861139E+02  0.00000000000E+00 0.  1.
         12    1    3    3    0    0 -0.72529453956E+02  0.10236079808E+03  0.13562565533E+02  0.12618319167E+03  0.00000000000E+00 0. -1.
        -11    1    4    4    0    0  0.37922828029E+02 -0.73598477544E+02 -0.98977226795E+02  0.12904018059E+03  0.00000000000E+00 0.  1.
         11    1    4    4    0    0  0.89251632211E+02 -0.21749955562E+02 -0.26213505223E+03  0.27776554867E+03  0.00000000000E+00 0. -1.
         21    1    1    2  502  501  0.20800799534E+02 -0.19686774852E+02  0.10921428317E+03  0.11290705033E+03  0.00000000000E+00 0.  1.
<scales pt_clust_5="13000.00000" pt_clust_6="13000.00000" pt_clust_7="13000.00000" pt_clust_8="13000.00000" pt_clust_9="28.63987"></scales>
<clustering>
<clus scale="   28.640">  1  9  2 -1</clus>
<clus scale="   82.523">  5  6 -1 -1</clus>
<clus scale="   99.117">  7  8 -1 -1</clus>
<clus scale="  182.879">  1  5  2 -1</clus>
<clus scale="  190.942">  2  5  1 -1</clus>
</clustering>
</event>
<event>
 9    2  0.5684583E-005  0.1606002E+03  0.7546771E-02  0.1189267E+00
         -1   -1    0    0    0  501 -0.00000000000E+00  0.00000000000E+00  0.29071750657E+02  0.29071750657E+02  0.00000000000E+00 0.  1.
          2   -1    0    0  502    0  0.00000000000E+00 -0.00000000000E+00 -0.22575556011E+04  0.22575556011E+04  0.00000000000E+00 0. -1.
         23    2    1    2    0    0 -0.15621633688E+03 -0.71214636542E+02 -0.58439407991E+03  0.61587963952E+03  0.91193318723E+02 0.  0.
         24    2    1    2    0    0  0.11996145100E+03  0.30716881452E+02 -0.15786126223E+04  0.15856492877E+04  0.83256085562E+02 0.  0.
        -13    1    4    4    0    0  0.42897753800E+02 -0.17152701338E+02 -0.27240376313E+03  0.27629376144E+03  0.00000000000E+00 0.  1.
         14    1    4    4    0    0  0.77063697202E+02  0.47869582791E+02 -0.13062088591E+04  0.13093555262E+04  0.00000000000E+00 0. -1.
        -13    1    3    3    0    0 -0.10604796786E+03  0.14978770200E+01 -0.31989038439E+03  0.33701375810E+03  0.00000000000E+00 0. -1.
         13    1    3    3    0    0 -0.50168369016E+02 -0.72712513562E+02 -0.26450369552E+03  0.27886588142E+03  0.00000000000E+00 0.  1.
         21    1    1    2  502  501  0.36254885878E+02  0.40497755090E+02 -0.65477148257E+02  0.85098424552E+02  0.00000000000E+00 0.  1.
<scales pt_clust_5="13000.00000" pt_clust_6="13000.00000" pt_clust_7="13000.00000" pt_clust_8="13000.00000" pt_clust_9="54.35517"></scales>
<clustering>
<clus scale="   54.355">  1  9  2 -1</clus>
<clus scale="   83.256">  5  6 -1 -1</clus>
<clus scale="   91.193">  7  8 -1 -1</clus>
<clus scale="  156.230">  2  5  1 -1</clus>
<clus scale="  156.230">  2  5  1 -1</clus>
</clustering>
</event>
<event>
 9    2  0.5684583E-005  0.9991827E+02  0.7546771E-02  0.1289971E+00
          2   -1    0    0  502    0  0.00000000000E+00  0.00000000000E+00  0.75706580966E+03  0.75706580966E+03  0.00000000000E+00 0. -1.
         -1   -1    0    0    0  501 -0.00000000000E+00 -0.00000000000E+00 -0.41399552311E+02  0.41399552311E+02  0.00000000000E+00 0.  1.
         23    2    1    2    0    0  0.42575129304E+01  0.33215351079E+02  0.39164156591E+02  0.10429788652E+03  0.90679832412E+02 0.  0.
         24    2    1    2    0    0  0.19629138965E+02 -0.38384482693E+02  0.65841239969E+03  0.66376140131E+03  0.72205527462E+02 0.  0.
        -13    1    4    4    0    0  0.40257679375E+02 -0.13222833277E+02  0.21371255218E+03  0.21787285060E+03  0.00000000000E+00 0.  1.
         14    1    4    4    0    0 -0.20628540411E+02 -0.25161649416E+02  0.44469984750E+03  0.44588855070E+03  0.00000000000E+00 0. -1.
        -13    1    3    3    0    0 -0.25062764760E+02  0.11070457403E+02 -0.20505651210E+02  0.34222491669E+02  0.00000000000E+00 0.  1.
         13    1    3    3    0    0  0.29320277690E+02  0.22144893676E+02  0.59669807801E+02  0.70075394846E+02  0.00000000000E+00 0. -1.
         21    1    1    2  502  501 -0.23886651895E+02  0.51691316139E+01  0.18089701077E+02  0.30406074154E+02  0.00000000000E+00 0.  1.
<scales pt_clust_5="13000.00000" pt_clust_6="13000.00000" pt_clust_7="13000.00000" pt_clust_8="13000.00000" pt_clust_9="24.43956"></scales>
<clustering>
<clus scale="   24.440">  2  9  1 -1</clus>
<clus scale="   72.206">  5  6 -1 -1</clus>
<clus scale="   83.513">  1  5  2 -1</clus>
<clus scale="   90.680">  7  8 -1 -1</clus>
<clus scale="   83.513">  1  5  2 -1</clus>
</clustering>
</event>
<event>
 9    2  0.5684583E-005  0.1104095E+03  0.7546771E-02  0.1263459E+00
         -1   -1    0    0    0  501 -0.00000000000E+00  0.00000000000E+00  0.15789849005E+03  0.15789849005E+03  0.00000000000E+00 0.  1.
          2   -1    0    0  502    0  0.00000000000E+00 -0.00000000000E+00 -0.26223626035E+03  0.26223626035E+03  0.00000000000E+00 0. -1.
         23    2    1    2    0    0  0.49445470316E+01 -0.66313552148E+02  0.10884199652E+03  0.15626484168E+03  0.90278373904E+02 0.  0.
         24    2    1    2    0    0 -0.25069037971E+02  0.48867300770E+02 -0.75030909300E+02  0.12317707431E+03  0.80786660630E+02 0.  0.
        -13    1    4    4    0    0  0.18254315145E+02 -0.11417049107E+02 -0.74407016441E+01  0.22780102561E+02  0.00000000000E+00 0.  1.
         14    1    4    4    0    0 -0.43323353116E+02  0.60284349877E+02 -0.67590207656E+02  0.10039697175E+03  0.00000000000E+00 0. -1.
        -13    1    3    3    0    0  0.46288529430E+02 -0.26211224196E+02  0.64311994899E+02  0.83460702840E+02  0.00000000000E+00 0. -1.
         13    1    3    3    0    0 -0.41343982398E+02 -0.40102327951E+02  0.44530001617E+02  0.72804138836E+02  0.00000000000E+00 0.  1.
         21    1    1    2  502  501  0.20124490939E+02  0.17446251378E+02 -0.13814885752E+03  0.14069283442E+03  0.00000000000E+00 0. -1.
<scales pt_clust_5="13000.00000" pt_clust_6="13000.00000" pt_clust_7="13000.00000" pt_clust_8="13000.00000" pt_clust_9="26.63394"></scales>
<clustering>
<clus scale="   26.634">  2  9  1 -1</clus>
<clus scale="   80.787">  5  6 -1 -1</clus>
<clus scale="   90.278">  7  8 -1 -1</clus>
<clus scale="  102.794">  2  5  1 -1</clus>
<clus scale="   26.634">  2  5  1 -1</clus>
</clustering>
</event>
<event>
 9    2  0.5684583E-005  0.2045415E+03  0.7546771E-02  0.1146773E+00
          2   -1    0    0  502    0  0.00000000000E+00  0.00000000000E+00  0.38004498718E+03  0.38004498718E+03  0.00000000000E+00 0. -1.
         -1   -1    0    0    0  501 -0.00000000000E+00 -0.00000000000E+00 -0.31589367275E+03  0.31589367275E+03  0.00000000000E+00 0.  1.
         23    2    1    2    0    0 -0.21841147928E+03  0.10878779996E+03  0.55691151499E+02  0.26669735842E+03  0.92128263494E+02 0.  0.
         24    2    1    2    0    0  0.14908628799E+03 -0.58376483808E+02  0.16904713499E+03  0.24720982473E+03  0.83073632810E+02 0.  0.
        -13    1    4    4    0    0  0.12825558278E+03 -0.18586294365E+02  0.15052596399E+03  0.19862781952E+03  0.00000000000E+00 0.  1.
         14    1    4    4    0    0  0.20830705217E+02 -0.39790189443E+02  0.18521170999E+02  0.48582005217E+02  0.00000000000E+00 0. -1.
        -11    1    3    3    0    0 -0.19491597921E+03  0.77027117198E+02  0.75161070995E+02  0.22265354775E+03  0.00000000000E+00 0. -1.
         11    1    3    3    0    0 -0.23495500069E+02  0.31760682764E+02 -0.19469919496E+02  0.44043810670E+02  0.00000000000E+00 0.  1.
         21    1    1    2  502  501  0.69325191283E+02 -0.50411316154E+02 -0.16058697206E+03  0.18203147678E+03  0.00000000000E+00 0.  1.
<scales pt_clust_5="13000.00000" pt_clust_6="13000.00000" pt_clust_7="13000.00000" pt_clust_8="13000.00000" pt_clust_9="85.71629"></scales>
<clustering>
<clus scale="   83.074">  5  6 -1 -1</clus>
<clus scale="   85.716">  2  9  1 -1</clus>
<clus scale="   92.128">  7  8 -1 -1</clus>
<clus scale="  200.626">  1  5  2 -1</clus>
<clus scale="  200.626">  1  5  2 -1</clus>
</clustering>
</event>
<event>
 9    2  0.5684583E-005  0.1013244E+03  0.7546771E-02  0.1278125E+00
          2   -1    0    0  502    0  0.00000000000E+00  0.00000000000E+00  0.33380467482E+02  0.33380467482E+02  0.00000000000E+00 0. -1.
         -1   -1    0    0    0  501 -0.00000000000E+00 -0.00000000000E+00 -0.58391004883E+03  0.58391004883E+03  0.00000000000E+00 0.  1.
         23    2    1    2    0    0  0.29432264098E+02  0.57345415259E+02 -0.25671779611E+03  0.27939564727E+03  0.89460304329E+02 0.  0.
         24    2    1    2    0    0 -0.12145706796E+02 -0.38976606517E+02 -0.89727039770E+02  0.13225727149E+03  0.88172275380E+02 0.  0.
        -13    1    4    4    0    0  0.30194919907E+02 -0.45211747178E+02 -0.50332118097E+02  0.74088847900E+02  0.00000000000E+00 0.  1.
         14    1    4    4    0    0 -0.42340626703E+02  0.62351406609E+01 -0.39394921673E+02  0.58168423585E+02  0.00000000000E+00 0. -1.
        -11    1    3    3    0    0 -0.28816220461E+02  0.11643082142E+01 -0.56330220138E+02  0.63283677801E+02  0.00000000000E+00 0. -1.
         11    1    3    3    0    0  0.58248484559E+02  0.56181107045E+02 -0.20038757598E+03  0.21611196947E+03  0.00000000000E+00 0.  1.
         21    1    1    2  502  501 -0.17286557302E+02 -0.18368808742E+02 -0.20408474546E+03  0.20563759755E+03  0.00000000000E+00 0.  1.
<scales pt_clust_5="13000.00000" pt_clust_6="13000.00000" pt_clust_7="13000.00000" pt_clust_8="13000.00000" pt_clust_9="25.22376"></scales>
<clustering>
<clus scale="   25.224">  2  9  1 -1</clus>
<clus scale="   88.172">  5  6 -1 -1</clus>
<clus scale="   89.460">  7  8 -1 -1</clus>
<clus scale="  100.189">  1  5  2 -1</clus>
<clus scale="  100.189">  1  5  2 -1</clus>
</clustering>
</event>
<event>
 9    2  0.5684583E-005  0.1204568E+03  0.7546771E-02  0.1243079E+00
         -1   -1    0    0    0  501 -0.00000000000E+00  0.00000000000E+00  0.67626307757E+02  0.67626307757E+02  0.00000000000E+00 0.  1.
          2   -1    0    0  502    0  0.00000000000E+00 -0.00000000000E+00 -0.70467175476E+03  0.70467175476E+03  0.00000000000E+00 0. -1.
         23    2    1    2    0    0  0.39392230997E+02  0.20730902023E+02 -0.11190860785E+02  0.11419983848E+03  0.10456983113E+03 0.  0.
         24    2    1    2    0    0 -0.58059407274E+02  0.17991543793E+01 -0.61504332222E+03  0.62690607212E+03  0.10657768681E+03 0.  0.
        -13    1    4    4    0    0 -0.61658685816E+02 -0.31094021158E+02 -0.22247889131E+03  0.23294954125E+03  0.00000000000E+00 0.  1.
         14    1    4    4    0    0  0.35992785428E+01  0.32893175537E+02 -0.39256443090E+03  0.39395653087E+03  0.00000000000E+00 0. -1.
        -11    1    3    3    0    0 -0.11894723344E+02  0.49309468549E+02 -0.20584021814E+02  0.54741301465E+02  0.00000000000E+00 0. -1.
         11    1    3    3    0    0  0.51286954341E+02 -0.28578566526E+02  0.93931610285E+01  0.59458537018E+02  0.00000000000E+00 0.  1.
         21    1    1    2  502  501  0.18667176277E+02 -0.22530056402E+02 -0.10811263997E+02  0.31192151911E+02  0.00000000000E+00 0. -1.
<scales pt_clust_5="13000.00000" pt_clust_6="13000.00000" pt_clust_7="13000.00000" pt_clust_8="13000.00000" pt_clust_9="29.25862"></scales>
<clustering>
<clus scale="   29.259">  1  9  2 -1</clus>
<clus scale="  104.570">  7  8 -1 -1</clus>
<clus scale="  106.578">  5  6 -1 -1</clus>
<clus scale="  118.684">  1  7  2 -1</clus>
<clus scale="  120.457">  2  5  1 -1</clus>
</clustering>
</event>
<event>
 9    2  0.5684583E-005  0.1065800E+03  0.7546771E-02  0.1271433E+00
         -1   -1    0    0    0  501 -0.00000000000E+00  0.00000000000E+00  0.72032439866E+02  0.72032439866E+02  0.00000000000E+00 0.  1.
          2   -1    0    0  502    0  0.00000000000E+00 -0.00000000000E+00 -0.65453263427E+03  0.65453263427E+03  0.00000000000E+00 0. -1.
         23    2    1    2    0    0  0.76892927216E+02  0.37198173357E+02 -0.18837506154E+03  0.22615641498E+03  0.91462199138E+02 0.  0.
         24    2    1    2    0    0 -0.47583591436E+02 -0.27515232273E+01 -0.43155570426E+03  0.44170042683E+03  0.81161395556E+02 0.  0.
        -11    1    4    4    0    0  0.13304363961E+02  0.23592325208E+02 -0.10210858265E+03  0.10563979628E+03  0.00000000000E+00 0.  1.
         12    1    4    4    0    0 -0.60887955397E+02 -0.26343848435E+02 -0.32944712161E+03  0.33606063054E+03  0.00000000000E+00 0. -1.
        -13    1    3    3    0    0  0.41220880531E+02 -0.10372557553E+02 -0.14874723663E+03  0.15470129718E+03  0.00000000000E+00 0. -1.
         13    1    3    3    0    0  0.35672046685E+02  0.47570730910E+02 -0.39627824905E+02  0.71455117807E+02  0.00000000000E+00 0.  1.
         21    1    1    2  502  501 -0.29309335780E+02 -0.34446650130E+02  0.37430571386E+02  0.58708232331E+02  0.00000000000E+00 0. -1.
<scales pt_clust_5="13000.00000" pt_clust_6="13000.00000" pt_clust_7="13000.00000" pt_clust_8="13000.00000" pt_clust_9="45.22841"></scales>
<clustering>
<clus scale="   45.228">  1  9  2 -1</clus>
<clus scale="   81.161">  5  6 -1 -1</clus>
<clus scale="   91.462">  7  8 -1 -1</clus>
<clus scale="   97.883">  2  5  1 -1</clus>
<clus scale="   97.883">  2  5  1 -1</clus>
</clustering>
</event>
<event>
 9    2  0.5684583E-005  0.1033199E+03  0.7546771E-02  0.1278088E+00
         -1   -1    0    0    0  501 -0.00000000000E+00  0.00000000000E+00  0.49017344871E+02  0.49017344871E+02  0.00000000000E+00 0.  1.
          2   -1    0    0  502    0  0.00000000000E+00 -0.00000000000E+00 -0.90023785735E+03  0.90023785735E+03  0.00000000000E+00 0. -1.
         23    2    1    2    0    0 -0.18077116786E+02  0.44676080353E+02 -0.89028037726E+02  0.13599337249E+03  0.90804578923E+02 0.  0.
         24    2    1    2    0    0 -0.20792696959E+01 -0.49854841472E+02 -0.78007436245E+03  0.78582350998E+03  0.80701606637E+02 0.  0.
        -11    1    4    4    0    0 -0.24181764470E+02  0.12063853760E+02 -0.15913354632E+03  0.16141183310E+03  0.00000000000E+00 0.  1.
         12    1    4    4    0    0  0.22102494774E+02 -0.61918695233E+02 -0.62094081613E+03  0.62441167688E+03  0.00000000000E+00 0. -1.
        -11    1    3    3    0    0  0.85581539022E+01  0.45881095477E+02 -0.39545931031E+01  0.46839681115E+02  0.00000000000E+00 0.  1.
         11    1    3    3    0    0 -0.26635270688E+02 -0.12050151240E+01 -0.85073444623E+02  0.89153691377E+02  0.00000000000E+00 0. -1.
         21    1    1    2  502  501  0.20156386482E+02  0.51787611195E+01  0.17881887697E+02  0.27438319744E+02  0.00000000000E+00 0.  1.
<scales pt_clust_5="13000.00000" pt_clust_6="13000.00000" pt_clust_7="13000.00000" pt_clust_8="13000.00000" pt_clust_9="20.81104"></scales>
<clustering>
<clus scale="   20.811">  1  9  2 -1</clus>
<clus scale="   80.702">  5  6 -1 -1</clus>
<clus scale="   90.805">  7  8 -1 -1</clus>
<clus scale="   94.564">  2  5  1 -1</clus>
<clus scale="   94.564">  2  5  1 -1</clus>
</clustering>
</event>
<event>
 9    2  0.5684583E-005  0.9751450E+02  0.7546771E-02  0.1295321E+00
          2   -1    0    0  502    0  0.00000000000E+00  0.00000000000E+00  0.20923037486E+03  0.20923037486E+03  0.00000000000E+00 0. -1.
         -1   -1    0    0    0  501 -0.00000000000E+00 -0.00000000000E+00 -0.26198268899E+03  0.26198268899E+03  0.00000000000E+00 0.  1.
         23    2    1    2    0    0  0.76324732826E+01 -0.29132720313E+02 -0.21113601937E+03  0.23344869788E+03  0.94936325108E+02 0.  0.
         24    2    1    2    0    0  0.12459931232E+02  0.18552982292E+02  0.18541067672E+03  0.20246432683E+03  0.78199882113E+02 0.  0.
        -11    1    4    4    0    0  0.25105321850E+02 -0.23910468410E+02  0.10605143887E+03  0.11157461795E+03  0.00000000000E+00 0.  1.
         12    1    4    4    0    0 -0.12645390618E+02  0.42463450701E+02  0.79359237843E+02  0.90889708880E+02  0.00000000000E+00 0. -1.
        -13    1    3    3    0    0  0.11765225721E+02  0.25964457224E+02 -0.20886931210E+02  0.35338894586E+02  0.00000000000E+00 0. -1.
         13    1    3    3    0    0 -0.41327524387E+01 -0.55097177537E+02 -0.19024908816E+03  0.19810980330E+03  0.00000000000E+00 0.  1.
         21    1    1    2  502  501 -0.20092404514E+02  0.10579738022E+02 -0.27026971469E+02  0.35300039129E+02  0.00000000000E+00 0. -1.
<scales pt_clust_5="13000.00000" pt_clust_6="13000.00000" pt_clust_7="13000.00000" pt_clust_8="13000.00000" pt_clust_9="22.70761"></scales>
<clustering>
<clus scale="   22.708">  2  9  1 -1</clus>
<clus scale="   78.200">  5  6 -1 -1</clus>
<clus scale="   81.310">  1  5  2 -1</clus>
<clus scale="   94.936">  7  8 -1 -1</clus>
<clus scale="   81.310">  1  5  2 -1</clus>
</clustering>
</event>
<event>
 9    2  0.5684583E-005  0.9784114E+02  0.7546771E-02  0.1290329E+00
         -1   -1    0    0    0  501 -0.00000000000E+00  0.00000000000E+00  0.32421043056E+02  0.32421043056E+02  0.00000000000E+00 0.  1.
          2   -1    0    0  502    0  0.00000000000E+00 -0.00000000000E+00 -0.48678392012E+03  0.48678392012E+03  0.00000000000E+00 0. -1.
         23    2    1    2    0    0 -0.28240942005E+02  0.17322573953E+02 -0.79173891847E+02  0.12435366309E+03  0.89987254652E+02 0.  0.
         24    2    1    2    0    0  0.50109082188E+02 -0.25067726599E+02 -0.33008427769E+03  0.34413012516E+03  0.79565077963E+02 0.  0.
        -13    1    4    4    0    0 -0.21221435082E+02 -0.34606383508E+01 -0.99615555033E+02  0.10190968614E+03  0.00000000000E+00 0.  1.
         14    1    4    4    0    0  0.71330517270E+02 -0.21607088248E+02 -0.23046872265E+03  0.24222043902E+03  0.00000000000E+00 0. -1.
        -11    1    3    3    0    0 -0.20391350695E+02 -0.34649509583E+01  0.16296046887E+02  0.26331999781E+02  0.00000000000E+00 0.  1.
         11    1    3    3    0    0 -0.78495913096E+01  0.20787524911E+02 -0.95469938734E+02  0.98021663308E+02  0.00000000000E+00 0. -1.
         21    1    1    2  502  501 -0.21868140183E+02  0.77451526461E+01 -0.45104707527E+02  0.50721174924E+02  0.00000000000E+00 0.  1.
<scales pt_clust_5="13000.00000" pt_clust_6="13000.00000" pt_clust_7="13000.00000" pt_clust_8="13000.00000" pt_clust_9="23.19920"></scales>
<clustering>
<clus scale="   23.199">  2  9  1 -1</clus>
<clus scale="   79.565">  5  6 -1 -1</clus>
<clus scale="   88.350">  2  5  1 -1</clus>
<clus scale="   89.987">  7  8 -1 -1</clus>
<clus scale="   23.199">  2  5  1 -1</clus>
</clustering>
</event>
<event>
 9    2  0.5684583E-005  0.1145125E+03  0.7546771E-02  0.1257771E+00
         -1   -1    0    0    0  501 -0.00000000000E+00  0.00000000000E+00  0.31186550695E+03  0.31186550695E+03  0.00000000000E+00 0.  1.
          2   -1    0    0  502    0  0.00000000000E+00 -0.00000000000E+00 -0.71386171363E+02  0.71386171363E+02  0.00000000000E+00 0. -1.
         23    2    1    2    0    0  0.25789543709E+01 -0.68043919446E+02  0.21687769936E+03  0.24497465546E+03  0.91323706460E+02 0.  0.
         24    2    1    2    0    0  0.25386917871E+02  0.71972947886E+02  0.18569917819E+02  0.10959173978E+03  0.76425825175E+02 0.  0.
        -11    1    4    4    0    0  0.23003626990E+02  0.16270747701E+02  0.40788632986E+02  0.49574354926E+02  0.00000000000E+00 0.  1.
         12    1    4    4    0    0  0.23832908803E+01  0.55702200185E+02 -0.22218715167E+02  0.60017384853E+02  0.00000000000E+00 0. -1.
        -13    1    3    3    0    0  0.34319265816E+02 -0.42267848745E+02  0.18580920555E+03  0.19362190968E+03  0.00000000000E+00 0.  1.
         13    1    3    3    0    0 -0.31740311445E+02 -0.25776070701E+02  0.31068493809E+02  0.51352745778E+02  0.00000000000E+00 0. -1.
         21    1    1    2  502  501 -0.27965872241E+02 -0.39290284401E+01  0.50317184113E+01  0.28685283071E+02  0.00000000000E+00 0.  1.
<scales pt_clust_5="13000.00000" pt_clust_6="13000.00000" pt_clust_7="13000.00000" pt_clust_8="13000.00000" pt_clust_9="28.24053"></scales>
<clustering>
<clus scale="   28.241">  2  9  1 -1</clus>
<clus scale="   76.426">  5  6 -1 -1</clus>
<clus scale="   91.324">  7  8 -1 -1</clus>
<clus scale="  103.024">  2  5  1 -1</clus>
<clus scale="   28.241">  2  5  1 -1</clus>
</clustering>
</event>
<event>
 9    2  0.5684583E-005  0.1034722E+03  0.7546771E-02  0.1279173E+00
          2   -1    0    0  502    0  0.00000000000E+00  0.00000000000E+00  0.29965766487E+03  0.29965766487E+03  0.00000000000E+00 0. -1.
         -1   -1    0    0    0  501 -0.00000000000E+00 -0.00000000000E+00 -0.67828725117E+02  0.67828725117E+02  0.00000000000E+00 0.  1.
         23    2    1    2    0    0  0.91213449357E+01 -0.50750728636E+02  0.92551206791E+01  0.10399639759E+03  0.89837397900E+02 0.  0.
         24    2    1    2    0    0 -0.44805643092E+02  0.40329824832E+02  0.19211159092E+03  0.21542845149E+03  0.76606226388E+02 0.  0.
        -13    1    4    4    0    0  0.19465520116E+02  0.24426185753E+02  0.64402564624E+02  0.71576779433E+02  0.00000000000E+00 0.  1.
         14    1    4    4    0    0 -0.64271163208E+02  0.15903639080E+02  0.12770902629E+03  0.14385167205E+03  0.00000000000E+00 0. -1.
        -13    1    3    3    0    0 -0.33432309994E+02  0.30915702280E+01 -0.48801736667E+01  0.33927765223E+02  0.00000000000E+00 0.  1.
         13    1    3    3    0    0  0.42553654930E+02 -0.53842298864E+02  0.14135294346E+02  0.70068632362E+02  0.00000000000E+00 0. -1.
         21    1    1    2  502  501  0.35684298156E+02  0.10420903804E+02  0.30462228160E+02  0.48061540919E+02  0.00000000000E+00 0. -1.
<scales pt_clust_5="13000.00000" pt_clust_6="13000.00000" pt_clust_7="13000.00000" pt_clust_8="13000.00000" pt_clust_9="37.17478"></scales>
<clustering>
<clus scale="   37.175">  1  9  2 -1</clus>
<clus scale="   76.606">  5  6 -1 -1</clus>
<clus scale="   89.837">  7  8 -1 -1</clus>
<clus scale="   92.218">  1  5  2 -1</clus>
<clus scale="   37.175">  1  5  2 -1</clus>
</clustering>
</event>
<event>
 9    2  0.5684583E-005  0.2905847E+03  0.7546771E-02  0.1090475E+00
         -1   -1    0    0    0  501 -0.00000000000E+00  0.00000000000E+00  0.12248417193E+03  0.12248417193E+03  0.00000000000E+00 0.  1.
          2   -1    0    0  502    0  0.00000000000E+00 -0.00000000000E+00 -0.95209138846E+03  0.95209138846E+03  0.00000000000E+00 0. -1.
         24    2    1    2    0    0  0.25742166592E+03 -0.42689780588E+02 -0.34031745281E+03  0.43654503430E+03  0.81653333262E+02 0.  0.
         23    2    1    2    0    0 -0.28839061036E+03  0.15622649353E+02 -0.50893546183E+03  0.59244918597E+03  0.92560911456E+02 0.  0.
        -13    1    3    3    0    0  0.15198760158E+03  0.12006598089E+02 -0.16367897413E+03  0.22368548456E+03  0.00000000000E+00 0.  1.
         14    1    3    3    0    0  0.10543406434E+03 -0.54696378677E+02 -0.17663847868E+03  0.21285954974E+03  0.00000000000E+00 0. -1.
        -13    1    4    4    0    0 -0.12749354697E+03  0.52753310523E+02 -0.24189015364E+03  0.27847506660E+03  0.00000000000E+00 0.  1.
         13    1    4    4    0    0 -0.16089706339E+03 -0.37130661170E+02 -0.26704530819E+03  0.31397411937E+03  0.00000000000E+00 0. -1.
         21    1    1    2  502  501  0.30968944434E+02  0.27067131235E+02  0.19645698113E+02  0.45581340118E+02  0.00000000000E+00 0. -1.
<scales pt_clust_5="13000.00000" pt_clust_6="13000.00000" pt_clust_7="13000.00000" pt_clust_8="13000.00000" pt_clust_9="41.13034"></scales>
<clustering>
<clus scale="   41.130">  1  9  2 -1</clus>
<clus scale="   81.653">  5  6 -1 -1</clus>
<clus scale="   92.561">  7  8 -1 -1</clus>
<clus scale="  287.296">  1  5  2 -1</clus>
<clus scale="  290.585">  2  5  1 -1</clus>
</clustering>
</event>
<event>
 9    2  0.5684583E-005  0.1067161E+03  0.7546771E-02  0.1271335E+00
          2   -1    0    0  502    0  0.00000000000E+00  0.00000000000E+00  0.19143406859E+03  0.19143406859E+03  0.00000000000E+00 0. -1.
         -1   -1    0    0    0  501 -0.00000000000E+00 -0.00000000000E+00 -0.21897290392E+03  0.21897290392E+03  0.00000000000E+00 0.  1.
         24    2    1    2    0    0  0.11354708009E+02  0.19065520802E+02 -0.16544400944E+03  0.18545826385E+03  0.80812275638E+02 0.  0.
         23    2    1    2    0    0 -0.50736673509E+02 -0.29122008624E+02  0.14750986276E+03  0.18318362518E+03  0.91513821345E+02 0.  0.
        -11    1    3    3    0    0  0.23966886351E+02  0.46028539296E+02 -0.12409851225E+03  0.13451200249E+03  0.00000000000E+00 0.  1.
         12    1    3    3    0    0 -0.12612178342E+02 -0.26963018494E+02 -0.41345497187E+02  0.50946261359E+02  0.00000000000E+00 0. -1.
        -11    1    4    4    0    0  0.18344309363E+02 -0.32774580279E+02  0.36432371638E+02  0.52325944823E+02  0.00000000000E+00 0. -1.
         11    1    4    4    0    0 -0.69080982872E+02  0.36525716543E+01  0.11107749112E+03  0.13085768035E+03  0.00000000000E+00 0.  1.
         21    1    1    2  502  501  0.39381965501E+02  0.10056487822E+02 -0.96046886449E+01  0.41765083479E+02  0.00000000000E+00 0.  1.
<scales pt_clust_5="13000.00000" pt_clust_6="13000.00000" pt_clust_7="13000.00000" pt_clust_8="13000.00000" pt_clust_9="40.64569"></scales>
<clustering>
<clus scale="   40.646">  2  9  1 -1</clus>
<clus scale="   80.812">  5  6 -1 -1</clus>
<clus scale="   91.514">  7  8 -1 -1</clus>
<clus scale="   97.694">  2  5  1 -1</clus>
<clus scale="  106.716">  1  5  2 -1</clus>
</clustering>
</event>
<event>
 9    2  0.5684583E-005  0.9669094E+02  0.7546771E-02  0.1291050E+00
         -1   -1    0    0    0  501 -0.00000000000E+00  0.00000000000E+00  0.27039876951E+02  0.27039876951E+02  0.00000000000E+00 0.  1.
          2   -1    0    0  502    0  0.00000000000E+00 -0.00000000000E+00 -0.56801099637E+03  0.56801099637E+03  0.00000000000E+00 0. -1.
         23    2    1    2    0    0 -0.71487388152E+01 -0.23111005038E+02 -0.98184821670E+02  0.13350543832E+03  0.87167768314E+02 0.  0.
         24    2    1    2    0    0  0.21128153593E+02  0.42054034698E+02 -0.41436260855E+03  0.42463786779E+03  0.80037532985E+02 0.  0.
        -13    1    4    4    0    0  0.25029509732E+02  0.37722497267E+02 -0.95136279832E+02  0.10535831670E+03  0.00000000000E+00 0.  1.
         14    1    4    4    0    0 -0.39013561395E+01  0.43315374311E+01 -0.31922632872E+03  0.31927955109E+03  0.00000000000E+00 0. -1.
        -13    1    3    3    0    0  0.23598253346E+02 -0.46241582495E+02 -0.53756488256E+02  0.74732332643E+02  0.00000000000E+00 0.  1.
         13    1    3    3    0    0 -0.30746992161E+02  0.23130577457E+02 -0.44428333414E+02  0.58773105672E+02  0.00000000000E+00 0. -1.
         21    1    1    2  502  501 -0.13979414778E+02 -0.18943029660E+02 -0.28423689198E+02  0.36907567217E+02  0.00000000000E+00 0.  1.
<scales pt_clust_5="13000.00000" pt_clust_6="13000.00000" pt_clust_7="13000.00000" pt_clust_8="13000.00000" pt_clust_9="23.54278"></scales>
<clustering>
<clus scale="   23.543">  1  9  2 -1</clus>
<clus scale="   80.038">  5  6 -1 -1</clus>
<clus scale="   87.168">  7  8 -1 -1</clus>
<clus scale="   90.316">  2  5  1 -1</clus>
<clus scale="   90.316">  2  5  1 -1</clus>
</clustering>
</event>
<event>
 9    2  0.5684583E-005  0.9380519E+02  0.7546771E-02  0.1300958E+00
          2   -1    0    0  502    0  0.00000000000E+00  0.00000000000E+00  0.31926622296E+03  0.31926622296E+03  0.00000000000E+00 0. -1.
         -1   -1    0    0    0  501 -0.00000000000E+00 -0.00000000000E+00 -0.46250134060E+02  0.46250134060E+02  0.00000000000E+00 0.  1.
         23    2    1    2    0    0 -0.81929002021E+01  0.73917229964E+01  0.36621365577E+02  0.10065624600E+03  0.93106359936E+02 0.  0.
         24    2    1    2    0    0 -0.20814306070E+02 -0.21868221580E+02  0.16687942253E+03  0.18815702065E+03  0.81503793189E+02 0.  0.
        -13    1    4    4    0    0 -0.78221277807E+01 -0.51638117517E+02  0.12242956611E+03  0.13310401768E+03  0.00000000000E+00 0.  1.
         14    1    4    4    0    0 -0.12992178289E+02  0.29769895936E+02  0.44449856415E+02  0.55053002971E+02  0.00000000000E+00 0. -1.
        -13    1    3    3    0    0  0.72626515133E+01 -0.36774716166E+02  0.38620814858E+02  0.53820936413E+02  0.00000000000E+00 0.  1.
         13    1    3    3    0    0 -0.15455551715E+02  0.44166439163E+02 -0.19994492813E+01  0.46835309592E+02  0.00000000000E+00 0. -1.
         21    1    1    2  502  501  0.29007206272E+02  0.14476498584E+02  0.69515300796E+02  0.76703090366E+02  0.00000000000E+00 0. -1.
<scales pt_clust_5="13000.00000" pt_clust_6="13000.00000" pt_clust_7="13000.00000" pt_clust_8="13000.00000" pt_clust_9="32.41893"></scales>
<clustering>
<clus scale="   32.419">  1  9  2 -1</clus>
<clus scale="   81.504">  5  6 -1 -1</clus>
<clus scale="   82.301">  1  5  2 -1</clus>
<clus scale="   93.106">  7  8 -1 -1</clus>
<clus scale="   32.419">  1  5  2 -1</clus>
</clustering>
</event>
<event>
 9    2  0.5684583E-005  0.1036461E+03  0.7546771E-02  0.1279171E+00
         -1   -1    0    0    0  501 -0.00000000000E+00  0.00000000000E+00  0.38536358649E+02  0.38536358649E+02  0.00000000000E+00 0.  1.
          2   -1    0    0  502    0  0.00000000000E+00 -0.00000000000E+00 -0.50132046207E+03  0.50132046207E+03  0.00000000000E+00 0. -1.
         23    2    1    2    0    0 -0.29830622836E+02  0.26611139212E+02 -0.64811664356E+02  0.12054914677E+03  0.93453336809E+02 0.  0.
         24    2    1    2    0    0  0.55481027233E+02 -0.32494821476E+02 -0.34793518823E+03  0.36277195574E+03  0.80065840759E+02 0.  0.
        -13    1    4    4    0    0  0.48636456943E+02  0.85340053760E+01 -0.10176862934E+03  0.11311581724E+03  0.00000000000E+00 0.  1.
         14    1    4    4    0    0  0.68445702898E+01 -0.41028826852E+02 -0.24616655889E+03  0.24965613850E+03  0.00000000000E+00 0. -1.
        -11    1    3    3    0    0 -0.54329868469E+02 -0.37700951194E+01 -0.13549808168E+02  0.56120811883E+02  0.00000000000E+00 0. -1.
         11    1    3    3    0    0  0.24499245633E+02  0.30381234332E+02 -0.51261856188E+02  0.64428334884E+02  0.00000000000E+00 0.  1.
         21    1    1    2  502  501 -0.25650404397E+02  0.58836822639E+01 -0.50037250837E+02  0.56535718215E+02  0.00000000000E+00 0. -1.
<scales pt_clust_5="13000.00000" pt_clust_6="13000.00000" pt_clust_7="13000.00000" pt_clust_8="13000.00000" pt_clust_9="26.31655"></scales>
<clustering>
<clus scale="   26.317">  2  9  1 -1</clus>
<clus scale="   80.066">  5  6 -1 -1</clus>
<clus scale="   91.758">  2  5  1 -1</clus>
<clus scale="   93.453">  7  8 -1 -1</clus>
<clus scale="   26.317">  2  5  1 -1</clus>
</clustering>
</event>
<event>
 9    2  0.5684583E-005  0.9878571E+02  0.7546771E-02  0.1288246E+00
         -1   -1    0    0    0  501 -0.00000000000E+00  0.00000000000E+00  0.79333267046E+02  0.79333267046E+02  0.00000000000E+00 0.  1.
          2   -1    0    0  502    0  0.00000000000E+00 -0.00000000000E+00 -0.13500751583E+04  0.13500751583E+04  0.00000000000E+00 0. -1.
         23    2    1    2    0    0  0.48008652347E+01 -0.51995005544E+02  0.12128117484E+02  0.10595932988E+03  0.91398902877E+02 0.  0.
         24    2    1    2    0    0  0.13342321383E+02  0.34761304540E+02 -0.12932779174E+04  0.12963474307E+04  0.81009404956E+02 0.  0.
        -13    1    4    4    0    0 -0.32719428652E+01  0.35189928636E+02 -0.21081060506E+03  0.21375253892E+03  0.00000000000E+00 0.  1.
         14    1    4    4    0    0  0.16614264248E+02 -0.42862409566E+00 -0.10824673123E+04  0.10825948918E+04  0.00000000000E+00 0. -1.
        -13    1    3    3    0    0  0.29428485706E+02 -0.69203224451E+02  0.95596387349E+01  0.75805730246E+02  0.00000000000E+00 0.  1.
         13    1    3    3    0    0 -0.24627620471E+02  0.17208218907E+02  0.25684787494E+01  0.30153599637E+02  0.00000000000E+00 0. -1.
         21    1    1    2  502  501 -0.18143186617E+02  0.17233701005E+02  0.10407908630E+02  0.27101664764E+02  0.00000000000E+00 0.  1.
<scales pt_clust_5="13000.00000" pt_clust_6="13000.00000" pt_clust_7="13000.00000" pt_clust_8="13000.00000" pt_clust_9="25.02350"></scales>
<clustering>
<clus scale="   25.024">  1  9  2 -1</clus>
<clus scale="   81.009">  5  6 -1 -1</clus>
<clus scale="   89.260">  2  5  1 -1</clus>
<clus scale="   91.399">  7  8 -1 -1</clus>
<clus scale="   89.260">  2  5  1 -1</clus>
</clustering>
</event>
<event>
 9    2  0.5684583E-005  0.1039148E+03  0.7546771E-02  0.1278287E+00
          2   -1    0    0  502    0  0.00000000000E+00  0.00000000000E+00  0.87556604337E+03  0.87556604337E+03  0.00000000000E+00 0. -1.
         -1   -1    0    0    0  501 -0.00000000000E+00 -0.00000000000E+00 -0.20088572395E+02  0.20088572395E+02  0.00000000000E+00 0.  1.
         24    2    1    2    0    0  0.62148826262E+02  0.29040166811E+02  0.22290685150E+03  0.24566257684E+03  0.77180498339E+02 0.  0.
         23    2    1    2    0    0 -0.21403408972E+02  0.67051196281E+01  0.44988687292E+03  0.45943688736E+03  0.90448828013E+02 0.  0.
        -13    1    3    3    0    0  0.76414175680E+02  0.15905340048E+02  0.20465058765E+03  0.21902960785E+03  0.00000000000E+00 0.  1.
         14    1    3    3    0    0 -0.14265349419E+02  0.13134826762E+02  0.18256263843E+02  0.26632968997E+02  0.00000000000E+00 0. -1.
        -13    1    4    4    0    0 -0.46011229502E+02 -0.24856558518E+02  0.22323293803E+03  0.22927674623E+03  0.00000000000E+00 0. -1.
         13    1    4    4    0    0  0.24607820531E+02  0.31561678146E+02  0.22665393489E+03  0.23016014112E+03  0.00000000000E+00 0.  1.
         21    1    1    2  502  501 -0.40745417290E+02 -0.35745286439E+02  0.18268374656E+03  0.19055515157E+03  0.00000000000E+00 0. -1.
<scales pt_clust_5="13000.00000" pt_clust_6="13000.00000" pt_clust_7="13000.00000" pt_clust_8="13000.00000" pt_clust_9="54.20253"></scales>
<clustering>
<clus scale="   54.203">  1  9  2 -1</clus>
<clus scale="   77.180">  5  6 -1 -1</clus>
<clus scale="   90.449">  7  8 -1 -1</clus>
<clus scale="   92.597">  2  5  1 -1</clus>
<clus scale="   54.203">  1  5  2 -1</clus>
</clustering>
</event>
<event>
 9    2  0.5684583E-005  0.1023565E+03  0.7546771E-02  0.1283567E+00
          2   -1    0    0  502    0  0.00000000000E+00  0.00000000000E+00  0.63813924477E+02  0.63813924477E+02  0.00000000000E+00 0. -1.
         -1   -1    0    0    0  501 -0.00000000000E+00 -0.00000000000E+00 -0.56373254273E+03  0.56373254273E+03  0.00000000000E+00 0.  1.
         23    2    1    2    0    0 -0.95806289694E+01  0.40353218793E+02 -0.45172695562E+03  0.46365655925E+03  0.95916587626E+02 0.  0.
         24    2    1    2    0    0  0.23714215942E+02  0.15128426300E+02  0.60261133331E+01  0.85038538577E+02  0.80025031593E+02 0.  0.
        -13    1    4    4    0    0  0.39233729601E+02  0.39631147357E+02  0.54031113371E+01  0.56027734126E+02  0.00000000000E+00 0.  1.
         14    1    4    4    0    0 -0.15519513658E+02 -0.24502721057E+02  0.62300199594E+00  0.29010804451E+02  0.00000000000E+00 0. -1.
        -13    1    3    3    0    0  0.12146071655E+02 -0.28707403005E+02 -0.16591960890E+03  0.16882226945E+03  0.00000000000E+00 0. -1.
         13    1    3    3    0    0 -0.21726700625E+02  0.69060621797E+02 -0.28580734672E+03  0.29483428980E+03  0.00000000000E+00 0.  1.
         21    1    1    2  502  501 -0.14133586973E+02 -0.55481645092E+02 -0.54217775969E+02  0.78851369385E+02  0.00000000000E+00 0. -1.
<scales pt_clust_5="13000.00000" pt_clust_6="13000.00000" pt_clust_7="13000.00000" pt_clust_8="13000.00000" pt_clust_9="57.25357"></scales>
<clustering>
<clus scale="   57.254">  1  9  2 -1</clus>
<clus scale="   80.025">  5  6 -1 -1</clus>
<clus scale="   87.641">  1  5  2 -1</clus>
<clus scale="   95.917">  7  8 -1 -1</clus>
<clus scale="   57.254">  1  5  2 -1</clus>
</clustering>
</event>
<event>
 9    2  0.5684583E-005  0.1029747E+03  0.7546771E-02  0.1278479E+00
          2   -1    0    0  502    0  0.00000000000E+00  0.00000000000E+00  0.16090310784E+03  0.16090310784E+03  0.00000000000E+00 0. -1.
         -1   -1    0    0    0  501 -0.00000000000E+00 -0.00000000000E+00 -0.97209122513E+02  0.97209122513E+02  0.00000000000E+00 0.  1.
         23    2    1    2    0    0  0.27969381644E+02 -0.55657751716E+02  0.23957823906E+02  0.11244766244E+03  0.90500982461E+02 0.  0.
         24    2    1    2    0    0 -0.24704165177E+02  0.34390104997E+02  0.65194326124E+02  0.11233151246E+03  0.81086949831E+02 0.  0.
        -11    1    4    4    0    0  0.18406227126E+02  0.12704131213E+02 -0.87648770217E+01  0.24020974503E+02  0.00000000000E+00 0.  1.
         12    1    4    4    0    0 -0.43110392303E+02  0.21685973784E+02  0.73959203146E+02  0.88310537952E+02  0.00000000000E+00 0. -1.
        -13    1    3    3    0    0  0.53920822674E+02 -0.62537624346E+02  0.13677142143E+02  0.83698708436E+02  0.00000000000E+00 0.  1.
         13    1    3    3    0    0 -0.25951441029E+02  0.68798726294E+01  0.10280681763E+02  0.28748954005E+02  0.00000000000E+00 0. -1.
         21    1    1    2  502  501 -0.32652164674E+01  0.21267646719E+02 -0.25458164708E+02  0.33333055453E+02  0.00000000000E+00 0.  1.
<scales pt_clust_5="13000.00000" pt_clust_6="13000.00000" pt_clust_7="13000.00000" pt_clust_8="13000.00000" pt_clust_9="21.51684"></scales>
<clustering>
<clus scale="   21.517">  2  9  1 -1</clus>
<clus scale="   81.087">  5  6 -1 -1</clus>
<clus scale="   90.501">  7  8 -1 -1</clus>
<clus scale="   94.807">  1  5  2 -1</clus>
<clus scale="   94.807">  1  5  2 -1</clus>
</clustering>
</event>
<event>
 9    2  0.5684583E-005  0.1056780E+03  0.7546771E-02  0.1273125E+00
         -1   -1    0    0    0  501 -0.00000000000E+00  0.00000000000E+00  0.52540753919E+02  0.52540753919E+02  0.00000000000E+00 0.  1.
          2   -1    0    0  502    0  0.00000000000E+00 -0.00000000000E+00 -0.35724675096E+03  0.35724675096E+03  0.00000000000E+00 0. -1.
         23    2    1    2    0    0  0.14196015497E+02 -0.33670486025E+02 -0.60376871453E+02  0.11616224342E+03  0.92266308615E+02 0.  0.
         24    2    1    2    0    0 -0.31820187077E+02  0.47150332072E+02 -0.25117923479E+03  0.27040368379E+03  0.82410351854E+02 0.  0.
        -13    1    4    4    0    0 -0.45673017909E+02  0.71457626228E+01 -0.66863319803E+02  0.81288314188E+02  0.00000000000E+00 0.  1.
         14    1    4    4    0    0  0.13852830833E+02  0.40004569449E+02 -0.18431591499E+03  0.18911536960E+03  0.00000000000E+00 0. -1.
        -11    1    3    3    0    0  0.51514295095E+02 -0.12840345292E+02 -0.48241720767E+02  0.71734654727E+02  0.00000000000E+00 0.  1.
         11    1    3    3    0    0 -0.37318279598E+02 -0.20830140734E+02 -0.12135150686E+02  0.44427588696E+02  0.00000000000E+00 0. -1.
         21    1    1    2  502  501  0.17624171580E+02 -0.13479846046E+02  0.68501092080E+01  0.23221577670E+02  0.00000000000E+00 0.  1.
<scales pt_clust_5="13000.00000" pt_clust_6="13000.00000" pt_clust_7="13000.00000" pt_clust_8="13000.00000" pt_clust_9="22.18823"></scales>
<clustering>
<clus scale="   22.188">  1  9  2 -1</clus>
<clus scale="   82.410">  5  6 -1 -1</clus>
<clus scale="   92.266">  7  8 -1 -1</clus>
<clus scale="   97.192">  2  5  1 -1</clus>
<clus scale="   97.192">  2  5  1 -1</clus>
</clustering>
</event>
<event>
 9    2  0.5684583E-005  0.1034542E+03  0.7546771E-02  0.1276654E+00
          2   -1    0    0  502    0  0.00000000000E+00  0.00000000000E+00  0.33915708837E+03  0.33915708837E+03  0.00000000000E+00 0. -1.
         -1   -1    0    0    0  501 -0.00000000000E+00 -0.00000000000E+00 -0.84355296385E+02  0.84355296385E+02  0.00000000000E+00 0.  1.
         23    2    1    2    0    0 -0.86793460732E+01 -0.33770169674E+02 -0.55405342264E+01  0.94385111597E+02  0.87533401417E+02 0.  0.
         24    2    1    2    0    0  0.26584084860E+02  0.52347484424E+02  0.27983303504E+03  0.29679178144E+03  0.79572993778E+02 0.  0.
        -11    1    4    4    0    0  0.30335257932E+02 -0.12340606840E+02  0.72138978467E+02  0.79224684696E+02  0.00000000000E+00 0.  1.
         12    1    4    4    0    0 -0.37511730716E+01  0.64688091264E+02  0.20769405657E+03  0.21756709674E+03  0.00000000000E+00 0. -1.
        -13    1    3    3    0    0  0.24054720620E+02  0.19965482934E+02 -0.31421919205E+01  0.31418521018E+02  0.00000000000E+00 0. -1.
         13    1    3    3    0    0 -0.32734066693E+02 -0.53735652607E+02 -0.23983423059E+01  0.62966590580E+02  0.00000000000E+00 0.  1.
         21    1    1    2  502  501 -0.17904738787E+02 -0.18577314750E+02 -0.19490708823E+02  0.32335491720E+02  0.00000000000E+00 0.  1.
<scales pt_clust_5="13000.00000" pt_clust_6="13000.00000" pt_clust_7="13000.00000" pt_clust_8="13000.00000" pt_clust_9="25.80109"></scales>
<clustering>
<clus scale="   25.801">  2  9  1 -1</clus>
<clus scale="   79.573">  5  6 -1 -1</clus>
<clus scale="   87.533">  7  8 -1 -1</clus>
<clus scale="   96.812">  1  5  2 -1</clus>
<clus scale="   96.812">  1  5  2 -1</clus>
</clustering>
</event>
<event>
 9    2  0.5684583E-005  0.1130949E+03  0.7546771E-02  0.1258036E+00
         -1   -1    0    0    0  501 -0.00000000000E+00  0.00000000000E+00  0.51538374015E+02  0.51538374015E+02  0.00000000000E+00 0.  1.
          2   -1    0    0  502    0  0.00000000000E+00 -0.00000000000E+00 -0.12613206006E+04  0.12613206006E+04  0.00000000000E+00 0. -1.
         23    2    1    2    0    0  0.46492904157E+02 -0.22585727782E+02 -0.17241516733E+02  0.10584888366E+03  0.90746961581E+02 0.  0.
         24    2    1    2    0    0 -0.51413523449E+02  0.45210402157E+02 -0.11693635269E+04  0.11742492883E+04  0.82237473423E+02 0.  0.
        -13    1    4    4    0    0 -0.45816973793E+02  0.14656848873E+02 -0.26360049760E+03  0.26795380318E+03  0.00000000000E+00 0.  1.
         14    1    4    4    0    0 -0.55965496558E+01  0.30553553284E+02 -0.90576302934E+03  0.90629548510E+03  0.00000000000E+00 0. -1.
        -13    1    3    3    0    0  0.98131478264E+01 -0.36664213768E+02 -0.44155225207E+02  0.58225822061E+02  0.00000000000E+00 0. -1.
         13    1    3    3    0    0  0.36679756331E+02  0.14078485987E+02  0.26913708474E+02  0.47623061598E+02  0.00000000000E+00 0.  1.
         21    1    1    2  502  501  0.49206192919E+01 -0.22624674375E+02 -0.23177182942E+02  0.32760802706E+02  0.00000000000E+00 0.  1.
<scales pt_clust_5="13000.00000" pt_clust_6="13000.00000" pt_clust_7="13000.00000" pt_clust_8="13000.00000" pt_clust_9="23.15358"></scales>
<clustering>
<clus scale="   23.154">  1  9  2 -1</clus>
<clus scale="   82.237">  5  6 -1 -1</clus>
<clus scale="   90.747">  7  8 -1 -1</clus>
<clus scale="  106.388">  2  5  1 -1</clus>
<clus scale="  106.388">  2  5  1 -1</clus>
</clustering>
</event>
<event>
 9    2  0.5684583E-005  0.2835434E+03  0.7546771E-02  0.1093987E+00
          2   -1    0    0  502    0  0.00000000000E+00  0.00000000000E+00  0.45448670079E+03  0.45448670079E+03  0.00000000000E+00 0. -1.
         -1   -1    0    0    0  501 -0.00000000000E+00 -0.00000000000E+00 -0.27606163933E+03  0.27606163933E+03  0.00000000000E+00 0.  1.
         23    2    1    2    0    0  0.79221560343E+02  0.27719372601E+03 -0.75090185593E+02  0.31069841117E+03  0.88218758625E+02 0.  0.
         24    2    1    2    0    0 -0.73952170323E+02 -0.25325500624E+03  0.27295913144E+03  0.38856265653E+03  0.82868745204E+02 0.  0.
        -11    1    4    4    0    0 -0.56388687002E+02 -0.11571539751E+03  0.82182899134E+02  0.15272120401E+03  0.00000000000E+00 0.  1.
         12    1    4    4    0    0 -0.17563483321E+02 -0.13753960873E+03  0.19077623230E+03  0.23584145252E+03  0.00000000000E+00 0. -1.
        -13    1    3    3    0    0  0.97082623746E+02  0.21003056180E+03 -0.49346528078E+02  0.23658603626E+03  0.00000000000E+00 0. -1.
         13    1    3    3    0    0 -0.17861063403E+02  0.67163164211E+02 -0.25743657515E+02  0.74112374911E+02  0.00000000000E+00 0.  1.
         21    1    1    2  502  501 -0.52693900197E+01 -0.23938719771E+02 -0.19443884379E+02  0.31287272416E+02  0.00000000000E+00 0. -1.
<scales pt_clust_5="13000.00000" pt_clust_6="13000.00000" pt_clust_7="13000.00000" pt_clust_8="13000.00000" pt_clust_9="24.51181"></scales>
<clustering>
<clus scale="   24.512">  2  9  1 -1</clus>
<clus scale="   82.869">  5  6 -1 -1</clus>
<clus scale="   88.219">  7  8 -1 -1</clus>
<clus scale="  281.925">  1  5  2 -1</clus>
<clus scale="  281.925">  1  5  2 -1</clus>
</clustering>
</event>
<event>
 9    2  0.5684583E-005  0.1041530E+03  0.7546771E-02  0.1280861E+00
          2   -1    0    0  502    0  0.00000000000E+00  0.00000000000E+00  0.14119870160E+03  0.14119870160E+03  0.00000000000E+00 0. -1.
         -1   -1    0    0    0  501 -0.00000000000E+00 -0.00000000000E+00 -0.36886854364E+03  0.36886854364E+03  0.00000000000E+00 0.  1.
         23    2    1    2    0    0 -0.63941642603E+02  0.28402134670E+02 -0.11917034209E+03  0.16909217804E+03  0.97444237015E+02 0.  0.
         24    2    1    2    0    0 -0.10049264666E+02 -0.37762234733E+02  0.91613561916E+02  0.12741593402E+03  0.79465724829E+02 0.  0.
        -13    1    4    4    0    0 -0.39760391987E+02 -0.78388229500E+00  0.30861025165E+02  0.50337919272E+02  0.00000000000E+00 0.  1.
         14    1    4    4    0    0  0.29711127321E+02 -0.36978352438E+02  0.60752536751E+02  0.77078014747E+02  0.00000000000E+00 0. -1.
        -11    1    3    3    0    0  0.12114194319E+02 -0.24489044342E+02 -0.27312451674E+02  0.38632072340E+02  0.00000000000E+00 0. -1.
         11    1    3    3    0    0 -0.76055836923E+02  0.52891179013E+02 -0.91857890415E+02  0.13046010570E+03  0.00000000000E+00 0.  1.
         21    1    1    2  502  501  0.73990907269E+02  0.93601000630E+01 -0.20011306187E+03  0.21355913317E+03  0.00000000000E+00 0. -1.
<scales pt_clust_5="13000.00000" pt_clust_6="13000.00000" pt_clust_7="13000.00000" pt_clust_8="13000.00000" pt_clust_9="74.58060"></scales>
<clustering>
<clus scale="   74.581">  2  9  1 -1</clus>
<clus scale="   79.466">  5  6 -1 -1</clus>
<clus scale="   87.563">  1  5  2 -1</clus>
<clus scale="   97.444">  7  8 -1 -1</clus>
<clus scale="   87.563">  1  5  2 -1</clus>
</clustering>
</event>
<event>
 9    2  0.5684583E-005  0.1846304E+03  0.7546771E-02  0.1164342E+00
          2   -1    0    0  502    0  0.00000000000E+00  0.00000000000E+00  0.88381915449E+03  0.88381915449E+03  0.00000000000E+00 0. -1.
         -1   -1    0    0    0  501 -0.00000000000E+00 -0.00000000000E+00 -0.93494838117E+02  0.93494838117E+02  0.00000000000E+00 0.  1.
         24    2    1    2    0    0  0.11028199441E+03 -0.42807169633E+02  0.15820021468E+02  0.14337019845E+03  0.79436570050E+02 0.  0.
         23    2    1    2    0    0 -0.13031938242E+03  0.11280376961E+03  0.71243603394E+03  0.73826992131E+03  0.88145007673E+02 0.  0.
        -11    1    3    3    0    0  0.13582698568E+02 -0.42890887913E+02  0.12146907379E+02  0.46601130085E+02  0.00000000000E+00 0.  1.
         12    1    3    3    0    0  0.96699295840E+02  0.83718279606E-01  0.36731140888E+01  0.96769068363E+02  0.00000000000E+00 0. -1.
        -13    1    4    4    0    0 -0.74599295989E+02  0.95585822330E+02  0.59405840701E+03  0.60630610696E+03  0.00000000000E+00 0. -1.
         13    1    4    4    0    0 -0.55720086433E+02  0.17217947284E+02  0.11837762693E+03  0.13196381435E+03  0.00000000000E+00 0.  1.
         21    1    1    2  502  501  0.20037388015E+02 -0.69996599980E+02  0.62068260964E+02  0.95673872851E+02  0.00000000000E+00 0. -1.
<scales pt_clust_5="13000.00000" pt_clust_6="13000.00000" pt_clust_7="13000.00000" pt_clust_8="13000.00000" pt_clust_9="72.80811"></scales>
<clustering>
<clus scale="   72.808">  2  9  1 -1</clus>
<clus scale="   79.437">  5  6 -1 -1</clus>
<clus scale="   88.145">  7  8 -1 -1</clus>
<clus scale="  180.635">  2  5  1 -1</clus>
<clus scale="  184.630">  1  5  2 -1</clus>
</clustering>
</event>
<event>
 9    2  0.5684583E-005  0.1079376E+03  0.7546771E-02  0.1268828E+00
          4   -1    0    0  502    0  0.00000000000E+00  0.00000000000E+00  0.77457455967E+02  0.77457455967E+02  0.00000000000E+00 0. -1.
         -3   -1    0    0    0  501 -0.00000000000E+00 -0.00000000000E+00 -0.29677047660E+03  0.29677047660E+03  0.00000000000E+00 0.  1.
         23    2    1    2    0    0  0.50277632123E+02  0.68813334613E+02 -0.17539206267E+03  0.21528031999E+03  0.91214720373E+02 0.  0.
         24    2    1    2    0    0 -0.29683369417E+02 -0.42191979300E+02  0.91464607911E+01  0.96106772770E+02  0.80570394625E+02 0.  0.
        -11    1    4    4    0    0 -0.34782336781E+02  0.10594751151E+02  0.20687061195E+02  0.41833171106E+02  0.00000000000E+00 0.  1.
         12    1    4    4    0    0  0.50989673637E+01 -0.52786730452E+02 -0.11540600403E+02  0.54273601664E+02  0.00000000000E+00 0. -1.
        -13    1    3    3    0    0  0.93268748319E+01  0.30289900024E+02 -0.15048701416E+03  0.15378819873E+03  0.00000000000E+00 0.  1.
         13    1    3    3    0    0  0.40950757291E+02  0.38523434589E+02 -0.24905048511E+02  0.61492121256E+02  0.00000000000E+00 0. -1.
         21    1    1    2  502  501 -0.20594262706E+02 -0.26621355313E+02 -0.53067418758E+02  0.62840839816E+02  0.00000000000E+00 0. -1.
<scales pt_clust_5="13000.00000" pt_clust_6="13000.00000" pt_clust_7="13000.00000" pt_clust_8="13000.00000" pt_clust_9="33.65739"></scales>
<clustering>
<clus scale="   33.657">  2  9  1 -1</clus>
<clus scale="   80.570">  5  6 -1 -1</clus>
<clus scale="   91.215">  7  8 -1 -1</clus>
<clus scale="   99.106">  1  5  2 -1</clus>
<clus scale="   99.106">  1  5  2 -1</clus>
</clustering>
</event>
<event>
 9    2  0.5684583E-005  0.2007069E+03  0.7546771E-02  0.1174626E+00
         -1   -1    0    0    0  501 -0.00000000000E+00  0.00000000000E+00  0.40703469384E+03  0.40703469384E+03  0.00000000000E+00 0.  1.
          2   -1    0    0  502    0  0.00000000000E+00 -0.00000000000E+00 -0.69651394970E+03  0.69651394970E+03  0.00000000000E+00 0. -1.
         23    2    1    2    0    0 -0.20005401327E+03 -0.20206758869E+02  0.26249507958E+03  0.34296569708E+03  0.91059767428E+02 0.  0.
         24    2    1    2    0    0  0.52329240150E+02  0.59443456744E+02 -0.59219793188E+03  0.60253211677E+03  0.77940280278E+02 0.  0.
        -11    1    4    4    0    0  0.52598979740E+02  0.35632066113E+02 -0.20538120752E+03  0.21498310912E+03  0.00000000000E+00 0.  1.
         12    1    4    4    0    0 -0.26973959010E+00  0.23811390631E+02 -0.38681672437E+03  0.38754900765E+03  0.00000000000E+00 0. -1.
        -13    1    3    3    0    0 -0.14882141892E+03 -0.32031396775E+02  0.24328518320E+03  0.28698694304E+03  0.00000000000E+00 0.  1.
         13    1    3    3    0    0 -0.51232594352E+02  0.11824637906E+02  0.19209896373E+02  0.55978754044E+02  0.00000000000E+00 0. -1.
         21    1    1    2  502  501  0.14772477312E+03 -0.39236697875E+02  0.40223596443E+02  0.15805082968E+03  0.00000000000E+00 0. -1.
<scales pt_clust_5="13000.00000" pt_clust_6="13000.00000" pt_clust_7="13000.00000" pt_clust_8="13000.00000" pt_clust_9="178.86132"></scales>
<clustering>
<clus scale="   77.940">  5  6 -1 -1</clus>
<clus scale="   91.060">  7  8 -1 -1</clus>
<clus scale="  111.115">  2  5  1 -1</clus>
<clus scale="  178.861">  2  9  1 -1</clus>
<clus scale="  111.115">  2  5  1 -1</clus>
</clustering>
</event>
<event>
 9    2  0.5684583E-005  0.1062151E+03  0.7546771E-02  0.1271836E+00
          2   -1    0    0  502    0  0.00000000000E+00  0.00000000000E+00  0.19296312160E+03  0.19296312160E+03  0.00000000000E+00 0. -1.
         -1   -1    0    0    0  501 -0.00000000000E+00 -0.00000000000E+00 -0.86922642145E+02  0.86922642145E+02  0.00000000000E+00 0.  1.
         23    2    1    2    0    0  0.51284144818E+02  0.19555324101E+02 -0.14817644689E+02  0.10622255878E+03  0.89728452512E+02 0.  0.
         24    2    1    2    0    0 -0.64521428451E+02 -0.22433096850E+01  0.10251104574E+03  0.14517554435E+03  0.79996106219E+02 0.  0.
        -13    1    4    4    0    0 -0.11291614211E+02 -0.35691044819E+02  0.54290911697E+02  0.65945843876E+02  0.00000000000E+00 0.  1.
         14    1    4    4    0    0 -0.53229814240E+02  0.33447735134E+02  0.48220134043E+02  0.79229700471E+02  0.00000000000E+00 0. -1.
        -13    1    3    3    0    0  0.39757722937E+02 -0.20076131216E+02 -0.38295185571E+02  0.58738818644E+02  0.00000000000E+00 0.  1.
         13    1    3    3    0    0  0.11526421881E+02  0.39631455317E+02  0.23477540882E+02  0.47483740141E+02  0.00000000000E+00 0. -1.
         21    1    1    2  502  501  0.13237283633E+02 -0.17312014416E+02  0.18347078401E+02  0.28487660609E+02  0.00000000000E+00 0.  1.
<scales pt_clust_5="13000.00000" pt_clust_6="13000.00000" pt_clust_7="13000.00000" pt_clust_8="13000.00000" pt_clust_9="21.79292"></scales>
<clustering>
<clus scale="   21.793">  1  9  2 -1</clus>
<clus scale="   79.996">  5  6 -1 -1</clus>
<clus scale="   89.728">  7  8 -1 -1</clus>
<clus scale="   98.132">  1  5  2 -1</clus>
<clus scale="   21.793">  1  5  2 -1</clus>
</clustering>
</event>
<event>
 9    2  0.5684583E-005  0.1160328E+03  0.7546771E-02  0.1253436E+00
          2   -1    0    0  502    0  0.00000000000E+00  0.00000000000E+00  0.11078782681E+03  0.11078782681E+03  0.00000000000E+00 0. -1.
         -1   -1    0    0    0  501 -0.00000000000E+00 -0.00000000000E+00 -0.41466972699E+03  0.41466972699E+03  0.00000000000E+00 0.  1.
         23    2    1    2    0    0 -0.47324275462E+02  0.50682717554E+02 -0.13802334472E+03  0.17931486126E+03  0.91077169881E+02 0.  0.
         24    2    1    2    0    0  0.77649492673E+02  0.10824545406E+02  0.47548348290E+02  0.12198812809E+03  0.80458955222E+02 0.  0.
        -13    1    4    4    0    0  0.27807169349E+02  0.36184405874E+02  0.47770238675E+02  0.66064707665E+02  0.00000000000E+00 0.  1.
         14    1    4    4    0    0  0.49842323323E+02 -0.25359860469E+02 -0.22189038528E+00  0.55923420430E+02  0.00000000000E+00 0. -1.
        -13    1    3    3    0    0 -0.17265417448E+02 -0.24604995028E+02 -0.58420717285E+02  0.65699928677E+02  0.00000000000E+00 0.  1.
         13    1    3    3    0    0 -0.30058858013E+02  0.75287712582E+02 -0.79602627437E+02  0.11361493258E+03  0.00000000000E+00 0. -1.
         21    1    1    2  502  501 -0.30325217211E+02 -0.61507262959E+02 -0.21340690374E+03  0.22415456444E+03  0.00000000000E+00 0.  1.
<scales pt_clust_5="13000.00000" pt_clust_6="13000.00000" pt_clust_7="13000.00000" pt_clust_8="13000.00000" pt_clust_9="68.57669"></scales>
<clustering>
<clus scale="   68.577">  2  9  1 -1</clus>
<clus scale="   80.459">  5  6 -1 -1</clus>
<clus scale="   91.077">  7  8 -1 -1</clus>
<clus scale="  107.899">  1  5  2 -1</clus>
<clus scale="  107.899">  1  5  2 -1</clus>
</clustering>
</event>
<event>
 9    2  0.5684583E-005  0.1053005E+03  0.7546771E-02  0.1274089E+00
          2   -1    0    0  502    0  0.00000000000E+00  0.00000000000E+00  0.17141619159E+03  0.17141619159E+03  0.00000000000E+00 0. -1.
         -1   -1    0    0    0  501 -0.00000000000E+00 -0.00000000000E+00 -0.12346498001E+03  0.12346498001E+03  0.00000000000E+00 0.  1.
         24    2    1    2    0    0 -0.22206443450E+02  0.49617581517E+02 -0.41222353948E+02  0.10488462069E+03  0.79664739161E+02 0.  0.
         23    2    1    2    0    0  0.43515024935E+02 -0.34781123614E+02  0.11286740026E+03  0.15484581930E+03  0.90193645890E+02 0.  0.
        -13    1    3    3    0    0 -0.38583749449E+02 -0.44971999646E+00 -0.34535227296E+02  0.51784069886E+02  0.00000000000E+00 0.  1.
         14    1    3    3    0    0  0.16377305999E+02  0.50067301514E+02 -0.66871266526E+01  0.53100550802E+02  0.00000000000E+00 0. -1.
        -13    1    4    4    0    0  0.52480608134E+02  0.10905090351E+02  0.34666763476E+02  0.63835097835E+02  0.00000000000E+00 0.  1.
         13    1    4    4    0    0 -0.89655831985E+01 -0.45686213966E+02  0.78200636782E+02  0.91010721466E+02  0.00000000000E+00 0. -1.
         21    1    1    2  502  501 -0.21308581485E+02 -0.14836457903E+02 -0.23693834730E+02  0.35150731603E+02  0.00000000000E+00 0.  1.
<scales pt_clust_5="13000.00000" pt_clust_6="13000.00000" pt_clust_7="13000.00000" pt_clust_8="13000.00000" pt_clust_9="25.96490"></scales>
<clustering>
<clus scale="   25.965">  2  9  1 -1</clus>
<clus scale="   79.665">  5  6 -1 -1</clus>
<clus scale="   90.194">  7  8 -1 -1</clus>
<clus scale="   96.435">  2  5  1 -1</clus>
<clus scale="  105.301">  1  5  2 -1</clus>
</clustering>
</event>
<event>
 9    2  0.5684583E-005  0.1236504E+03  0.7546771E-02  0.1238756E+00
         -3   -1    0    0    0  501 -0.00000000000E+00  0.00000000000E+00  0.35585962949E+03  0.35585962949E+03  0.00000000000E+00 0.  1.
          4   -1    0    0  502    0  0.00000000000E+00 -0.00000000000E+00 -0.20853703364E+03  0.20853703364E+03  0.00000000000E+00 0. -1.
         24    2    1    2    0    0  0.85146116364E+02  0.76102114570E+02  0.17345923862E+02  0.14058174933E+03  0.80130856703E+02 0.  0.
         23    2    1    2    0    0 -0.77921009978E+02 -0.42928209907E+02 -0.12281797842E+03  0.16875051920E+03  0.74013288701E+02 0.  0.
        -11    1    3    3    0    0  0.30749676233E+02  0.65419077464E+02  0.37702028931E+02  0.81526935857E+02  0.00000000000E+00 0.  1.
         12    1    3    3    0    0  0.54396440130E+02  0.10683037106E+02 -0.20356105069E+02  0.59054813472E+02  0.00000000000E+00 0. -1.
        -11    1    4    4    0    0 -0.68363805612E+02 -0.62089118337E+02 -0.86187143799E+02  0.12632059329E+03  0.00000000000E+00 0. -1.
         11    1    4    4    0    0 -0.95572043655E+01  0.19160908430E+02 -0.36630834626E+02  0.42429925908E+02  0.00000000000E+00 0.  1.
         21    1    1    2  502  501 -0.72251063858E+01 -0.33173904663E+02  0.25279465042E+03  0.25506439460E+03  0.00000000000E+00 0.  1.
<scales pt_clust_5="13000.00000" pt_clust_6="13000.00000" pt_clust_7="13000.00000" pt_clust_8="13000.00000" pt_clust_9="33.95158"></scales>
<clustering>
<clus scale="   33.952">  1  9  2 -1</clus>
<clus scale="   74.013">  7  8 -1 -1</clus>
<clus scale="   80.131">  5  6 -1 -1</clus>
<clus scale="  119.777">  2  7  1 -1</clus>
<clus scale="  119.777">  2  5  1 -1</clus>
</clustering>
</event>
<event>
 9    2  0.5684583E-005  0.1360759E+03  0.7546771E-02  0.1228111E+00
         -1   -1    0    0    0  501 -0.00000000000E+00  0.00000000000E+00  0.27347604340E+03  0.27347604340E+03  0.00000000000E+00 0.  1.
          2   -1    0    0  502    0  0.00000000000E+00 -0.00000000000E+00 -0.37817799533E+03  0.37817799533E+03  0.00000000000E+00 0. -1.
         23    2    1    2    0    0  0.41021123964E+02  0.61238504722E+02  0.11144853914E+03  0.15787714375E+03  0.84092381163E+02 0.  0.
         24    2    1    2    0    0  0.46694979481E+02  0.90792942870E+02 -0.27862550886E+03  0.30746853846E+03  0.80504337618E+02 0.  0.
        -13    1    4    4    0    0  0.38562546065E+02  0.21931881209E+02 -0.42736288979E+02  0.61599251360E+02  0.00000000000E+00 0.  1.
         14    1    4    4    0    0  0.81324334164E+01  0.68861061661E+02 -0.23588921988E+03  0.24586928710E+03  0.00000000000E+00 0. -1.
        -11    1    3    3    0    0  0.50618961056E+02  0.33204808329E+02  0.23275220950E+02  0.64858109938E+02  0.00000000000E+00 0. -1.
         11    1    3    3    0    0 -0.95978370912E+01  0.28033696393E+02  0.88173318188E+02  0.93019033808E+02  0.00000000000E+00 0.  1.
         21    1    1    2  502  501 -0.87716103445E+02 -0.15203144759E+03  0.62475017784E+02  0.18630835652E+03  0.00000000000E+00 0.  1.
<scales pt_clust_5="13000.00000" pt_clust_6="13000.00000" pt_clust_7="13000.00000" pt_clust_8="13000.00000" pt_clust_9="109.70735"></scales>
<clustering>
<clus scale="   80.504">  5  6 -1 -1</clus>
<clus scale="   84.092">  7  8 -1 -1</clus>
<clus scale="  111.823">  1  7  2 -1</clus>
<clus scale="  109.707">  1  9  2 -1</clus>
<clus scale="  136.076">  2  5  1 -1</clus>
</clustering>
</event>
<event>
 9    2  0.5684583E-005  0.1290652E+03  0.7546771E-02  0.1248682E+00
          2   -1    0    0  502    0  0.00000000000E+00  0.00000000000E+00  0.13432273541E+03  0.13432273541E+03  0.00000000000E+00 0. -1.
         -1   -1    0    0    0  501 -0.00000000000E+00 -0.00000000000E+00 -0.19538924968E+03  0.19538924968E+03  0.00000000000E+00 0.  1.
         24    2    1    2    0    0 -0.19410906539E+02 -0.22214642478E+02 -0.20831369708E+02  0.88682427896E+02  0.80996008670E+02 0.  0.
         23    2    1    2    0    0  0.24721274984E+02 -0.74092749702E+02 -0.71358930856E+02  0.13967866241E+03  0.91198435972E+02 0.  0.
        -13    1    3    3    0    0 -0.44347676509E+02 -0.11773555833E+02  0.10733720310E+02  0.47122667373E+02  0.00000000000E+00 0.  1.
         14    1    3    3    0    0  0.24936769970E+02 -0.10441086645E+02 -0.31565090018E+02  0.41559760523E+02  0.00000000000E+00 0. -1.
        -11    1    4    4    0    0 -0.11521168547E+02 -0.74531922997E+02 -0.22227345695E+02  0.78624422205E+02  0.00000000000E+00 0.  1.
         11    1    4    4    0    0  0.36242443530E+02  0.43917329547E+00 -0.49131585161E+02  0.61054240203E+02  0.00000000000E+00 0. -1.
         21    1    1    2  502  501 -0.53103684446E+01  0.96307392180E+02  0.31123786296E+02  0.10135089479E+03  0.00000000000E+00 0. -1.
<scales pt_clust_5="13000.00000" pt_clust_6="13000.00000" pt_clust_7="13000.00000" pt_clust_8="13000.00000" pt_clust_9="91.32732"></scales>
<clustering>
<clus scale="   80.996">  5  6 -1 -1</clus>
<clus scale="   86.201">  2  5  1 -1</clus>
<clus scale="   91.198">  7  8 -1 -1</clus>
<clus scale="   91.327">  1  9  2 -1</clus>
<clus scale="   91.327">  1  5  2 -1</clus>
</clustering>
</event>
<event>
 9    2  0.5684583E-005  0.9177260E+02  0.7546771E-02  0.1305643E+00
         -1   -1    0    0    0  501 -0.00000000000E+00  0.00000000000E+00  0.46232678296E+02  0.46232678296E+02  0.00000000000E+00 0.  1.
          2   -1    0    0  502    0  0.00000000000E+00 -0.00000000000E+00 -0.27268593092E+03  0.27268593092E+03  0.00000000000E+00 0. -1.
         24    2    1    2    0    0 -0.37500047508E+02  0.60022093844E+01 -0.69027845427E+02  0.11183572301E+03  0.79373203389E+02 0.  0.
         23    2    1    2    0    0 -0.10707434530E+01  0.36175657466E+00 -0.13310026581E+03  0.16104031372E+03  0.90647804847E+02 0.  0.
        -13    1    3    3    0    0 -0.25125394128E+02  0.26141368141E+02  0.26559770425E+01  0.36355340356E+02  0.00000000000E+00 0.  1.
         14    1    3    3    0    0 -0.12374653379E+02 -0.20139158756E+02 -0.71683822469E+02  0.75480382653E+02  0.00000000000E+00 0. -1.
        -11    1    4    4    0    0  0.38922365397E+02 -0.12030656927E+02 -0.98956019711E+02  0.10701392933E+03  0.00000000000E+00 0. -1.
         11    1    4    4    0    0 -0.39993108850E+02  0.12392413502E+02 -0.34144246102E+02  0.54026384385E+02  0.00000000000E+00 0.  1.
         21    1    1    2  502  501  0.38570790961E+02 -0.63639659591E+01 -0.24325141386E+02  0.46042572490E+02  0.00000000000E+00 0. -1.
<scales pt_clust_5="13000.00000" pt_clust_6="13000.00000" pt_clust_7="13000.00000" pt_clust_8="13000.00000" pt_clust_9="39.09228"></scales>
<clustering>
<clus scale="   39.092">  1  9  2 -1</clus>
<clus scale="   79.373">  5  6 -1 -1</clus>
<clus scale="   80.655">  1  5  2 -1</clus>
<clus scale="   90.648">  7  8 -1 -1</clus>
<clus scale="   91.773">  2  5  1 -1</clus>
</clustering>
</event>
<event>
 9    2  0.5684583E-005  0.9226389E+02  0.7546771E-02  0.1304235E+00
          2   -1    0    0  502    0  0.00000000000E+00  0.00000000000E+00  0.30461535037E+03  0.30461535037E+03  0.00000000000E+00 0. -1.
         -1   -1    0    0    0  501 -0.00000000000E+00 -0.00000000000E+00 -0.56901501316E+02  0.56901501316E+02  0.00000000000E+00 0.  1.
         23    2    1    2    0    0 -0.79590139067E+01 -0.31782075478E+01  0.16930442069E+02  0.93413949884E+02  0.91466273886E+02 0.  0.
         24    2    1    2    0    0 -0.15752765281E+02 -0.21838651631E+01  0.22951963939E+03  0.24375957819E+03  0.80539109815E+02 0.  0.
        -11    1    4    4    0    0 -0.30767900058E+02 -0.13901790824E+02  0.36189356440E+02  0.49493363006E+02  0.00000000000E+00 0.  1.
         12    1    4    4    0    0  0.15015134777E+02  0.11717925661E+02  0.19333028295E+03  0.19426621518E+03  0.00000000000E+00 0. -1.
        -11    1    3    3    0    0  0.13588534931E+02  0.38588003949E+02 -0.56058614290E+01  0.41292953548E+02  0.00000000000E+00 0.  1.
         11    1    3    3    0    0 -0.21547548838E+02 -0.41766211497E+02  0.22536303498E+02  0.52120996336E+02  0.00000000000E+00 0. -1.
         21    1    1    2  502  501  0.23711779188E+02  0.53620727109E+01  0.12637675905E+01  0.24343323613E+02  0.00000000000E+00 0.  1.
<scales pt_clust_5="13000.00000" pt_clust_6="13000.00000" pt_clust_7="13000.00000" pt_clust_8="13000.00000" pt_clust_9="24.31050"></scales>
<clustering>
<clus scale="   24.310">  2  9  1 -1</clus>
<clus scale="   80.539">  5  6 -1 -1</clus>
<clus scale="   81.444">  1  5  2 -1</clus>
<clus scale="   91.466">  7  8 -1 -1</clus>
<clus scale="   81.444">  1  5  2 -1</clus>
</clustering>
</event>
<event>
 9    2  0.5684583E-005  0.1202676E+03  0.7546771E-02  0.1246571E+00
         -1   -1    0    0    0  501 -0.00000000000E+00  0.00000000000E+00  0.59696980770E+02  0.59696980770E+02  0.00000000000E+00 0.  1.
          2   -1    0    0  502    0  0.00000000000E+00 -0.00000000000E+00 -0.54098902680E+03  0.54098902680E+03  0.00000000000E+00 0. -1.
         23    2    1    2    0    0 -0.60586920179E+02  0.68124689081E+02 -0.66726389145E+02  0.14532844431E+03  0.91412239657E+02 0.  0.
         24    2    1    2    0    0  0.16098954646E+02 -0.75827957814E+02 -0.38685784896E+03  0.40238358808E+03  0.79022155915E+02 0.  0.
        -11    1    4    4    0    0 -0.18170718118E+02 -0.89035186521E+01 -0.22130186727E+02  0.29986543747E+02  0.00000000000E+00 0.  1.
         12    1    4    4    0    0  0.34269672764E+02 -0.66924439162E+02 -0.36472766223E+03  0.37239704433E+03  0.00000000000E+00 0. -1.
        -13    1    3    3    0    0 -0.44442580257E+02  0.90356214153E+02 -0.44958681917E+02  0.11027543451E+03  0.00000000000E+00 0.  1.
         13    1    3    3    0    0 -0.16144339922E+02 -0.22231525072E+02 -0.21767707229E+02  0.35053009807E+02  0.00000000000E+00 0. -1.
         21    1    1    2  502  501  0.44487965534E+02  0.77032687331E+01 -0.27707807931E+02  0.52973975184E+02  0.00000000000E+00 0. -1.
<scales pt_clust_5="13000.00000" pt_clust_6="13000.00000" pt_clust_7="13000.00000" pt_clust_8="13000.00000" pt_clust_9="45.14997"></scales>
<clustering>
<clus scale="   45.150">  1  9  2 -1</clus>
<clus scale="   79.022">  5  6 -1 -1</clus>
<clus scale="   91.412">  7  8 -1 -1</clus>
<clus scale="  111.142">  2  5  1 -1</clus>
<clus scale="  111.142">  2  5  1 -1</clus>
</clustering>
</event>
<event>
 9    2  0.2114494E-004  0.9981488E+02  0.7546771E-02  0.1284055E+00
         -1   -1    0    0    0  501 -0.00000000000E+00  0.00000000000E+00  0.36417372223E+03  0.36417372223E+03  0.00000000000E+00 0.  1.
          2   -1    0    0  502    0  0.00000000000E+00 -0.00000000000E+00 -0.23748910151E+03  0.23748910151E+03  0.00000000000E+00 0. -1.
         24    2    1    2    0    0 -0.36972686675E+02  0.12358912105E+02  0.29164550544E+03  0.30514171631E+03  0.80837144431E+02 0.  0.
         23    2    1    2    0    0  0.47244064544E+02  0.66565478239E+01 -0.21766978282E+03  0.23955342484E+03  0.87916993441E+02 0.  0.
        -11    1    3    3    0    0 -0.57692594421E+02  0.20986967865E+02  0.25399460804E+03  0.26130853255E+03  0.00000000000E+00 0.  1.
         12    1    3    3    0    0  0.20719907746E+02 -0.86280557600E+01  0.37650897403E+02  0.43833183759E+02  0.00000000000E+00 0. -1.
        -11    1    4    4    0    0  0.11005615085E+02  0.40851176151E+02 -0.54790386711E+02  0.69223757715E+02  0.00000000000E+00 0.  1.
         11    1    4    4    0    0  0.36238449459E+02 -0.34194628327E+02 -0.16287939611E+03  0.17032966713E+03  0.00000000000E+00 0. -1.
         21    1    1    2  502  501 -0.10271377869E+02 -0.19015459929E+02  0.52708898101E+02  0.56967682581E+02  0.00000000000E+00 0. -1.
<scales pt_clust_5="13000.00000" pt_clust_6="13000.00000" pt_clust_7="13000.00000" pt_clust_8="13000.00000" pt_clust_9="21.61224"></scales>
<clustering>
<clus scale="   21.612">  1  9  2 -1</clus>
<clus scale="   80.837">  5  6 -1 -1</clus>
<clus scale="   87.917">  7  8 -1 -1</clus>
<clus scale="   93.639">  1  5  2 -1</clus>
<clus scale="   99.815">  2  5  1 -1</clus>
</clustering>
</event>
<event>
 9    2  0.5684583E-005  0.1042000E+03  0.7546771E-02  0.1275242E+00
         -1   -1    0    0    0  501 -0.00000000000E+00  0.00000000000E+00  0.49063783930E+02  0.49063783930E+02  0.00000000000E+00 0.  1.
          2   -1    0    0  502    0  0.00000000000E+00 -0.00000000000E+00 -0.44077979973E+03  0.44077979973E+03  0.00000000000E+00 0. -1.
         23    2    1    2    0    0  0.18301817457E+02 -0.46694420124E+01 -0.48103834964E+02  0.10370941301E+03  0.89916089759E+02 0.  0.
         24    2    1    2    0    0 -0.62671536838E+02 -0.51249829919E+01 -0.31720172642E+03  0.33357834451E+03  0.81875452354E+02 0.  0.
        -13    1    4    4    0    0  0.54264020958E+01  0.26755570433E+02 -0.10326561242E+03  0.10681335636E+03  0.00000000000E+00 0.  1.
         14    1    4    4    0    0 -0.68097938933E+02 -0.31880553425E+02 -0.21393611400E+03  0.22676498815E+03  0.00000000000E+00 0. -1.
        -13    1    3    3    0    0  0.45172282219E+02  0.99430813200E+01  0.53018676746E+00  0.46256686490E+02  0.00000000000E+00 0.  1.
         13    1    3    3    0    0 -0.26870464763E+02 -0.14612523332E+02 -0.48634021732E+02  0.57452726520E+02  0.00000000000E+00 0. -1.
         21    1    1    2  502  501  0.44369719381E+02  0.97944250043E+01 -0.26410454408E+02  0.52555826139E+02  0.00000000000E+00 0.  1.
<scales pt_clust_5="13000.00000" pt_clust_6="13000.00000" pt_clust_7="13000.00000" pt_clust_8="13000.00000" pt_clust_9="45.43790"></scales>
<clustering>
<clus scale="   45.438">  1  9  2 -1</clus>
<clus scale="   81.875">  5  6 -1 -1</clus>
<clus scale="   89.916">  7  8 -1 -1</clus>
<clus scale="   97.346">  2  5  1 -1</clus>
<clus scale="   97.346">  2  5  1 -1</clus>
</clustering>
</event>
<event>
 9    2  0.5684583E-005  0.2651335E+03  0.7546771E-02  0.1152744E+00
          2   -1    0    0  502    0  0.00000000000E+00  0.00000000000E+00  0.10486301765E+04  0.10486301765E+04  0.00000000000E+00 0. -1.
         -1   -1    0    0    0  501 -0.00000000000E+00 -0.00000000000E+00 -0.14665577087E+03  0.14665577087E+03  0.00000000000E+00 0.  1.
         23    2    1    2    0    0  0.24216130047E+03  0.49694725477E+02  0.44473818531E+03  0.51674686523E+03  0.90131060512E+02 0.  0.
         24    2    1    2    0    0  0.41435368778E+01 -0.67606815299E+01  0.41785605501E+03  0.42543791172E+03  0.79566690964E+02 0.  0.
        -11    1    4    4    0    0  0.35690846241E+02 -0.24078002881E+02  0.19513231645E+03  0.19982544295E+03  0.00000000000E+00 0.  1.
         12    1    4    4    0    0 -0.31547309364E+02  0.17317321351E+02  0.22272373856E+03  0.22561246877E+03  0.00000000000E+00 0. -1.
        -11    1    3    3    0    0  0.22517836941E+03  0.37470870084E+02  0.43939016227E+03  0.49514955201E+03  0.00000000000E+00 0. -1.
         11    1    3    3    0    0  0.16982931059E+02  0.12223855393E+02  0.53480230401E+01  0.21597313223E+02  0.00000000000E+00 0.  1.
         21    1    1    2  502  501 -0.24630483735E+03 -0.42934043947E+02  0.39380165275E+02  0.25310117038E+03  0.00000000000E+00 0.  1.
<scales pt_clust_5="13000.00000" pt_clust_6="13000.00000" pt_clust_7="13000.00000" pt_clust_8="13000.00000" pt_clust_9="249.34342"></scales>
<clustering>
<clus scale="   79.567">  5  6 -1 -1</clus>
<clus scale="   79.961">  1  5  2 -1</clus>
<clus scale="   90.131">  7  8 -1 -1</clus>
<clus scale="  249.343">  2  9  1 -1</clus>
<clus scale="   79.961">  1  5  2 -1</clus>
</clustering>
</event>
<event>
 9    2  0.5684583E-005  0.1100979E+03  0.7546771E-02  0.1270007E+00
          2   -1    0    0  502    0  0.00000000000E+00  0.00000000000E+00  0.14244250704E+03  0.14244250704E+03  0.00000000000E+00 0. -1.
         -1   -1    0    0    0  501 -0.00000000000E+00 -0.00000000000E+00 -0.78340145880E+03  0.78340145880E+03  0.00000000000E+00 0.  1.
         23    2    1    2    0    0  0.30839726330E+02  0.82485375284E+02 -0.40228780270E+03  0.42418444143E+03  0.10169581255E+03 0.  0.
         24    2    1    2    0    0 -0.21405261384E+02 -0.34373945402E+02  0.11402029174E+03  0.14557670929E+03  0.80945648575E+02 0.  0.
        -11    1    4    4    0    0 -0.39497587082E+02 -0.22046115443E+02  0.20740247637E+02  0.49761917804E+02  0.00000000000E+00 0.  1.
         12    1    4    4    0    0  0.18092325699E+02 -0.12327829959E+02  0.93280044101E+02  0.95814791489E+02  0.00000000000E+00 0. -1.
        -11    1    3    3    0    0  0.59674363229E+01  0.10091757737E+03 -0.26953807527E+03  0.28787278742E+03  0.00000000000E+00 0. -1.
         11    1    3    3    0    0  0.24872290007E+02 -0.18432202088E+02 -0.13274972743E+03  0.13631165401E+03  0.00000000000E+00 0.  1.
         21    1    1    2  502  501 -0.94344649467E+01 -0.48111429883E+02 -0.35269144079E+03  0.35608281512E+03  0.00000000000E+00 0. -1.
<scales pt_clust_5="13000.00000" pt_clust_6="13000.00000" pt_clust_7="13000.00000" pt_clust_8="13000.00000" pt_clust_9="49.02774"></scales>
<clustering>
<clus scale="   49.028">  2  9  1 -1</clus>
<clus scale="   80.946">  5  6 -1 -1</clus>
<clus scale="   91.278">  1  5  2 -1</clus>
<clus scale="  101.696">  7  8 -1 -1</clus>
<clus scale="   91.278">  1  5  2 -1</clus>
</clustering>
</event>
<event>
 9    2  0.5684583E-005  0.9486709E+02  0.7546771E-02  0.1298142E+00
         -1   -1    0    0    0  501 -0.00000000000E+00  0.00000000000E+00  0.60890785882E+02  0.60890785882E+02  0.00000000000E+00 0.  1.
          2   -1    0    0  502    0  0.00000000000E+00 -0.00000000000E+00 -0.64802504419E+03  0.64802504419E+03  0.00000000000E+00 0. -1.
         23    2    1    2    0    0  0.47814776516E+02  0.30002581290E+01 -0.42706669048E+01  0.10262022837E+03  0.90649976683E+02 0.  0.
         24    2    1    2    0    0 -0.24070684407E+02  0.12490237587E+02 -0.56833267327E+03  0.57443834273E+03  0.79006190907E+02 0.  0.
        -11    1    4    4    0    0 -0.19961301558E+02 -0.30644662180E+02 -0.17872186704E+03  0.18242547695E+03  0.00000000000E+00 0.  1.
         12    1    4    4    0    0 -0.41093828491E+01  0.43134899767E+02 -0.38961080623E+03  0.39201286578E+03  0.00000000000E+00 0. -1.
        -11    1    3    3    0    0  0.72826743377E+02  0.38981353986E+00  0.10305715218E+02  0.73553343036E+02  0.00000000000E+00 0.  1.
         11    1    3    3    0    0 -0.25011966861E+02  0.26104445892E+01 -0.14576382123E+02  0.29066885334E+02  0.00000000000E+00 0. -1.
         21    1    1    2  502  501 -0.23744092109E+02 -0.15490495716E+02 -0.14530918124E+02  0.31857258971E+02  0.00000000000E+00 0.  1.
<scales pt_clust_5="13000.00000" pt_clust_6="13000.00000" pt_clust_7="13000.00000" pt_clust_8="13000.00000" pt_clust_9="28.35026"></scales>
<clustering>
<clus scale="   28.350">  1  9  2 -1</clus>
<clus scale="   79.006">  5  6 -1 -1</clus>
<clus scale="   83.811">  2  5  1 -1</clus>
<clus scale="   90.650">  7  8 -1 -1</clus>
<clus scale="   83.811">  2  5  1 -1</clus>
</clustering>
</event>
<event>
 9    2  0.5684583E-005  0.4854388E+03  0.7546771E-02  0.1017651E+00
          2   -1    0    0  502    0  0.00000000000E+00  0.00000000000E+00  0.16848245723E+04  0.16848245723E+04  0.00000000000E+00 0. -1.
         -1   -1    0    0    0  501 -0.00000000000E+00 -0.00000000000E+00 -0.14605887269E+03  0.14605887269E+03  0.00000000000E+00 0.  1.
         24    2    1    2    0    0 -0.17523425915E+03  0.10894510382E+03  0.15896454957E+03  0.27270076062E+03  0.80745870445E+02 0.  0.
         23    2    1    2    0    0 -0.23220522479E+03  0.56191292589E+02  0.31303420610E+03  0.40437651556E+03  0.91941418120E+02 0.  0.
        -13    1    3    3    0    0 -0.14250788984E+03  0.74001695958E+02  0.77711958443E+02  0.17839253952E+03  0.00000000000E+00 0.  1.
         14    1    3    3    0    0 -0.32726369308E+02  0.34943407867E+02  0.81252591128E+02  0.94308221097E+02  0.00000000000E+00 0. -1.
        -13    1    4    4    0    0 -0.15286908543E+03  0.80542053643E+02  0.20370432937E+03  0.26711689106E+03  0.00000000000E+00 0.  1.
         13    1    4    4    0    0 -0.79336139366E+02 -0.24350761054E+02  0.10932987673E+03  0.13725962450E+03  0.00000000000E+00 0. -1.
         21    1    1    2  502  501  0.40743948394E+03 -0.16513639641E+03  0.10667669439E+04  0.11538061688E+04  0.00000000000E+00 0. -1.
<scales pt_clust_5="13000.00000" pt_clust_6="13000.00000" pt_clust_7="13000.00000" pt_clust_8="13000.00000" pt_clust_9="439.63276"></scales>
<clustering>
<clus scale="   80.746">  5  6 -1 -1</clus>
<clus scale="   91.941">  7  8 -1 -1</clus>
<clus scale="  138.567">  5  7 -1 -1</clus>
<clus scale="  439.633">  1  9  2 -1</clus>
<clus scale="  439.633">  1  5  2 -1</clus>
</clustering>
</event>
<event>
 9    2  0.5684583E-005  0.9962044E+02  0.7546771E-02  0.1287477E+00
          2   -1    0    0  502    0  0.00000000000E+00  0.00000000000E+00  0.92050606856E+03  0.92050606856E+03  0.00000000000E+00 0. -1.
         -1   -1    0    0    0  501 -0.00000000000E+00 -0.00000000000E+00 -0.27546728509E+02  0.27546728509E+02  0.00000000000E+00 0.  1.
         23    2    1    2    0    0 -0.46253822517E+01 -0.87432157440E+01  0.16387192018E+03  0.18838015687E+03  0.92386358820E+02 0.  0.
         24    2    1    2    0    0  0.12358569871E+02  0.41980965558E+02  0.71802642273E+03  0.72379930942E+03  0.80052238343E+02 0.  0.
        -13    1    4    4    0    0  0.40701112697E+02  0.38018617756E+02  0.32546296315E+03  0.33019408876E+03  0.00000000000E+00 0.  1.
         14    1    4    4    0    0 -0.28342542826E+02  0.39623478022E+01  0.39256345958E+03  0.39360522066E+03  0.00000000000E+00 0. -1.
        -13    1    3    3    0    0 -0.20894026631E+02  0.37680149097E+02  0.87579154768E+02  0.97603597960E+02  0.00000000000E+00 0. -1.
         13    1    3    3    0    0  0.16268644379E+02 -0.46423364841E+02  0.76292765413E+02  0.90776558910E+02  0.00000000000E+00 0.  1.
         21    1    1    2  502  501 -0.77331876195E+01 -0.33237749814E+02  0.11060997145E+02  0.35873330781E+02  0.00000000000E+00 0.  1.
<scales pt_clust_5="13000.00000" pt_clust_6="13000.00000" pt_clust_7="13000.00000" pt_clust_8="13000.00000" pt_clust_9="34.12551"></scales>
<clustering>
<clus scale="   34.126">  2  9  1 -1</clus>
<clus scale="   80.052">  5  6 -1 -1</clus>
<clus scale="   88.303">  1  5  2 -1</clus>
<clus scale="   92.386">  7  8 -1 -1</clus>
<clus scale="   88.303">  1  5  2 -1</clus>
</clustering>
</event>
<event>
 9    2  0.5684583E-005  0.1077278E+03  0.7546771E-02  0.1269618E+00
          2   -1    0    0  502    0  0.00000000000E+00  0.00000000000E+00  0.37669656213E+03  0.37669656213E+03  0.00000000000E+00 0. -1.
         -1   -1    0    0    0  501 -0.00000000000E+00 -0.00000000000E+00 -0.83697049460E+02  0.83697049460E+02  0.00000000000E+00 0.  1.
         23    2    1    2    0    0  0.42662664078E+02 -0.24912062548E+02  0.10741385336E+03  0.14993888285E+03  0.92212900012E+02 0.  0.
         24    2    1    2    0    0 -0.33452927510E+02  0.50510239253E+02  0.23402482125E+03  0.25489900620E+03  0.80842462678E+02 0.  0.
        -11    1    4    4    0    0 -0.56018859785E+02  0.25933327115E+02  0.10665191669E+03  0.12322857396E+03  0.00000000000E+00 0.  1.
         12    1    4    4    0    0  0.22565932275E+02  0.24576912138E+02  0.12737290456E+03  0.13167043224E+03  0.00000000000E+00 0. -1.
        -13    1    3    3    0    0 -0.11056702358E+02 -0.38542210980E+02  0.16279097884E+02  0.43275417065E+02  0.00000000000E+00 0.  1.
         13    1    3    3    0    0  0.53719366435E+02  0.13630148432E+02  0.91134755478E+02  0.10666346578E+03  0.00000000000E+00 0. -1.
         21    1    1    2  502  501 -0.92097365671E+01 -0.25598176705E+02 -0.48439161940E+02  0.55555722547E+02  0.00000000000E+00 0.  1.
<scales pt_clust_5="13000.00000" pt_clust_6="13000.00000" pt_clust_7="13000.00000" pt_clust_8="13000.00000" pt_clust_9="27.20452"></scales>
<clustering>
<clus scale="   27.205">  2  9  1 -1</clus>
<clus scale="   80.842">  5  6 -1 -1</clus>
<clus scale="   92.213">  7  8 -1 -1</clus>
<clus scale="   98.171">  1  5  2 -1</clus>
<clus scale="   98.171">  1  5  2 -1</clus>
</clustering>
</event>
<event>
 9    2  0.5684583E-005  0.1328215E+03  0.7546771E-02  0.1225794E+00
          2   -1    0    0  502    0  0.00000000000E+00  0.00000000000E+00  0.65372198489E+03  0.65372198489E+03  0.00000000000E+00 0. -1.
         -1   -1    0    0    0  501 -0.00000000000E+00 -0.00000000000E+00 -0.31289964675E+03  0.31289964675E+03  0.00000000000E+00 0.  1.
         23    2    1    2    0    0  0.10602852136E+03  0.41906875874E+02 -0.26545275994E+03  0.30310142923E+03  0.91690103351E+02 0.  0.
         24    2    1    2    0    0 -0.82309265260E+02 -0.48881528273E+02  0.62174079629E+03  0.63435795443E+03  0.81756820024E+02 0.  0.
        -11    1    4    4    0    0 -0.15521928176E+02  0.13907725637E+02  0.36918093781E+02  0.42394583795E+02  0.00000000000E+00 0.  1.
         12    1    4    4    0    0 -0.66787337084E+02 -0.62789253911E+02  0.58482270251E+03  0.59196337064E+03  0.00000000000E+00 0. -1.
        -13    1    3    3    0    0  0.96517391314E+02  0.67255976933E+02 -0.23150069894E+03  0.25967584961E+03  0.00000000000E+00 0.  1.
         13    1    3    3    0    0  0.95111300493E+01 -0.25349101059E+02 -0.33952060998E+02  0.43425579620E+02  0.00000000000E+00 0. -1.
         21    1    1    2  502  501 -0.23719256103E+02  0.69746523996E+01 -0.15465698204E+02  0.29162247978E+02  0.00000000000E+00 0. -1.
<scales pt_clust_5="13000.00000" pt_clust_6="13000.00000" pt_clust_7="13000.00000" pt_clust_8="13000.00000" pt_clust_9="24.72345"></scales>
<clustering>
<clus scale="   24.723">  2  9  1 -1</clus>
<clus scale="   81.757">  5  6 -1 -1</clus>
<clus scale="   91.690">  7  8 -1 -1</clus>
<clus scale="  126.169">  1  5  2 -1</clus>
<clus scale="  126.169">  1  5  2 -1</clus>
</clustering>
</event>
<event>
 9    2  0.5684583E-005  0.3755653E+03  0.7546771E-02  0.1052866E+00
         -1   -1    0    0    0  501 -0.00000000000E+00  0.00000000000E+00  0.33486326435E+03  0.33486326435E+03  0.00000000000E+00 0.  1.
          2   -1    0    0  502    0  0.00000000000E+00 -0.00000000000E+00 -0.12078800564E+04  0.12078800564E+04  0.00000000000E+00 0. -1.
         24    2    1    2    0    0  0.20160844027E+03 -0.39286531863E+03 -0.19244602585E+03  0.48834103588E+03  0.80326662340E+02 0.  0.
         23    2    1    2    0    0 -0.22294240243E+03  0.26449138838E+03 -0.80076796115E+03  0.87725158748E+03  0.93177308419E+02 0.  0.
        -13    1    3    3    0    0  0.13902831468E+03 -0.29576274073E+03 -0.10436003354E+03  0.34306775961E+03  0.00000000000E+00 0.  1.
         14    1    3    3    0    0  0.62580125586E+02 -0.97102577906E+02 -0.88085992316E+02  0.14527327626E+03  0.00000000000E+00 0. -1.
        -13    1    4    4    0    0 -0.13996783632E+03  0.22269191007E+03 -0.63307479655E+03  0.68554093973E+03  0.00000000000E+00 0. -1.
         13    1    4    4    0    0 -0.82974566115E+02  0.41799478310E+02 -0.16769316460E+03  0.19171064776E+03  0.00000000000E+00 0.  1.
         21    1    1    2  502  501  0.21333962164E+02  0.12837393025E+03  0.12019719495E+03  0.17715069738E+03  0.00000000000E+00 0.  1.
<scales pt_clust_5="13000.00000" pt_clust_6="13000.00000" pt_clust_7="13000.00000" pt_clust_8="13000.00000" pt_clust_9="130.13456"></scales>
<clustering>
<clus scale="   80.327">  5  6 -1 -1</clus>
<clus scale="   93.177">  7  8 -1 -1</clus>
<clus scale="  130.135">  1  9  2 -1</clus>
<clus scale="  372.585">  1  5  2 -1</clus>
<clus scale="  375.565">  2  5  1 -1</clus>
</clustering>
</event>
<event>
 9    2  0.5684583E-005  0.9318102E+02  0.7546771E-02  0.1301650E+00
         -1   -1    0    0    0  501 -0.00000000000E+00  0.00000000000E+00  0.64844245196E+02  0.64844245196E+02  0.00000000000E+00 0.  1.
          2   -1    0    0  502    0  0.00000000000E+00 -0.00000000000E+00 -0.11872391334E+04  0.11872391334E+04  0.00000000000E+00 0. -1.
         23    2    1    2    0    0  0.12614555768E+02 -0.72951382528E+01 -0.46937977968E+02  0.10279894634E+03  0.90289000065E+02 0.  0.
         24    2    1    2    0    0  0.13443458603E+02  0.20317971676E+02 -0.11048012891E+04  0.11079358304E+04  0.79638993416E+02 0.  0.
        -11    1    4    4    0    0  0.11381345914E+02  0.19710793870E+02 -0.81129168080E+02  0.84261452297E+02  0.00000000000E+00 0.  1.
         12    1    4    4    0    0  0.20621126892E+01  0.60717780579E+00 -0.10236721211E+04  0.10236743781E+04  0.00000000000E+00 0. -1.
        -13    1    3    3    0    0  0.81011379504E+01  0.30655323836E+02 -0.55236689052E+02  0.63690416336E+02  0.00000000000E+00 0. -1.
         13    1    3    3    0    0  0.45134178174E+01 -0.37950462088E+02  0.82987110841E+01  0.39108530000E+02  0.00000000000E+00 0.  1.
         21    1    1    2  502  501 -0.26058014371E+02 -0.13022833423E+02  0.29344378892E+02  0.41348601861E+02  0.00000000000E+00 0.  1.
<scales pt_clust_5="13000.00000" pt_clust_6="13000.00000" pt_clust_7="13000.00000" pt_clust_8="13000.00000" pt_clust_9="29.13099"></scales>
<clustering>
<clus scale="   29.131">  1  9  2 -1</clus>
<clus scale="   79.639">  5  6 -1 -1</clus>
<clus scale="   82.903">  2  5  1 -1</clus>
<clus scale="   90.289">  7  8 -1 -1</clus>
<clus scale="   82.903">  2  5  1 -1</clus>
</clustering>
</event>
<event>
 9    2  0.5684583E-005  0.1536115E+03  0.7546771E-02  0.1197298E+00
          2   -1    0    0  502    0  0.00000000000E+00  0.00000000000E+00  0.34970401254E+03  0.34970401254E+03  0.00000000000E+00 0. -1.
         -1   -1    0    0    0  501 -0.00000000000E+00 -0.00000000000E+00 -0.38459831914E+03  0.38459831914E+03  0.00000000000E+00 0.  1.
         23    2    1    2    0    0  0.48019347049E+01 -0.12200784509E+03 -0.27097483371E+03  0.31114492945E+03  0.92058860409E+02 0.  0.
         24    2    1    2    0    0 -0.14707179678E+03  0.11909404980E+03  0.15779077179E+03  0.26074284117E+03  0.85295928699E+02 0.  0.
        -11    1    4    4    0    0 -0.11802976903E+03  0.12858757793E+03  0.11849668555E+03  0.21096742891E+03  0.00000000000E+00 0.  1.
         12    1    4    4    0    0 -0.29042027749E+02 -0.94935281266E+01  0.39294086240E+02  0.49775412258E+02  0.00000000000E+00 0. -1.
        -11    1    3    3    0    0  0.21901223915E+02 -0.35423341395E+02 -0.17857769536E+03  0.18336976306E+03  0.00000000000E+00 0.  1.
         11    1    3    3    0    0 -0.17099289210E+02 -0.86584503695E+02 -0.92397138350E+02  0.12777516639E+03  0.00000000000E+00 0. -1.
         21    1    1    2  502  501  0.14226986207E+03  0.29137952889E+01  0.78289755317E+02  0.16241456106E+03  0.00000000000E+00 0.  1.
<scales pt_clust_5="13000.00000" pt_clust_6="13000.00000" pt_clust_7="13000.00000" pt_clust_8="13000.00000" pt_clust_9="142.29970"></scales>
<clustering>
<clus scale="   85.296">  5  6 -1 -1</clus>
<clus scale="   92.059">  7  8 -1 -1</clus>
<clus scale="  142.300">  1  9  2 -1</clus>
<clus scale="  149.656">  1  5  2 -1</clus>
<clus scale="  142.300">  1  5  2 -1</clus>
</clustering>
</event>
<event>
 9    2  0.5684583E-005  0.1058330E+03  0.7546771E-02  0.1271589E+00
          2   -1    0    0  502    0  0.00000000000E+00  0.00000000000E+00  0.90377736010E+02  0.90377736010E+02  0.00000000000E+00 0. -1.
         -1   -1    0    0    0  501 -0.00000000000E+00 -0.00000000000E+00 -0.33935258060E+03  0.33935258060E+03  0.00000000000E+00 0.  1.
         23    2    1    2    0    0  0.24505249156E+02 -0.81399800122E+02 -0.12870252660E+03  0.17706785765E+03  0.86961204943E+02 0.  0.
         24    2    1    2    0    0  0.49384200250E+02  0.41881081331E+02  0.43291283599E+01  0.10250620600E+03  0.79347064903E+02 0.  0.
        -11    1    4    4    0    0 -0.22017750807E+02  0.10058720773E+02 -0.12891686534E+00  0.24206937720E+02  0.00000000000E+00 0.  1.
         12    1    4    4    0    0  0.71401951058E+02  0.31822360558E+02  0.44580452252E+01  0.78299268282E+02  0.00000000000E+00 0. -1.
        -13    1    3    3    0    0  0.39523032394E+02 -0.61170651083E+02 -0.13288063713E+03  0.15152947689E+03  0.00000000000E+00 0.  1.
         13    1    3    3    0    0 -0.15017783238E+02 -0.20229149039E+02  0.41781105313E+01  0.25538380760E+02  0.00000000000E+00 0. -1.
         21    1    1    2  502  501 -0.73889449406E+02  0.39518718791E+02 -0.12460144635E+03  0.15015625295E+03  0.00000000000E+00 0. -1.
<scales pt_clust_5="13000.00000" pt_clust_6="13000.00000" pt_clust_7="13000.00000" pt_clust_8="13000.00000" pt_clust_9="83.79367"></scales>
<clustering>
<clus scale="   79.347">  5  6 -1 -1</clus>
<clus scale="   83.794">  2  9  1 -1</clus>
<clus scale="   86.961">  7  8 -1 -1</clus>
<clus scale="   99.671">  1  5  2 -1</clus>
<clus scale="   99.671">  1  5  2 -1</clus>
</clustering>
</event>
<event>
 9    2  0.5684583E-005  0.1085574E+03  0.7546771E-02  0.1266779E+00
         -1   -1    0    0    0  501 -0.00000000000E+00  0.00000000000E+00  0.20449951948E+03  0.20449951948E+03  0.00000000000E+00 0.  1.
          2   -1    0    0  502    0  0.00000000000E+00 -0.00000000000E+00 -0.17095940430E+03  0.17095940430E+03  0.00000000000E+00 0. -1.
         23    2    1    2    0    0  0.80378638939E+01 -0.49485707887E+02 -0.85284799679E+01  0.10382397910E+03  0.90516524042E+02 0.  0.
         24    2    1    2    0    0  0.36920270462E+02  0.59818745267E+02 -0.84456879733E+02  0.13696237398E+03  0.81757805108E+02 0.  0.
        -13    1    4    4    0    0 -0.21246318895E+02  0.34949971653E+01 -0.23683704116E+01  0.21661723158E+02  0.00000000000E+00 0.  1.
         14    1    4    4    0    0  0.58166589357E+02  0.56323748101E+02 -0.82088509321E+02  0.11530065082E+03  0.00000000000E+00 0. -1.
        -13    1    3    3    0    0 -0.30636306507E+02 -0.47918160248E+02  0.14620446364E+02  0.58723852137E+02  0.00000000000E+00 0.  1.
         13    1    3    3    0    0  0.38674170401E+02 -0.15675476384E+01 -0.23148926332E+02  0.45100126963E+02  0.00000000000E+00 0. -1.
         21    1    1    2  502  501 -0.44958134356E+02 -0.10333037380E+02  0.12652547488E+03  0.13467257070E+03  0.00000000000E+00 0.  1.
<scales pt_clust_5="13000.00000" pt_clust_6="13000.00000" pt_clust_7="13000.00000" pt_clust_8="13000.00000" pt_clust_9="46.13031"></scales>
<clustering>
<clus scale="   46.130">  1  9  2 -1</clus>
<clus scale="   81.758">  5  6 -1 -1</clus>
<clus scale="   90.517">  7  8 -1 -1</clus>
<clus scale="  101.370">  2  5  1 -1</clus>
<clus scale="  101.370">  2  5  1 -1</clus>
</clustering>
</event>
<event>
 9    2  0.5684583E-005  0.9118676E+02  0.7546771E-02  0.1306242E+00
          2   -1    0    0  502    0  0.00000000000E+00  0.00000000000E+00  0.67921994756E+03  0.67921994756E+03  0.00000000000E+00 0. -1.
         -1   -1    0    0    0  501 -0.00000000000E+00 -0.00000000000E+00 -0.37056822979E+02  0.37056822979E+02  0.00000000000E+00 0.  1.
         23    2    1    2    0    0  0.19027228756E+02 -0.92200057771E+01  0.44047095650E+02  0.10216961888E+03  0.89729819153E+02 0.  0.
         24    2    1    2    0    0 -0.11553240495E+02 -0.12646067028E+02  0.57723793805E+03  0.58296425008E+03  0.79688640143E+02 0.  0.
        -13    1    4    4    0    0  0.21541356203E+02 -0.11481137805E+02  0.61542765539E+02  0.66206937269E+02  0.00000000000E+00 0.  1.
         14    1    4    4    0    0 -0.33094596698E+02 -0.11649292229E+01  0.51569517251E+03  0.51675731281E+03  0.00000000000E+00 0. -1.
        -13    1    3    3    0    0  0.27520929087E+02  0.13337899762E+02 -0.18082204652E+02  0.35528400372E+02  0.00000000000E+00 0.  1.
         13    1    3    3    0    0 -0.84937003306E+01 -0.22557905539E+02  0.62129300302E+02  0.66641218504E+02  0.00000000000E+00 0. -1.
         21    1    1    2  502  501 -0.74739882616E+01  0.21866072805E+02  0.20878090886E+02  0.31142901591E+02  0.00000000000E+00 0.  1.
<scales pt_clust_5="13000.00000" pt_clust_6="13000.00000" pt_clust_7="13000.00000" pt_clust_8="13000.00000" pt_clust_9="23.10813"></scales>
<clustering>
<clus scale="   23.108">  2  9  1 -1</clus>
<clus scale="   79.689">  5  6 -1 -1</clus>
<clus scale="   81.326">  1  5  2 -1</clus>
<clus scale="   89.730">  7  8 -1 -1</clus>
<clus scale="   81.326">  1  5  2 -1</clus>
</clustering>
</event>
<event>
 9    2  0.5684583E-005  0.9894866E+02  0.7546771E-02  0.1285323E+00
         -1   -1    0    0    0  501 -0.00000000000E+00  0.00000000000E+00  0.33573458572E+03  0.33573458572E+03  0.00000000000E+00 0.  1.
          2   -1    0    0  502    0  0.00000000000E+00 -0.00000000000E+00 -0.92039797221E+02  0.92039797221E+02  0.00000000000E+00 0. -1.
         24    2    1    2    0    0  0.46433857808E+01  0.27254942400E+02  0.21397646378E+03  0.23180212883E+03  0.84746132430E+02 0.  0.
         23    2    1    2    0    0  0.15780730576E+02 -0.39529249390E+02 -0.50755949336E+02  0.11204423778E+03  0.90366762758E+02 0.  0.
        -11    1    3    3    0    0 -0.30247108578E+02  0.78270788836E+00  0.15725840508E+03  0.16014276810E+03  0.00000000000E+00 0.  1.
         12    1    3    3    0    0  0.34890494359E+02  0.26472234511E+02  0.56718058708E+02  0.71659360731E+02  0.00000000000E+00 0. -1.
        -11    1    4    4    0    0  0.51003014481E+02 -0.70792583139E+01 -0.31910715102E+02  0.60578190157E+02  0.00000000000E+00 0. -1.
         11    1    4    4    0    0 -0.35222283905E+02 -0.32449991076E+02 -0.18845234235E+02  0.51466047621E+02  0.00000000000E+00 0.  1.
         21    1    1    2  502  501 -0.20424116357E+02  0.12274306990E+02  0.80474274055E+02  0.83928016333E+02  0.00000000000E+00 0.  1.
<scales pt_clust_5="13000.00000" pt_clust_6="13000.00000" pt_clust_7="13000.00000" pt_clust_8="13000.00000" pt_clust_9="23.82862"></scales>
<clustering>
<clus scale="   23.829">  1  9  2 -1</clus>
<clus scale="   84.746">  5  6 -1 -1</clus>
<clus scale="   90.367">  7  8 -1 -1</clus>
<clus scale="   93.843">  1  5  2 -1</clus>
<clus scale="   98.949">  2  5  1 -1</clus>
</clustering>
</event>
<event>
 9    2  0.5684583E-005  0.9430544E+02  0.7546771E-02  0.1294756E+00
          2   -1    0    0  502    0  0.00000000000E+00  0.00000000000E+00  0.14109376545E+03  0.14109376545E+03  0.00000000000E+00 0. -1.
         -1   -1    0    0    0  501 -0.00000000000E+00 -0.00000000000E+00 -0.92573457336E+02  0.92573457336E+02  0.00000000000E+00 0.  1.
         23    2    1    2    0    0  0.29517499745E+02 -0.20976151913E+02 -0.25012498086E+01  0.98299894046E+02  0.91352784186E+02 0.  0.
         24    2    1    2    0    0 -0.11557350306E+02 -0.10459439448E+02  0.37621927121E+02  0.96762750287E+02  0.87776125587E+02 0.  0.
        -11    1    4    4    0    0  0.20908419372E+02  0.14235206813E+02 -0.15591884980E+02  0.29713801353E+02  0.00000000000E+00 0.  1.
         12    1    4    4    0    0 -0.32465769678E+02 -0.24694646261E+02  0.53213812101E+02  0.67048948933E+02  0.00000000000E+00 0. -1.
        -13    1    3    3    0    0 -0.23698313775E+02  0.12843706039E+02  0.17515190999E+02  0.32145804957E+02  0.00000000000E+00 0. -1.
         13    1    3    3    0    0  0.53215813521E+02 -0.33819857952E+02 -0.20016440808E+02  0.66154089089E+02  0.00000000000E+00 0.  1.
         21    1    1    2  502  501 -0.17960149439E+02  0.31435591361E+02  0.13399630805E+02  0.38604578457E+02  0.00000000000E+00 0.  1.
<scales pt_clust_5="13000.00000" pt_clust_6="13000.00000" pt_clust_7="13000.00000" pt_clust_8="13000.00000" pt_clust_9="36.20447"></scales>
<clustering>
<clus scale="   36.204">  1  9  2 -1</clus>
<clus scale="   87.776">  5  6 -1 -1</clus>
<clus scale="   90.845">  1  5  2 -1</clus>
<clus scale="   91.353">  7  8 -1 -1</clus>
<clus scale="   36.204">  1  5  2 -1</clus>
</clustering>
</event>
<event>
 9    2  0.5684583E-005  0.1214985E+03  0.7546771E-02  0.1243715E+00
          2   -1    0    0  502    0  0.00000000000E+00  0.00000000000E+00  0.37732249824E+03  0.37732249824E+03  0.00000000000E+00 0. -1.
         -1   -1    0    0    0  501 -0.00000000000E+00 -0.00000000000E+00 -0.54211604279E+02  0.54211604279E+02  0.00000000000E+00 0.  1.
         24    2    1    2    0    0  0.65911496965E+02 -0.27146538099E+02  0.81773723618E+02  0.13496669272E+03  0.80298233521E+02 0.  0.
         23    2    1    2    0    0 -0.89186800189E+02  0.28998226066E+01  0.22679771950E+03  0.25994721615E+03  0.90402739521E+02 0.  0.
        -13    1    3    3    0    0  0.79407850591E+02 -0.28683851463E+01  0.63523861167E+02  0.10173060162E+03  0.00000000000E+00 0.  1.
         14    1    3    3    0    0 -0.13496353626E+02 -0.24278152952E+02  0.18249862451E+02  0.33236091098E+02  0.00000000000E+00 0. -1.
        -11    1    4    4    0    0 -0.76531746506E+02  0.29674989096E+02  0.98222392524E+02  0.12800527956E+03  0.00000000000E+00 0.  1.
         11    1    4    4    0    0 -0.12655053683E+02 -0.26775166489E+02  0.12857532698E+03  0.13194193659E+03  0.00000000000E+00 0. -1.
         21    1    1    2  502  501  0.23275303225E+02  0.24246715492E+02  0.14539450842E+02  0.36620193652E+02  0.00000000000E+00 0. -1.
<scales pt_clust_5="13000.00000" pt_clust_6="13000.00000" pt_clust_7="13000.00000" pt_clust_8="13000.00000" pt_clust_9="33.61016"></scales>
<clustering>
<clus scale="   33.610">  2  9  1 -1</clus>
<clus scale="   80.298">  5  6 -1 -1</clus>
<clus scale="   90.403">  7  8 -1 -1</clus>
<clus scale="  114.180">  2  5  1 -1</clus>
<clus scale="  121.499">  1  5  2 -1</clus>
</clustering>
</event>
<event>
 9    2  0.5684583E-005  0.1105204E+03  0.7546771E-02  0.1264553E+00
          2   -1    0    0  502    0  0.00000000000E+00  0.00000000000E+00  0.49902552851E+02  0.49902552851E+02  0.00000000000E+00 0. -1.
         -1   -1    0    0    0  501 -0.00000000000E+00 -0.00000000000E+00 -0.97623464069E+03  0.97623464069E+03  0.00000000000E+00 0.  1.
         23    2    1    2    0    0 -0.42691842218E+02  0.85307268118E+02 -0.63890538835E+03  0.65264152806E+03  0.92956686144E+02 0.  0.
         24    2    1    2    0    0  0.48943821233E+02 -0.30339685737E+02 -0.20796914720E+02  0.10118708229E+03  0.80562521018E+02 0.  0.
        -11    1    4    4    0    0  0.61504492336E+02 -0.23836740956E+02 -0.40146752931E+02  0.77218874427E+02  0.00000000000E+00 0.  1.
         12    1    4    4    0    0 -0.12560671103E+02 -0.65029447814E+01  0.19349838210E+02  0.23968207862E+02  0.00000000000E+00 0. -1.
        -11    1    3    3    0    0 -0.66697722126E+02  0.34314247261E+02 -0.41688867163E+03  0.42358259907E+03  0.00000000000E+00 0.  1.
         11    1    3    3    0    0  0.24005879908E+02  0.50993020857E+02 -0.22201671673E+03  0.22905892899E+03  0.00000000000E+00 0. -1.
         21    1    1    2  502  501 -0.62519790154E+01 -0.54967582380E+02 -0.26662978477E+03  0.27230858319E+03  0.00000000000E+00 0. -1.
<scales pt_clust_5="13000.00000" pt_clust_6="13000.00000" pt_clust_7="13000.00000" pt_clust_8="13000.00000" pt_clust_9="55.32199"></scales>
<clustering>
<clus scale="   55.322">  2  9  1 -1</clus>
<clus scale="   80.563">  5  6 -1 -1</clus>
<clus scale="   92.957">  7  8 -1 -1</clus>
<clus scale="  100.320">  1  5  2 -1</clus>
<clus scale="  100.320">  1  5  2 -1</clus>
</clustering>
</event>
<event>
 9    2  0.5684583E-005  0.1073487E+03  0.7546771E-02  0.1269383E+00
         -1   -1    0    0    0  501 -0.00000000000E+00  0.00000000000E+00  0.91957943874E+02  0.91957943874E+02  0.00000000000E+00 0.  1.
          2   -1    0    0  502    0  0.00000000000E+00 -0.00000000000E+00 -0.40529180279E+03  0.40529180279E+03  0.00000000000E+00 0. -1.
         23    2    1    2    0    0  0.37683583299E+02  0.17439835466E+02 -0.72662245987E+02  0.12413860079E+03  0.91686367045E+02 0.  0.
         24    2    1    2    0    0 -0.58394689674E+02 -0.16769515524E+02 -0.29641606303E+03  0.31363978325E+03  0.82560733901E+02 0.  0.
        -13    1    4    4    0    0 -0.22179776264E+02 -0.22879583743E+02 -0.27099727988E+02  0.41830767198E+02  0.00000000000E+00 0.  1.
         14    1    4    4    0    0 -0.36214913410E+02  0.61100682187E+01 -0.26931633504E+03  0.27180901605E+03  0.00000000000E+00 0. -1.
        -13    1    3    3    0    0  0.19988282083E+02 -0.17541561985E+02 -0.79956754631E+02  0.84263399105E+02  0.00000000000E+00 0. -1.
         13    1    3    3    0    0  0.17695301217E+02  0.34981397450E+02  0.72945086448E+01  0.39875201681E+02  0.00000000000E+00 0.  1.
         21    1    1    2  502  501  0.20711106374E+02 -0.67031994134E+00  0.55744450100E+02  0.59471362629E+02  0.00000000000E+00 0.  1.
<scales pt_clust_5="13000.00000" pt_clust_6="13000.00000" pt_clust_7="13000.00000" pt_clust_8="13000.00000" pt_clust_9="20.72195"></scales>
<clustering>
<clus scale="   20.722">  1  9  2 -1</clus>
<clus scale="   82.561">  5  6 -1 -1</clus>
<clus scale="   91.686">  7  8 -1 -1</clus>
<clus scale="   99.668">  2  5  1 -1</clus>
<clus scale="   99.668">  2  5  1 -1</clus>
</clustering>
</event>
<event>
 9    2  0.5684583E-005  0.1955038E+03  0.7546771E-02  0.1154229E+00
         -1   -1    0    0    0  501 -0.00000000000E+00  0.00000000000E+00  0.63851911331E+02  0.63851911331E+02  0.00000000000E+00 0.  1.
          2   -1    0    0  502    0  0.00000000000E+00 -0.00000000000E+00 -0.99549008246E+03  0.99549008246E+03  0.00000000000E+00 0. -1.
         24    2    1    2    0    0 -0.46165344658E+02  0.17327306713E+03 -0.18252628235E+03  0.26837359901E+03  0.80955234906E+02 0.  0.
         23    2    1    2    0    0 -0.11510178251E+02 -0.18081526239E+03 -0.58904896175E+03  0.62066428073E+03  0.73612680403E+02 0.  0.
        -13    1    3    3    0    0 -0.36222097637E+02  0.18021225391E+03 -0.16466467687E+03  0.24678523584E+03  0.00000000000E+00 0.  1.
         14    1    3    3    0    0 -0.99432470204E+01 -0.69391867804E+01 -0.17861605473E+02  0.21588363175E+02  0.00000000000E+00 0. -1.
        -13    1    4    4    0    0  0.19035883381E+02 -0.98312885233E+01 -0.52549812634E+02  0.56749466059E+02  0.00000000000E+00 0.  1.
         13    1    4    4    0    0 -0.30546061633E+02 -0.17098397387E+03 -0.53649914912E+03  0.56391481467E+03  0.00000000000E+00 0. -1.
         21    1    1    2  502  501  0.57675522909E+02  0.75421952633E+01 -0.16006292703E+03  0.17030411405E+03  0.00000000000E+00 0. -1.
<scales pt_clust_5="13000.00000" pt_clust_6="13000.00000" pt_clust_7="13000.00000" pt_clust_8="13000.00000" pt_clust_9="58.16658"></scales>
<clustering>
<clus scale="   58.167">  2  9  1 -1</clus>
<clus scale="   73.613">  7  8 -1 -1</clus>
<clus scale="   80.955">  5  6 -1 -1</clus>
<clus scale="  192.579">  2  7  1 -1</clus>
<clus scale="   58.167">  2  5  1 -1</clus>
</clustering>
</event>
<event>
 9    2  0.5684583E-005  0.1183317E+03  0.7546771E-02  0.1250166E+00
          2   -1    0    0  502    0  0.00000000000E+00  0.00000000000E+00  0.31533187952E+03  0.31533187952E+03  0.00000000000E+00 0. -1.
         -1   -1    0    0    0  501 -0.00000000000E+00 -0.00000000000E+00 -0.55116498075E+02  0.55116498075E+02  0.00000000000E+00 0.  1.
         24    2    1    2    0    0  0.11544634331E+02  0.65361425928E+02  0.70305953730E+02  0.12568043359E+03  0.80294767424E+02 0.  0.
         23    2    1    2    0    0  0.15053481087E+02 -0.78521094004E+02  0.16728132694E+03  0.20744948273E+03  0.93059529576E+02 0.  0.
        -11    1    3    3    0    0 -0.24883605392E+02  0.62785054027E+02  0.42723200001E+02  0.79915134016E+02  0.00000000000E+00 0.  1.
         12    1    3    3    0    0  0.36428239724E+02  0.25763719003E+01  0.27582753729E+02  0.45765299571E+02  0.00000000000E+00 0. -1.
        -13    1    4    4    0    0 -0.34765599402E+02 -0.38473117914E+02  0.11003930361E+03  0.12164487677E+03  0.00000000000E+00 0.  1.
         13    1    4    4    0    0  0.49819080488E+02 -0.40047976090E+02  0.57242023323E+02  0.85804605959E+02  0.00000000000E+00 0. -1.
         21    1    1    2  502  501 -0.26598115418E+02  0.13159668076E+02  0.22628100779E+02  0.37318461283E+02  0.00000000000E+00 0.  1.
<scales pt_clust_5="13000.00000" pt_clust_6="13000.00000" pt_clust_7="13000.00000" pt_clust_8="13000.00000" pt_clust_9="29.67552"></scales>
<clustering>
<clus scale="   29.676">  2  9  1 -1</clus>
<clus scale="   80.295">  5  6 -1 -1</clus>
<clus scale="   93.060">  7  8 -1 -1</clus>
<clus scale="  108.580">  2  5  1 -1</clus>
<clus scale="  118.332">  1  5  2 -1</clus>
</clustering>
</event>
<event>
 9    2  0.5684583E-005  0.1203100E+03  0.7546771E-02  0.1242729E+00
         -1   -1    0    0    0  501 -0.00000000000E+00  0.00000000000E+00  0.33939776525E+03  0.33939776525E+03  0.00000000000E+00 0.  1.
          2   -1    0    0  502    0  0.00000000000E+00 -0.00000000000E+00 -0.15082868606E+03  0.15082868606E+03  0.00000000000E+00 0. -1.
         24    2    1    2    0    0  0.95834366652E+02  0.10334323799E+02  0.26164800493E+03  0.29331904812E+03  0.91023960743E+02 0.  0.
         23    2    1    2    0    0 -0.75040153431E+02  0.19011051392E+02 -0.97065175417E+02  0.15367673674E+03  0.90567358541E+02 0.  0.
        -11    1    3    3    0    0  0.11303737373E+03  0.14992343066E+02  0.23578506614E+03  0.26190993800E+03  0.00000000000E+00 0.  1.
         12    1    3    3    0    0 -0.17203007074E+02 -0.46580192672E+01  0.25862938787E+02  0.31409110121E+02  0.00000000000E+00 0. -1.
        -11    1    4    4    0    0 -0.62437713886E+02  0.38233786816E+02 -0.10615917768E+03  0.12895759604E+03  0.00000000000E+00 0. -1.
         11    1    4    4    0    0 -0.12602439545E+02 -0.19222735423E+02  0.90940022655E+01  0.24719140698E+02  0.00000000000E+00 0.  1.
         21    1    1    2  502  501 -0.20794213221E+02 -0.29345375191E+02  0.23986249672E+02  0.43230666453E+02  0.00000000000E+00 0.  1.
<scales pt_clust_5="13000.00000" pt_clust_6="13000.00000" pt_clust_7="13000.00000" pt_clust_8="13000.00000" pt_clust_9="35.96596"></scales>
<clustering>
<clus scale="   35.966">  1  9  2 -1</clus>
<clus scale="   90.567">  7  8 -1 -1</clus>
<clus scale="   91.024">  5  6 -1 -1</clus>
<clus scale="  119.965">  2  7  1 -1</clus>
<clus scale="  119.965">  2  5  1 -1</clus>
</clustering>
</event>
<event>
 9    2  0.5684583E-005  0.9808632E+02  0.7546771E-02  0.1290755E+00
          2   -1    0    0  502    0  0.00000000000E+00  0.00000000000E+00  0.10449454477E+04  0.10449454477E+04  0.00000000000E+00 0. -1.
         -1   -1    0    0    0  501 -0.00000000000E+00 -0.00000000000E+00 -0.67100669429E+02  0.67100669429E+02  0.00000000000E+00 0.  1.
         23    2    1    2    0    0  0.30217242113E+02  0.30238661465E+02  0.21715499173E+03  0.23897339953E+03  0.90136212914E+02 0.  0.
         24    2    1    2    0    0 -0.40202382417E+02  0.12594836074E+02  0.80545820251E+03  0.81031427108E+03  0.77919448556E+02 0.  0.
        -13    1    4    4    0    0 -0.77559315232E+01  0.26815469232E+02  0.96103259016E+02  0.10007527296E+03  0.00000000000E+00 0.  1.
         14    1    4    4    0    0 -0.32446450894E+02 -0.14220633158E+02  0.70935494350E+03  0.71023899812E+03  0.00000000000E+00 0. -1.
        -13    1    3    3    0    0  0.43200018367E+02  0.12187934940E+01  0.39670530687E+02  0.58664112108E+02  0.00000000000E+00 0.  1.
         13    1    3    3    0    0 -0.12982776254E+02  0.29019867971E+02  0.17748446105E+03  0.18030928742E+03  0.00000000000E+00 0. -1.
         21    1    1    2  502  501  0.99851403042E+01 -0.42833497539E+02 -0.44768415991E+02  0.62758446513E+02  0.00000000000E+00 0.  1.
<scales pt_clust_5="13000.00000" pt_clust_6="13000.00000" pt_clust_7="13000.00000" pt_clust_8="13000.00000" pt_clust_9="43.98195"></scales>
<clustering>
<clus scale="   43.982">  2  9  1 -1</clus>
<clus scale="   77.919">  5  6 -1 -1</clus>
<clus scale="   86.993">  1  5  2 -1</clus>
<clus scale="   90.136">  7  8 -1 -1</clus>
<clus scale="   86.993">  1  5  2 -1</clus>
</clustering>
</event>
<event>
 9    2  0.5684583E-005  0.1220787E+03  0.7546771E-02  0.1242564E+00
         -1   -1    0    0    0  501 -0.00000000000E+00  0.00000000000E+00  0.25143872621E+03  0.25143872621E+03  0.00000000000E+00 0.  1.
          2   -1    0    0  502    0  0.00000000000E+00 -0.00000000000E+00 -0.31436577533E+03  0.31436577533E+03  0.00000000000E+00 0. -1.
         23    2    1    2    0    0  0.15971118332E+02 -0.25294287642E+02  0.11605596194E+03  0.14962489733E+03  0.89575364870E+02 0.  0.
         24    2    1    2    0    0  0.67340559737E+02  0.43525543404E+02 -0.26578620687E+03  0.29449144048E+03  0.98253126364E+02 0.  0.
        -11    1    4    4    0    0  0.74055080264E+02  0.15577948976E+02 -0.95758052393E+02  0.12205094021E+03  0.00000000000E+00 0.  1.
         12    1    4    4    0    0 -0.67145205271E+01  0.27947594428E+02 -0.17002815448E+03  0.17244050028E+03  0.00000000000E+00 0. -1.
        -13    1    3    3    0    0  0.33789645613E+02  0.24291762216E+02  0.55171468358E+02  0.69106590011E+02  0.00000000000E+00 0. -1.
         13    1    3    3    0    0 -0.17818527281E+02 -0.49586049858E+02  0.60884493581E+02  0.80518307320E+02  0.00000000000E+00 0.  1.
         21    1    1    2  502  501 -0.83311678069E+02 -0.18231255762E+02  0.86803195810E+02  0.12168816373E+03  0.00000000000E+00 0.  1.
<scales pt_clust_5="13000.00000" pt_clust_6="13000.00000" pt_clust_7="13000.00000" pt_clust_8="13000.00000" pt_clust_9="85.28314"></scales>
<clustering>
<clus scale="   85.283">  1  9  2 -1</clus>
<clus scale="   89.575">  7  8 -1 -1</clus>
<clus scale="   98.253">  5  6 -1 -1</clus>
<clus scale="  115.210">  1  7  2 -1</clus>
<clus scale="  122.079">  2  5  1 -1</clus>
</clustering>
</event>
<event>
 9    2  0.5684583E-005  0.1310690E+03  0.7546771E-02  0.1228604E+00
          2   -1    0    0  502    0  0.00000000000E+00  0.00000000000E+00  0.23935731588E+03  0.23935731588E+03  0.00000000000E+00 0. -1.
         -1   -1    0    0    0  501 -0.00000000000E+00 -0.00000000000E+00 -0.11610251346E+03  0.11610251346E+03  0.00000000000E+00 0.  1.
         24    2    1    2    0    0 -0.92068804698E+02 -0.57128231705E+02  0.14911242655E+02  0.13459322900E+03  0.78439100454E+02 0.  0.
         23    2    1    2    0    0  0.63708074622E+02  0.65490284335E+02  0.13144490063E+03  0.18334424854E+03  0.89384872646E+02 0.  0.
        -11    1    3    3    0    0 -0.95449141746E+02 -0.67903865187E+02  0.24622586562E+02  0.11969856029E+03  0.00000000000E+00 0.  1.
         12    1    3    3    0    0  0.33803370481E+01  0.10775633482E+02 -0.97113439077E+01  0.14894668710E+02  0.00000000000E+00 0. -1.
        -13    1    4    4    0    0  0.67568249795E+02  0.63311683833E+01  0.60768289271E+02  0.91095208734E+02  0.00000000000E+00 0.  1.
         13    1    4    4    0    0 -0.38601751729E+01  0.59159115952E+02  0.70676611357E+02  0.92249039807E+02  0.00000000000E+00 0. -1.
         21    1    1    2  502  501  0.28360730076E+02 -0.83620526297E+01 -0.23101340857E+02  0.37522351793E+02  0.00000000000E+00 0. -1.
<scales pt_clust_5="13000.00000" pt_clust_6="13000.00000" pt_clust_7="13000.00000" pt_clust_8="13000.00000" pt_clust_9="29.56780"></scales>
<clustering>
<clus scale="   29.568">  2  9  1 -1</clus>
<clus scale="   78.439">  5  6 -1 -1</clus>
<clus scale="   89.385">  7  8 -1 -1</clus>
<clus scale="  123.863">  2  5  1 -1</clus>
<clus scale="  131.069">  1  5  2 -1</clus>
</clustering>
</event>
<event>
 9    2  0.5684583E-005  0.1036564E+03  0.7546771E-02  0.1278254E+00
         -1   -1    0    0    0  501 -0.00000000000E+00  0.00000000000E+00  0.32118148114E+03  0.32118148114E+03  0.00000000000E+00 0.  1.
          2   -1    0    0  502    0  0.00000000000E+00 -0.00000000000E+00 -0.10273886150E+03  0.10273886150E+03  0.00000000000E+00 0. -1.
         23    2    1    2    0    0 -0.71562284112E+01 -0.15965966660E+02  0.19500921325E+03  0.21682350061E+03  0.93154245583E+02 0.  0.
         24    2    1    2    0    0  0.46831715024E+02  0.16537227411E+02 -0.61356136083E+02  0.11348200831E+03  0.81528530916E+02 0.  0.
        -13    1    4    4    0    0  0.93576854093E+01  0.23366628880E+02  0.14176322348E+02  0.28888297575E+02  0.00000000000E+00 0.  1.
         14    1    4    4    0    0  0.37474029615E+02 -0.68294014695E+01 -0.75532458431E+02  0.84593710739E+02  0.00000000000E+00 0. -1.
        -13    1    3    3    0    0 -0.39644524137E+02 -0.38485099867E+02  0.11423624043E+03  0.12689645319E+03  0.00000000000E+00 0.  1.
         13    1    3    3    0    0  0.32488295726E+02  0.22519133207E+02  0.80772972822E+02  0.89927047422E+02  0.00000000000E+00 0. -1.
         21    1    1    2  502  501 -0.39675486613E+02 -0.57126075112E+00  0.84789542473E+02  0.93614833705E+02  0.00000000000E+00 0.  1.
<scales pt_clust_5="13000.00000" pt_clust_6="13000.00000" pt_clust_7="13000.00000" pt_clust_8="13000.00000" pt_clust_9="39.67960"></scales>
<clustering>
<clus scale="   39.680">  1  9  2 -1</clus>
<clus scale="   81.529">  5  6 -1 -1</clus>
<clus scale="   93.154">  7  8 -1 -1</clus>
<clus scale="   93.348">  2  5  1 -1</clus>
<clus scale="   93.348">  2  5  1 -1</clus>
</clustering>
</event>
<event>
 9    2  0.5684583E-005  0.1010887E+03  0.7546771E-02  0.1283270E+00
         -1   -1    0    0    0  501 -0.00000000000E+00  0.00000000000E+00  0.50839615642E+02  0.50839615642E+02  0.00000000000E+00 0.  1.
          2   -1    0    0  502    0  0.00000000000E+00 -0.00000000000E+00 -0.56166273737E+03  0.56166273737E+03  0.00000000000E+00 0. -1.
         23    2    1    2    0    0 -0.27359508189E+02 -0.40221345676E+02 -0.54325524839E+02  0.11659431454E+03  0.90976217756E+02 0.  0.
         24    2    1    2    0    0  0.39768054737E+02  0.19338440510E+02 -0.46201250700E+03  0.47099856259E+03  0.80178649754E+02 0.  0.
        -13    1    4    4    0    0  0.85525979388E+01 -0.31060246255E+02 -0.17129692347E+03  0.17430009128E+03  0.00000000000E+00 0.  1.
         14    1    4    4    0    0  0.31215456799E+02  0.50398686765E+02 -0.29071558353E+03  0.29669847131E+03  0.00000000000E+00 0. -1.
        -13    1    3    3    0    0 -0.16641178944E+02  0.15645119915E+02  0.14689881328E+02  0.27156789708E+02  0.00000000000E+00 0.  1.
         13    1    3    3    0    0 -0.10718329244E+02 -0.55866465590E+02 -0.69015406167E+02  0.89437524830E+02  0.00000000000E+00 0. -1.
         21    1    1    2  502  501 -0.12408546549E+02  0.20882905166E+02  0.55149101075E+01  0.24909475890E+02  0.00000000000E+00 0. -1.
<scales pt_clust_5="13000.00000" pt_clust_6="13000.00000" pt_clust_7="13000.00000" pt_clust_8="13000.00000" pt_clust_9="24.29131"></scales>
<clustering>
<clus scale="   24.291">  1  9  2 -1</clus>
<clus scale="   80.179">  5  6 -1 -1</clus>
<clus scale="   90.976">  7  8 -1 -1</clus>
<clus scale="   91.492">  2  5  1 -1</clus>
<clus scale="   91.492">  2  5  1 -1</clus>
</clustering>
</event>
<event>
 9    2  0.5684583E-005  0.9880303E+02  0.7546771E-02  0.1289094E+00
          2   -1    0    0  502    0  0.00000000000E+00  0.00000000000E+00  0.14763967844E+03  0.14763967844E+03  0.00000000000E+00 0. -1.
         -1   -1    0    0    0  501 -0.00000000000E+00 -0.00000000000E+00 -0.14968772045E+03  0.14968772045E+03  0.00000000000E+00 0.  1.
         24    2    1    2    0    0 -0.72736840639E+01 -0.50629498580E+02 -0.65339409722E+02  0.11451117600E+03  0.78913359830E+02 0.  0.
         23    2    1    2    0    0  0.40616289305E+02  0.10342655195E+02  0.79688611602E+02  0.12801085197E+03  0.90993680710E+02 0.  0.
        -11    1    3    3    0    0 -0.35954201464E+02 -0.30220013506E+00 -0.21815126285E+02  0.42055863594E+02  0.00000000000E+00 0.  1.
         12    1    3    3    0    0  0.28680517400E+02 -0.50327298445E+02 -0.43524283437E+02  0.72455312406E+02  0.00000000000E+00 0. -1.
        -11    1    4    4    0    0  0.12610385680E+02 -0.34352510934E+02  0.62700496229E+02  0.72597996266E+02  0.00000000000E+00 0. -1.
         11    1    4    4    0    0  0.28005903625E+02  0.44695166129E+02  0.16988115373E+02  0.55412855702E+02  0.00000000000E+00 0.  1.
         21    1    1    2  502  501 -0.33342605241E+02  0.40286843385E+02 -0.16397243895E+02  0.54805370919E+02  0.00000000000E+00 0.  1.
<scales pt_clust_5="13000.00000" pt_clust_6="13000.00000" pt_clust_7="13000.00000" pt_clust_8="13000.00000" pt_clust_9="52.29492"></scales>
<clustering>
<clus scale="   52.295">  2  9  1 -1</clus>
<clus scale="   78.913">  5  6 -1 -1</clus>
<clus scale="   87.804">  2  5  1 -1</clus>
<clus scale="   90.994">  7  8 -1 -1</clus>
<clus scale="   98.803">  1  5  2 -1</clus>
</clustering>
</event>
<event>
 9    2  0.5684583E-005  0.1130339E+03  0.7546771E-02  0.1258805E+00
          2   -1    0    0  502    0  0.00000000000E+00  0.00000000000E+00  0.19586048506E+03  0.19586048506E+03  0.00000000000E+00 0. -1.
         -1   -1    0    0    0  501 -0.00000000000E+00 -0.00000000000E+00 -0.16157873536E+03  0.16157873536E+03  0.00000000000E+00 0.  1.
         23    2    1    2    0    0  0.31162445900E+02 -0.10995574300E+03 -0.10728510561E+02  0.14610122854E+03  0.90383099012E+02 0.  0.
         24    2    1    2    0    0  0.84932039925E+01  0.56126440182E+02  0.88030205608E+02  0.13183402903E+03  0.80053621456E+02 0.  0.
        -13    1    4    4    0    0  0.32313408087E+02 -0.26976997672E+01  0.17107350131E+02  0.36661906044E+02  0.00000000000E+00 0.  1.
         14    1    4    4    0    0 -0.23820204095E+02  0.58824139950E+02  0.70922855477E+02  0.95172122982E+02  0.00000000000E+00 0. -1.
        -11    1    3    3    0    0  0.42469061862E+02 -0.89163480842E+02 -0.41630802716E+02  0.10717682243E+03  0.00000000000E+00 0.  1.
         11    1    3    3    0    0 -0.11306615961E+02 -0.20792262163E+02  0.30902292156E+02  0.38924406107E+02  0.00000000000E+00 0. -1.
         21    1    1    2  502  501 -0.39655649893E+02  0.53829302823E+02 -0.43019945347E+02  0.79503962848E+02  0.00000000000E+00 0.  1.
<scales pt_clust_5="13000.00000" pt_clust_6="13000.00000" pt_clust_7="13000.00000" pt_clust_8="13000.00000" pt_clust_9="66.85929"></scales>
<clustering>
<clus scale="   66.859">  2  9  1 -1</clus>
<clus scale="   80.054">  5  6 -1 -1</clus>
<clus scale="   90.383">  7  8 -1 -1</clus>
<clus scale="  104.958">  1  5  2 -1</clus>
<clus scale="  104.958">  1  5  2 -1</clus>
</clustering>
</event>
<event>
 9    2  0.5684583E-005  0.9507226E+02  0.7546771E-02  0.1300377E+00
          2   -1    0    0  502    0  0.00000000000E+00  0.00000000000E+00  0.27974385606E+03  0.27974385606E+03  0.00000000000E+00 0. -1.
         -1   -1    0    0    0  501 -0.00000000000E+00 -0.00000000000E+00 -0.32410986991E+03  0.32410986991E+03  0.00000000000E+00 0.  1.
         24    2    1    2    0    0  0.61100896955E+02 -0.13664731261E+02 -0.17290483678E+03  0.19786202938E+03  0.73029142124E+02 0.  0.
         23    2    1    2    0    0  0.11567473573E+02 -0.19562804449E+02  0.24597788819E+03  0.26394700203E+03  0.92985959382E+02 0.  0.
        -11    1    3    3    0    0  0.38337074917E+02  0.85420877927E+01 -0.15787549584E+03  0.16268795519E+03  0.00000000000E+00 0.  1.
         12    1    3    3    0    0  0.22763822038E+02 -0.22206819054E+02 -0.15029340946E+02  0.35174074196E+02  0.00000000000E+00 0. -1.
        -13    1    4    4    0    0 -0.17677115688E+02 -0.45908612561E+02  0.84837005736E+02  0.98068336728E+02  0.00000000000E+00 0.  1.
         13    1    4    4    0    0  0.29244589261E+02  0.26345808112E+02  0.16114088245E+03  0.16587866531E+03  0.00000000000E+00 0. -1.
         21    1    1    2  502  501 -0.72668370528E+02  0.33227535710E+02 -0.11743906526E+03  0.14204469456E+03  0.00000000000E+00 0.  1.
<scales pt_clust_5="13000.00000" pt_clust_6="13000.00000" pt_clust_7="13000.00000" pt_clust_8="13000.00000" pt_clust_9="79.90470"></scales>
<clustering>
<clus scale="   73.029">  5  6 -1 -1</clus>
<clus scale="   79.905">  2  9  1 -1</clus>
<clus scale="   79.905">  2  5  1 -1</clus>
<clus scale="   92.986">  7  8 -1 -1</clus>
<clus scale="   95.072">  1  5  2 -1</clus>
</clustering>
</event>
<event>
 9    2  0.5684583E-005  0.9570752E+02  0.7546771E-02  0.1293442E+00
          2   -1    0    0  502    0  0.00000000000E+00  0.00000000000E+00  0.10927571714E+04  0.10927571714E+04  0.00000000000E+00 0. -1.
         -1   -1    0    0    0  501 -0.00000000000E+00 -0.00000000000E+00 -0.60739516058E+02  0.60739516058E+02  0.00000000000E+00 0.  1.
         23    2    1    2    0    0  0.13507128719E+02  0.20147199607E+02  0.19422699210E+03  0.21493030306E+03  0.88783774058E+02 0.  0.
         24    2    1    2    0    0 -0.30340249693E+02  0.33854732716E+02  0.86897259596E+03  0.87397632646E+03  0.81575566177E+02 0.  0.
        -13    1    4    4    0    0 -0.43755340673E+02 -0.86301119532E+00  0.24380233884E+03  0.24769912202E+03  0.00000000000E+00 0.  1.
         14    1    4    4    0    0  0.13415090979E+02  0.34717743911E+02  0.62517025712E+03  0.62627720444E+03  0.00000000000E+00 0. -1.
        -13    1    3    3    0    0  0.32483042296E+02 -0.26278733341E+02  0.83265546759E+02  0.93160459101E+02  0.00000000000E+00 0.  1.
         13    1    3    3    0    0 -0.18975913578E+02  0.46425932948E+02  0.11096144534E+03  0.12176984396E+03  0.00000000000E+00 0. -1.
         21    1    1    2  502  501  0.16833120975E+02 -0.54001932322E+02 -0.31181932719E+02  0.64590057938E+02  0.00000000000E+00 0.  1.
<scales pt_clust_5="13000.00000" pt_clust_6="13000.00000" pt_clust_7="13000.00000" pt_clust_8="13000.00000" pt_clust_9="56.56468"></scales>
<clustering>
<clus scale="   56.565">  2  9  1 -1</clus>
<clus scale="   81.576">  5  6 -1 -1</clus>
<clus scale="   88.784">  7  8 -1 -1</clus>
<clus scale="   89.061">  1  5  2 -1</clus>
<clus scale="   89.061">  1  5  2 -1</clus>
</clustering>
</event>
<event>
 9    2  0.5684583E-005  0.1809281E+03  0.7546771E-02  0.1168206E+00
          2   -1    0    0  502    0  0.00000000000E+00  0.00000000000E+00  0.44299155433E+03  0.44299155433E+03  0.00000000000E+00 0. -1.
         -1   -1    0    0    0  501 -0.00000000000E+00 -0.00000000000E+00 -0.11690378870E+03  0.11690378870E+03  0.00000000000E+00 0.  1.
         24    2    1    2    0    0 -0.51288518937E+02 -0.16014406522E+03  0.51831755107E+02  0.19373578523E+03  0.81057941261E+02 0.  0.
         23    2    1    2    0    0  0.46688846347E+01  0.15271083070E+03  0.26276187391E+03  0.31757192095E+03  0.92009381573E+02 0.  0.
        -13    1    3    3    0    0 -0.24432456075E+02 -0.58594250344E+02 -0.19910263472E+02  0.66533072038E+02  0.00000000000E+00 0.  1.
         14    1    3    3    0    0 -0.26856062862E+02 -0.10154981487E+03  0.71742018579E+02  0.12720271319E+03  0.00000000000E+00 0. -1.
        -11    1    4    4    0    0  0.19383615809E+02  0.71588966715E+02  0.20191142322E+03  0.21510213282E+03  0.00000000000E+00 0. -1.
         11    1    4    4    0    0 -0.14714731174E+02  0.81121863989E+02  0.60850450696E+02  0.10246978814E+03  0.00000000000E+00 0.  1.
         21    1    1    2  502  501  0.46619634302E+02  0.74332345114E+01  0.11494136612E+02  0.48587636846E+02  0.00000000000E+00 0. -1.
<scales pt_clust_5="13000.00000" pt_clust_6="13000.00000" pt_clust_7="13000.00000" pt_clust_8="13000.00000" pt_clust_9="47.20851"></scales>
<clustering>
<clus scale="   47.209">  2  9  1 -1</clus>
<clus scale="   81.058">  5  6 -1 -1</clus>
<clus scale="   92.009">  7  8 -1 -1</clus>
<clus scale="  175.612">  2  5  1 -1</clus>
<clus scale="  180.928">  1  5  2 -1</clus>
</clustering>
</event>
<event>
 9    2  0.5684583E-005  0.9358827E+02  0.7546771E-02  0.1299583E+00
         -1   -1    0    0    0  501 -0.00000000000E+00  0.00000000000E+00  0.25904254155E+03  0.25904254155E+03  0.00000000000E+00 0.  1.
          2   -1    0    0  502    0  0.00000000000E+00 -0.00000000000E+00 -0.84152807353E+03  0.84152807353E+03  0.00000000000E+00 0. -1.
         23    2    1    2    0    0 -0.27114719848E+02 -0.12815501521E-01  0.19612486756E+03  0.21610427248E+03  0.86607648106E+02 0.  0.
         24    2    1    2    0    0  0.26913356029E+02  0.23340696389E+02 -0.82667448153E+03  0.83103988332E+03  0.77249416952E+02 0.  0.
        -13    1    4    4    0    0 -0.14410319273E+02  0.27294862575E+02 -0.15270080952E+03  0.15578897282E+03  0.00000000000E+00 0.  1.
         14    1    4    4    0    0  0.41323675302E+02 -0.39541661863E+01 -0.67397367201E+03  0.67525091050E+03  0.00000000000E+00 0. -1.
        -13    1    3    3    0    0 -0.42138110794E+02  0.18061515754E+02  0.18406367016E+03  0.18968730428E+03  0.00000000000E+00 0.  1.
         13    1    3    3    0    0  0.15023390946E+02 -0.18074331255E+02  0.12061197398E+02  0.26416968193E+02  0.00000000000E+00 0. -1.
         21    1    1    2  502  501  0.20136381910E+00 -0.23327880887E+02  0.48064081987E+02  0.53426459281E+02  0.00000000000E+00 0. -1.
<scales pt_clust_5="13000.00000" pt_clust_6="13000.00000" pt_clust_7="13000.00000" pt_clust_8="13000.00000" pt_clust_9="23.32875"></scales>
<clustering>
<clus scale="   23.329">  1  9  2 -1</clus>
<clus scale="   77.249">  5  6 -1 -1</clus>
<clus scale="   85.002">  2  5  1 -1</clus>
<clus scale="   86.608">  7  8 -1 -1</clus>
<clus scale="   85.002">  2  5  1 -1</clus>
</clustering>
</event>
<event>
 9    2  0.5684583E-005  0.1075145E+03  0.7546771E-02  0.1273312E+00
          2   -1    0    0  502    0  0.00000000000E+00  0.00000000000E+00  0.72900705507E+03  0.72900705507E+03  0.00000000000E+00 0. -1.
         -1   -1    0    0    0  501 -0.00000000000E+00 -0.00000000000E+00 -0.23191963776E+02  0.23191963776E+02  0.00000000000E+00 0.  1.
         24    2    1    2    0    0 -0.42979954629E+02  0.89049293956E+01  0.13114834079E+03  0.16134549773E+03  0.83101793476E+02 0.  0.
         23    2    1    2    0    0  0.36490760793E+02  0.16222267762E+02  0.50841768671E+03  0.51970280694E+03  0.10003862148E+03 0.  0.
        -13    1    3    3    0    0  0.33379330521E+00  0.21886516922E+02 -0.76002210902E+00  0.21902252728E+02  0.00000000000E+00 0.  1.
         14    1    3    3    0    0 -0.43313747935E+02 -0.12981587526E+02  0.13190836289E+03  0.13944324500E+03  0.00000000000E+00 0. -1.
        -11    1    4    4    0    0  0.18872296700E+02 -0.41078123633E+02  0.16444912814E+03  0.17054938162E+03  0.00000000000E+00 0. -1.
         11    1    4    4    0    0  0.17618464093E+02  0.57300391394E+02  0.34396855857E+03  0.34915342532E+03  0.00000000000E+00 0.  1.
         21    1    1    2  502  501  0.64891938365E+01 -0.25127197157E+02  0.66249063797E+02  0.71150714175E+02  0.00000000000E+00 0. -1.
<scales pt_clust_5="13000.00000" pt_clust_6="13000.00000" pt_clust_7="13000.00000" pt_clust_8="13000.00000" pt_clust_9="25.95160"></scales>
<clustering>
<clus scale="   25.952">  2  9  1 -1</clus>
<clus scale="   83.102">  5  6 -1 -1</clus>
<clus scale="   91.965">  2  5  1 -1</clus>
<clus scale="  100.039">  7  8 -1 -1</clus>
<clus scale="  107.514">  1  5  2 -1</clus>
</clustering>
</event>
<event>
 9    2  0.5684583E-005  0.9637748E+02  0.7546771E-02  0.1290803E+00
          2   -1    0    0  502    0  0.00000000000E+00  0.00000000000E+00  0.22576919983E+03  0.22576919983E+03  0.00000000000E+00 0. -1.
         -1   -1    0    0    0  501 -0.00000000000E+00 -0.00000000000E+00 -0.77110385843E+02  0.77110385843E+02  0.00000000000E+00 0.  1.
         24    2    1    2    0    0 -0.22673437182E+01  0.63708781039E+02  0.18650050877E+01  0.10424661807E+03  0.82461685085E+02 0.  0.
         23    2    1    2    0    0  0.98933066343E+01 -0.31960032159E+02  0.13389196051E+03  0.16352462019E+03  0.87715010958E+02 0.  0.
        -11    1    3    3    0    0 -0.21645369299E+02  0.43848354437E+02 -0.33515427030E+02  0.59283083994E+02  0.00000000000E+00 0.  1.
         12    1    3    3    0    0  0.19378025580E+02  0.19860426603E+02  0.35380432117E+02  0.44963534081E+02  0.00000000000E+00 0. -1.
        -11    1    4    4    0    0  0.45628717076E+02 -0.10828833892E+01  0.53867785602E+02  0.70603758994E+02  0.00000000000E+00 0.  1.
         11    1    4    4    0    0 -0.35735410442E+02 -0.30877148770E+02  0.80024174908E+02  0.92920861196E+02  0.00000000000E+00 0. -1.
         21    1    1    2  502  501 -0.76259629161E+01 -0.31748748880E+02  0.12901848388E+02  0.35108347407E+02  0.00000000000E+00 0. -1.
<scales pt_clust_5="13000.00000" pt_clust_6="13000.00000" pt_clust_7="13000.00000" pt_clust_8="13000.00000" pt_clust_9="32.65177"></scales>
<clustering>
<clus scale="   32.652">  2  9  1 -1</clus>
<clus scale="   82.462">  5  6 -1 -1</clus>
<clus scale="   87.715">  7  8 -1 -1</clus>
<clus scale="   91.622">  2  5  1 -1</clus>
<clus scale="   96.377">  1  5  2 -1</clus>
</clustering>
</event>
<event>
 9    2  0.5684583E-005  0.9398694E+02  0.7546771E-02  0.1301701E+00
         -1   -1    0    0    0  501 -0.00000000000E+00  0.00000000000E+00  0.30392635447E+02  0.30392635447E+02  0.00000000000E+00 0.  1.
          2   -1    0    0  502    0  0.00000000000E+00 -0.00000000000E+00 -0.10015062308E+04  0.10015062308E+04  0.00000000000E+00 0. -1.
         23    2    1    2    0    0  0.91240430754E+01  0.12419067606E+02 -0.65610852554E+02  0.11389941634E+03  0.91819451461E+02 0.  0.
         24    2    1    2    0    0 -0.59721781456E+00 -0.61841157188E+02 -0.65294583943E+03  0.66051112177E+03  0.78179200329E+02 0.  0.
        -11    1    4    4    0    0  0.33659901726E+02 -0.50782706925E+02 -0.33112916046E+03  0.33668738202E+03  0.00000000000E+00 0.  1.
         12    1    4    4    0    0 -0.34257119541E+02 -0.11058450263E+02 -0.32181667897E+03  0.32382373975E+03  0.00000000000E+00 0. -1.
        -13    1    3    3    0    0  0.44815568638E+02 -0.12399323659E+02 -0.48475832322E+02  0.67172053257E+02  0.00000000000E+00 0.  1.
         13    1    3    3    0    0 -0.35691525562E+02  0.24818391264E+02 -0.17135020232E+02  0.46727363079E+02  0.00000000000E+00 0. -1.
         21    1    1    2  502  501 -0.85268252609E+01  0.49422089582E+02 -0.25255690334E+03  0.25748832811E+03  0.00000000000E+00 0. -1.
<scales pt_clust_5="13000.00000" pt_clust_6="13000.00000" pt_clust_7="13000.00000" pt_clust_8="13000.00000" pt_clust_9="50.15227"></scales>
<clustering>
<clus scale="   50.152">  2  9  1 -1</clus>
<clus scale="   78.179">  5  6 -1 -1</clus>
<clus scale="   80.714">  2  5  1 -1</clus>
<clus scale="   91.819">  7  8 -1 -1</clus>
<clus scale="   50.152">  2  5  1 -1</clus>
</clustering>
</event>
<event>
 9    2  0.5684583E-005  0.1287822E+03  0.7546771E-02  0.1232753E+00
         -1   -1    0    0    0  501 -0.00000000000E+00  0.00000000000E+00  0.45619604241E+02  0.45619604241E+02  0.00000000000E+00 0.  1.
          2   -1    0    0  502    0  0.00000000000E+00 -0.00000000000E+00 -0.80316856893E+03  0.80316856893E+03  0.00000000000E+00 0. -1.
         23    2    1    2    0    0 -0.10919876133E+03  0.23864734255E+02 -0.15239074693E+03  0.21008684350E+03  0.91758634719E+02 0.  0.
         24    2    1    2    0    0  0.73115075424E+02 -0.47361947405E+02 -0.57312310317E+03  0.58503197173E+03  0.78761337265E+02 0.  0.
        -13    1    4    4    0    0  0.11332505365E+02  0.21758619944E+02 -0.13438828145E+03  0.13660919959E+03  0.00000000000E+00 0.  1.
         14    1    4    4    0    0  0.61782570059E+02 -0.69120567349E+02 -0.43873482172E+03  0.44842277215E+03  0.00000000000E+00 0. -1.
        -13    1    3    3    0    0 -0.15286818987E+02  0.42171378742E+02 -0.26980601232E+02  0.52345628878E+02  0.00000000000E+00 0.  1.
         13    1    3    3    0    0 -0.93911942347E+02 -0.18306644487E+02 -0.12541014570E+03  0.15774121462E+03  0.00000000000E+00 0. -1.
         21    1    1    2  502  501  0.36083685909E+02  0.23497213150E+02 -0.32035114596E+02  0.53669357941E+02  0.00000000000E+00 0.  1.
<scales pt_clust_5="13000.00000" pt_clust_6="13000.00000" pt_clust_7="13000.00000" pt_clust_8="13000.00000" pt_clust_9="43.05986"></scales>
<clustering>
<clus scale="   43.060">  1  9  2 -1</clus>
<clus scale="   78.761">  5  6 -1 -1</clus>
<clus scale="   91.759">  7  8 -1 -1</clus>
<clus scale="  119.869">  2  5  1 -1</clus>
<clus scale="  119.869">  2  5  1 -1</clus>
</clustering>
</event>
<event>
 9    2  0.5684583E-005  0.9967241E+02  0.7546771E-02  0.1287247E+00
         -1   -1    0    0    0  501 -0.00000000000E+00  0.00000000000E+00  0.90690351914E+02  0.90690351914E+02  0.00000000000E+00 0.  1.
          2   -1    0    0  502    0  0.00000000000E+00 -0.00000000000E+00 -0.20941977686E+03  0.20941977686E+03  0.00000000000E+00 0. -1.
         23    2    1    2    0    0 -0.48548236800E+02  0.37940789232E+02 -0.66095600184E+02  0.12869299917E+03  0.91634190600E+02 0.  0.
         24    2    1    2    0    0  0.25266253094E+02 -0.11103283348E+02 -0.87717593770E+02  0.12148544293E+03  0.79389357857E+02 0.  0.
        -13    1    4    4    0    0  0.92671147282E+01  0.24506328999E+02 -0.81008938774E+00  0.26212512684E+02  0.00000000000E+00 0.  1.
         14    1    4    4    0    0  0.15999138366E+02 -0.35609612347E+02 -0.86907504382E+02  0.95272930247E+02  0.00000000000E+00 0. -1.
        -13    1    3    3    0    0 -0.78365762795E+01  0.21996085834E+02 -0.79582539881E+02  0.82937448561E+02  0.00000000000E+00 0. -1.
         13    1    3    3    0    0 -0.40711660521E+02  0.15944703398E+02  0.13486939698E+02  0.45755550606E+02  0.00000000000E+00 0.  1.
         21    1    1    2  502  501  0.23281983706E+02 -0.26837505884E+02  0.35083769003E+02  0.49931686681E+02  0.00000000000E+00 0. -1.
<scales pt_clust_5="13000.00000" pt_clust_6="13000.00000" pt_clust_7="13000.00000" pt_clust_8="13000.00000" pt_clust_9="35.52890"></scales>
<clustering>
<clus scale="   35.529">  1  9  2 -1</clus>
<clus scale="   79.389">  5  6 -1 -1</clus>
<clus scale="   88.546">  2  5  1 -1</clus>
<clus scale="   91.634">  7  8 -1 -1</clus>
<clus scale="   88.546">  2  5  1 -1</clus>
</clustering>
</event>
<event>
 9    2  0.5684583E-005  0.9036516E+02  0.7546771E-02  0.1308505E+00
          2   -1    0    0  502    0  0.00000000000E+00  0.00000000000E+00  0.71167977816E+03  0.71167977816E+03  0.00000000000E+00 0. -1.
         -1   -1    0    0    0  501 -0.00000000000E+00 -0.00000000000E+00 -0.26651638011E+02  0.26651638011E+02  0.00000000000E+00 0.  1.
         23    2    1    2    0    0 -0.33751664657E+01 -0.42652919922E+01  0.74803911163E+02  0.11730493731E+03  0.90195558254E+02 0.  0.
         24    2    1    2    0    0 -0.25122864351E+02  0.85987201601E+01  0.39594952669E+03  0.40482156586E+03  0.79996101138E+02 0.  0.
        -13    1    4    4    0    0  0.19379742934E+02  0.57000037279E+01  0.30015633523E+02  0.36180142820E+02  0.00000000000E+00 0.  1.
         14    1    4    4    0    0 -0.44502607285E+02  0.28987164322E+01  0.36593389317E+03  0.36864142304E+03  0.00000000000E+00 0. -1.
        -13    1    3    3    0    0  0.26709952452E+02  0.32054042912E+02  0.24656226424E+02  0.48464551256E+02  0.00000000000E+00 0.  1.
         13    1    3    3    0    0 -0.30085118917E+02 -0.36319334904E+02  0.50147684739E+02  0.68840386059E+02  0.00000000000E+00 0. -1.
         21    1    1    2  502  501  0.28498030816E+02 -0.43334281679E+01  0.21427470229E+03  0.21620491299E+03  0.00000000000E+00 0. -1.
<scales pt_clust_5="13000.00000" pt_clust_6="13000.00000" pt_clust_7="13000.00000" pt_clust_8="13000.00000" pt_clust_9="28.82562"></scales>
<clustering>
<clus scale="   28.826">  1  9  2 -1</clus>
<clus scale="   79.996">  5  6 -1 -1</clus>
<clus scale="   80.187">  1  5  2 -1</clus>
<clus scale="   90.196">  7  8 -1 -1</clus>
<clus scale="   28.826">  1  5  2 -1</clus>
</clustering>
</event>
<event>
 9    2  0.5684583E-005  0.9158724E+02  0.7546771E-02  0.1306371E+00
         -1   -1    0    0    0  501 -0.00000000000E+00  0.00000000000E+00  0.35985428424E+03  0.35985428424E+03  0.00000000000E+00 0.  1.
          2   -1    0    0  502    0  0.00000000000E+00 -0.00000000000E+00 -0.15459607846E+03  0.15459607846E+03  0.00000000000E+00 0. -1.
         23    2    1    2    0    0 -0.27064549128E+02  0.28598763294E+02  0.19080876377E+03  0.21470376196E+03  0.90218301842E+02 0.  0.
         24    2    1    2    0    0 -0.13220862728E+02 -0.10273657821E+02 -0.12771889029E+03  0.15084878809E+03  0.78504157050E+02 0.  0.
        -13    1    4    4    0    0 -0.18862579780E+02  0.31941058077E+02 -0.68587008881E+02  0.77975675017E+02  0.00000000000E+00 0.  1.
         14    1    4    4    0    0  0.56417170518E+01 -0.42214715898E+02 -0.59131881412E+02  0.72873113074E+02  0.00000000000E+00 0. -1.
        -11    1    3    3    0    0 -0.22791216683E+02  0.53644101851E+02  0.17576475197E+03  0.18517661099E+03  0.00000000000E+00 0.  1.
         11    1    3    3    0    0 -0.42733324445E+01 -0.25045338556E+02  0.15044011798E+02  0.29527150973E+02  0.00000000000E+00 0. -1.
         21    1    1    2  502  501  0.40285411856E+02 -0.18325105473E+02  0.14216833230E+03  0.14889781264E+03  0.00000000000E+00 0.  1.
<scales pt_clust_5="13000.00000" pt_clust_6="13000.00000" pt_clust_7="13000.00000" pt_clust_8="13000.00000" pt_clust_9="44.25747"></scales>
<clustering>
<clus scale="   44.257">  1  9  2 -1</clus>
<clus scale="   78.504">  5  6 -1 -1</clus>
<clus scale="   80.074">  2  5  1 -1</clus>
<clus scale="   90.218">  7  8 -1 -1</clus>
<clus scale="   80.074">  2  5  1 -1</clus>
</clustering>
</event>
<event>
 9    2  0.5684583E-005  0.9891812E+02  0.7546771E-02  0.1288140E+00
          2   -1    0    0  502    0  0.00000000000E+00  0.00000000000E+00  0.62700925098E+03  0.62700925098E+03  0.00000000000E+00 0. -1.
         -1   -1    0    0    0  501 -0.00000000000E+00 -0.00000000000E+00 -0.43861061158E+02  0.43861061158E+02  0.00000000000E+00 0.  1.
         23    2    1    2    0    0 -0.23972890521E+01  0.98476923543E+02  0.16219596450E+03  0.21007640936E+03  0.90117231440E+02 0.  0.
         24    2    1    2    0    0  0.23808715876E+02 -0.21141554200E+02  0.32342276206E+03  0.33449582380E+03  0.79191873686E+02 0.  0.
        -13    1    4    4    0    0  0.31323901934E+02  0.88905700164E+01  0.52275639544E+02  0.61587105447E+02  0.00000000000E+00 0.  1.
         14    1    4    4    0    0 -0.75151860578E+01 -0.30032124217E+02  0.27114712251E+03  0.27290871835E+03  0.00000000000E+00 0. -1.
        -11    1    3    3    0    0  0.14158071996E+01  0.62717222523E+02  0.23819319682E+02  0.67103014099E+02  0.00000000000E+00 0.  1.
         11    1    3    3    0    0 -0.38130962517E+01  0.35759701020E+02  0.13837664482E+03  0.14297339526E+03  0.00000000000E+00 0. -1.
         21    1    1    2  502  501 -0.21411426824E+02 -0.77335369343E+02  0.97529463268E+02  0.12629807899E+03  0.00000000000E+00 0. -1.
<scales pt_clust_5="13000.00000" pt_clust_6="13000.00000" pt_clust_7="13000.00000" pt_clust_8="13000.00000" pt_clust_9="80.24468"></scales>
<clustering>
<clus scale="   79.192">  5  6 -1 -1</clus>
<clus scale="   80.245">  2  9  1 -1</clus>
<clus scale="   89.079">  1  5  2 -1</clus>
<clus scale="   90.117">  7  8 -1 -1</clus>
<clus scale="   89.079">  1  5  2 -1</clus>
</clustering>
</event>
<event>
 9    2  0.5684583E-005  0.9845539E+02  0.7546771E-02  0.1289336E+00
          2   -1    0    0  502    0  0.00000000000E+00  0.00000000000E+00  0.66399352754E+02  0.66399352754E+02  0.00000000000E+00 0. -1.
         -1   -1    0    0    0  501 -0.00000000000E+00 -0.00000000000E+00 -0.21098356787E+03  0.21098356787E+03  0.00000000000E+00 0.  1.
         23    2    1    2    0    0 -0.10905259103E+02  0.13987391481E+02 -0.10866107067E+03  0.14375363342E+03  0.92430011614E+02 0.  0.
         24    2    1    2    0    0  0.17916697485E+02 -0.35545699835E+02  0.45925606623E+00  0.90762050361E+02  0.81566132948E+02 0.  0.
        -11    1    4    4    0    0 -0.19557748105E+02 -0.39966132725E+02  0.19400741607E+02  0.48540560883E+02  0.00000000000E+00 0.  1.
         12    1    4    4    0    0  0.37474445590E+02  0.44204328901E+01 -0.18941485541E+02  0.42221489478E+02  0.00000000000E+00 0. -1.
        -13    1    3    3    0    0  0.38751007455E+02 -0.65632631953E+01 -0.35398414887E+02  0.52893901152E+02  0.00000000000E+00 0. -1.
         13    1    3    3    0    0 -0.49656266558E+02  0.20550654677E+02 -0.73262655783E+02  0.90859732272E+02  0.00000000000E+00 0.  1.
         21    1    1    2  502  501 -0.70114383823E+01  0.21558308354E+02 -0.36382400514E+02  0.42867236841E+02  0.00000000000E+00 0. -1.
<scales pt_clust_5="13000.00000" pt_clust_6="13000.00000" pt_clust_7="13000.00000" pt_clust_8="13000.00000" pt_clust_9="22.66982"></scales>
<clustering>
<clus scale="   22.670">  2  9  1 -1</clus>
<clus scale="   81.566">  5  6 -1 -1</clus>
<clus scale="   88.336">  1  5  2 -1</clus>
<clus scale="   92.430">  7  8 -1 -1</clus>
<clus scale="   88.336">  1  5  2 -1</clus>
</clustering>
</event>
<event>
 9    2  0.5684583E-005  0.1102795E+03  0.7546771E-02  0.1266064E+00
          2   -1    0    0  502    0  0.00000000000E+00  0.00000000000E+00  0.16363500225E+03  0.16363500225E+03  0.00000000000E+00 0. -1.
         -1   -1    0    0    0  501 -0.00000000000E+00 -0.00000000000E+00 -0.45300726587E+03  0.45300726587E+03  0.00000000000E+00 0.  1.
         24    2    1    2    0    0 -0.72771667926E+02  0.25723895663E+02 -0.12567957555E+03  0.16596803428E+03  0.76109120550E+02 0.  0.
         23    2    1    2    0    0  0.41687444480E+02 -0.44027498184E+02  0.12124971279E+03  0.16345755150E+03  0.91326965712E+02 0.  0.
        -11    1    3    3    0    0 -0.80807244505E+02  0.31290239069E+02 -0.12920839526E+03  0.15557538118E+03  0.00000000000E+00 0.  1.
         12    1    3    3    0    0  0.80355765789E+01 -0.55663434052E+01  0.35288197056E+01  0.10392653096E+02  0.00000000000E+00 0. -1.
        -11    1    4    4    0    0 -0.28776061206E+02 -0.56208962366E+01  0.30265168668E+02  0.42138303330E+02  0.00000000000E+00 0.  1.
         11    1    4    4    0    0  0.70463505686E+02 -0.38406601948E+02  0.90984544121E+02  0.12131924817E+03  0.00000000000E+00 0. -1.
         21    1    1    2  502  501  0.31084223446E+02  0.18303602521E+02 -0.28494240085E+03  0.28721668234E+03  0.00000000000E+00 0.  1.
<scales pt_clust_5="13000.00000" pt_clust_6="13000.00000" pt_clust_7="13000.00000" pt_clust_8="13000.00000" pt_clust_9="36.07285"></scales>
<clustering>
<clus scale="   36.073">  2  9  1 -1</clus>
<clus scale="   76.109">  5  6 -1 -1</clus>
<clus scale="   91.327">  7  8 -1 -1</clus>
<clus scale="   98.049">  2  5  1 -1</clus>
<clus scale="  110.279">  1  5  2 -1</clus>
</clustering>
</event>
<event>
 9    2  0.5684583E-005  0.1025322E+03  0.7546771E-02  0.1280519E+00
         -1   -1    0    0    0  501 -0.00000000000E+00  0.00000000000E+00  0.44930280955E+03  0.44930280955E+03  0.00000000000E+00 0.  1.
          2   -1    0    0  502    0  0.00000000000E+00 -0.00000000000E+00 -0.19981864046E+03  0.19981864046E+03  0.00000000000E+00 0. -1.
         23    2    1    2    0    0  0.83315277172E+02  0.79465203434E+02  0.29574497808E+03  0.33027372695E+03  0.91430239464E+02 0.  0.
         24    2    1    2    0    0 -0.28926889406E+02 -0.32855553087E+02 -0.16018772995E+03  0.18427469623E+03  0.79879925795E+02 0.  0.
        -11    1    4    4    0    0  0.21192836461E+02  0.79476609138E+01 -0.21273486532E+02  0.31062241717E+02  0.00000000000E+00 0.  1.
         12    1    4    4    0    0 -0.50119725867E+02 -0.40803214001E+02 -0.13891424342E+03  0.15321245451E+03  0.00000000000E+00 0. -1.
        -13    1    3    3    0    0  0.20535230305E+02  0.36550237144E+02  0.21619627929E+03  0.22022362883E+03  0.00000000000E+00 0.  1.
         13    1    3    3    0    0  0.62780046867E+02  0.42914966290E+02  0.79548698790E+02  0.11005009812E+03  0.00000000000E+00 0. -1.
         21    1    1    2  502  501 -0.54388387766E+02 -0.46609650347E+02  0.11392692096E+03  0.13457302683E+03  0.00000000000E+00 0. -1.
<scales pt_clust_5="13000.00000" pt_clust_6="13000.00000" pt_clust_7="13000.00000" pt_clust_8="13000.00000" pt_clust_9="71.62790"></scales>
<clustering>
<clus scale="   71.628">  1  9  2 -1</clus>
<clus scale="   79.880">  5  6 -1 -1</clus>
<clus scale="   91.430">  7  8 -1 -1</clus>
<clus scale="   92.381">  2  5  1 -1</clus>
<clus scale="   92.381">  2  5  1 -1</clus>
</clustering>
</event>
<event>
 9    2  0.5684583E-005  0.1081486E+03  0.7546771E-02  0.1276614E+00
         -1   -1    0    0    0  501 -0.00000000000E+00  0.00000000000E+00  0.46717986138E+03  0.46717986138E+03  0.00000000000E+00 0.  1.
          2   -1    0    0  502    0  0.00000000000E+00 -0.00000000000E+00 -0.73198924756E+02  0.73198924756E+02  0.00000000000E+00 0. -1.
         23    2    1    2    0    0 -0.18427637179E+02 -0.41099301003E+02  0.33012352212E+03  0.34300568706E+03  0.81502338270E+02 0.  0.
         24    2    1    2    0    0 -0.93349311491E+00  0.21050584502E+02 -0.19562227245E+02  0.10942060605E+03  0.10557551694E+03 0.  0.
        -13    1    4    4    0    0 -0.80423600351E+00  0.21970417378E+02  0.42236002423E+02  0.47615395997E+02  0.00000000000E+00 0.  1.
         14    1    4    4    0    0 -0.12925711140E+00 -0.91983287549E+00 -0.61798229668E+02  0.61805210056E+02  0.00000000000E+00 0. -1.
        -13    1    3    3    0    0 -0.37912836019E+02 -0.55683603766E+02  0.26659562346E+03  0.27497504126E+03  0.00000000000E+00 0.  1.
         13    1    3    3    0    0  0.19485198840E+02  0.14584302762E+02  0.63527898656E+02  0.68030645804E+02  0.00000000000E+00 0. -1.
         21    1    1    2  502  501  0.19361130294E+02  0.20048716501E+02  0.83419641748E+02  0.87952493023E+02  0.00000000000E+00 0.  1.
<scales pt_clust_5="13000.00000" pt_clust_6="13000.00000" pt_clust_7="13000.00000" pt_clust_8="13000.00000" pt_clust_9="27.87121"></scales>
<clustering>
<clus scale="   27.871">  1  9  2 -1</clus>
<clus scale="   81.502">  7  8 -1 -1</clus>
<clus scale="   84.809">  1  7  2 -1</clus>
<clus scale="  105.576">  5  6 -1 -1</clus>
<clus scale="  108.149">  2  5  1 -1</clus>
</clustering>
</event>
<event>
 9    2  0.5684583E-005  0.9641456E+02  0.7546771E-02  0.1303882E+00
         -1   -1    0    0    0  501 -0.00000000000E+00  0.00000000000E+00  0.16939550732E+03  0.16939550732E+03  0.00000000000E+00 0.  1.
          2   -1    0    0  502    0  0.00000000000E+00 -0.00000000000E+00 -0.43910318489E+03  0.43910318489E+03  0.00000000000E+00 0. -1.
         23    2    1    2    0    0 -0.51617992663E+02  0.21168803562E+02  0.13890704678E+03  0.17506214863E+03  0.90769228412E+02 0.  0.
         24    2    1    2    0    0  0.25887030887E+02 -0.18924643515E+02 -0.39976642593E+03  0.40613432695E+03  0.64059470243E+02 0.  0.
        -13    1    4    4    0    0  0.38212499845E+02 -0.13182233552E+02 -0.13265475406E+03  0.13867678320E+03  0.00000000000E+00 0.  1.
         14    1    4    4    0    0 -0.12325468958E+02 -0.57424099631E+01 -0.26711167188E+03  0.26745754375E+03  0.00000000000E+00 0. -1.
        -13    1    3    3    0    0  0.19498251063E+02  0.12728731342E+02  0.59324941946E+01  0.24029084116E+02  0.00000000000E+00 0. -1.
         13    1    3    3    0    0 -0.71116243726E+02  0.84400722206E+01  0.13297455258E+03  0.15103306451E+03  0.00000000000E+00 0.  1.
         21    1    1    2  502  501  0.25730961776E+02 -0.22441600472E+01 -0.88482984119E+01  0.27302216632E+02  0.00000000000E+00 0. -1.
<scales pt_clust_5="13000.00000" pt_clust_6="13000.00000" pt_clust_7="13000.00000" pt_clust_8="13000.00000" pt_clust_9="25.82864"></scales>
<clustering>
<clus scale="   25.829">  1  9  2 -1</clus>
<clus scale="   64.059">  5  6 -1 -1</clus>
<clus scale="   71.835">  2  5  1 -1</clus>
<clus scale="   90.769">  7  8 -1 -1</clus>
<clus scale="   71.835">  2  5  1 -1</clus>
</clustering>
</event>
<event>
 9    2  0.5684583E-005  0.1015567E+03  0.7546771E-02  0.1282661E+00
          2   -1    0    0  502    0  0.00000000000E+00  0.00000000000E+00  0.35064876333E+03  0.35064876333E+03  0.00000000000E+00 0. -1.
         -1   -1    0    0    0  501 -0.00000000000E+00 -0.00000000000E+00 -0.76491671808E+02  0.76491671808E+02  0.00000000000E+00 0.  1.
         23    2    1    2    0    0  0.28886641770E+02 -0.51193527935E+01 -0.23152076145E+02  0.98963138264E+02  0.91635354855E+02 0.  0.
         24    2    1    2    0    0 -0.43046221777E+02 -0.16092677715E+02  0.28551804378E+03  0.30007970717E+03  0.80095729293E+02 0.  0.
        -13    1    4    4    0    0 -0.76880942031E+01 -0.22494817370E+02  0.17140578466E+02  0.29307388678E+02  0.00000000000E+00 0.  1.
         14    1    4    4    0    0 -0.35358127574E+02  0.64021396551E+01  0.26837746531E+03  0.27077231850E+03  0.00000000000E+00 0. -1.
        -11    1    3    3    0    0  0.39183208497E+02  0.13013919896E+02  0.23752135968E+02  0.47632445898E+02  0.00000000000E+00 0. -1.
         11    1    3    3    0    0 -0.10296566727E+02 -0.18133272690E+02 -0.46904212113E+02  0.51330692366E+02  0.00000000000E+00 0.  1.
         21    1    1    2  502  501  0.14159580007E+02  0.21212030509E+02  0.11791123890E+02  0.28097589698E+02  0.00000000000E+00 0.  1.
<scales pt_clust_5="13000.00000" pt_clust_6="13000.00000" pt_clust_7="13000.00000" pt_clust_8="13000.00000" pt_clust_9="25.50380"></scales>
<clustering>
<clus scale="   25.504">  2  9  1 -1</clus>
<clus scale="   80.096">  5  6 -1 -1</clus>
<clus scale="   91.280">  1  5  2 -1</clus>
<clus scale="   91.635">  7  8 -1 -1</clus>
<clus scale="   91.280">  1  5  2 -1</clus>
</clustering>
</event>
<event>
 9    2  0.5684583E-005  0.1431022E+03  0.7546771E-02  0.1211225E+00
         -1   -1    0    0    0  501 -0.00000000000E+00  0.00000000000E+00  0.18829119507E+03  0.18829119507E+03  0.00000000000E+00 0.  1.
          2   -1    0    0  502    0  0.00000000000E+00 -0.00000000000E+00 -0.23445055769E+03  0.23445055769E+03  0.00000000000E+00 0. -1.
         24    2    1    2    0    0 -0.31436601753E+02 -0.14679013272E+03  0.71435785193E+02  0.18486549629E+03  0.80849102141E+02 0.  0.
         23    2    1    2    0    0  0.44487966843E+02  0.91748915054E+02 -0.11935400926E+03  0.18128149199E+03  0.90667288494E+02 0.  0.
        -13    1    3    3    0    0 -0.22991888349E+02 -0.15516991145E+03  0.72718570153E+02  0.17289973625E+03  0.00000000000E+00 0.  1.
         14    1    3    3    0    0 -0.84447134042E+01  0.83797787297E+01 -0.12827849600E+01  0.11965760038E+02  0.00000000000E+00 0. -1.
        -13    1    4    4    0    0 -0.24098863998E+02  0.42407070680E+02 -0.25647082611E+02  0.55107964362E+02  0.00000000000E+00 0.  1.
         13    1    4    4    0    0  0.68586830842E+02  0.49341844374E+02 -0.93706926649E+02  0.12617352762E+03  0.00000000000E+00 0. -1.
         21    1    1    2  502  501 -0.13051365090E+02  0.55041217669E+02  0.17588614441E+01  0.56594764482E+02  0.00000000000E+00 0. -1.
<scales pt_clust_5="13000.00000" pt_clust_6="13000.00000" pt_clust_7="13000.00000" pt_clust_8="13000.00000" pt_clust_9="56.56743"></scales>
<clustering>
<clus scale="   56.567">  1  9  2 -1</clus>
<clus scale="   80.849">  5  6 -1 -1</clus>
<clus scale="   90.667">  7  8 -1 -1</clus>
<clus scale="  137.092">  1  5  2 -1</clus>
<clus scale="  143.102">  2  5  1 -1</clus>
</clustering>
</event>
<event>
 9    2  0.1487110E-004  0.1061803E+03  0.7546771E-02  0.1268803E+00
          2   -1    0    0  502    0  0.00000000000E+00  0.00000000000E+00  0.46223226122E+03  0.46223226122E+03  0.00000000000E+00 0. -1.
         -1   -1    0    0    0  501 -0.00000000000E+00 -0.00000000000E+00 -0.28708652777E+03  0.28708652777E+03  0.00000000000E+00 0.  1.
         24    2    1    2    0    0  0.22163771618E+02 -0.47883960537E+02 -0.22872681699E+03  0.25054310989E+03  0.87588735862E+02 0.  0.
         23    2    1    2    0    0 -0.50924072984E+02 -0.27956343974E+02  0.40369800386E+03  0.41766503128E+03  0.89984341176E+02 0.  0.
        -13    1    3    3    0    0  0.82035835906E+00 -0.55699221632E+02 -0.66575517512E+02  0.86806542438E+02  0.00000000000E+00 0.  1.
         14    1    3    3    0    0  0.21343413259E+02  0.78152610949E+01 -0.16215129948E+03  0.16373656745E+03  0.00000000000E+00 0. -1.
        -11    1    4    4    0    0  0.20016559213E+02 -0.26695784778E+02  0.17719747219E+03  0.18031159618E+03  0.00000000000E+00 0.  1.
         11    1    4    4    0    0 -0.70940632197E+02 -0.12605591963E+01  0.22650053167E+03  0.23735343510E+03  0.00000000000E+00 0. -1.
         21    1    1    2  502  501  0.28760301366E+02  0.75840304511E+02  0.17454658733E+00  0.81110647818E+02  0.00000000000E+00 0.  1.
<scales pt_clust_5="13000.00000" pt_clust_6="13000.00000" pt_clust_7="13000.00000" pt_clust_8="13000.00000" pt_clust_9="81.11046"></scales>
<clustering>
<clus scale="   81.110">  2  9  1 -1</clus>
<clus scale="   87.589">  5  6 -1 -1</clus>
<clus scale="   89.984">  7  8 -1 -1</clus>
<clus scale="  104.158">  2  5  1 -1</clus>
<clus scale="  106.180">  1  5  2 -1</clus>
</clustering>
</event>
<event>
 9    2  0.5684583E-005  0.1082057E+03  0.7546771E-02  0.1274266E+00
          2   -1    0    0  502    0  0.00000000000E+00  0.00000000000E+00  0.62659198307E+03  0.62659198307E+03  0.00000000000E+00 0. -1.
         -1   -1    0    0    0  501 -0.00000000000E+00 -0.00000000000E+00 -0.50370819492E+02  0.50370819492E+02  0.00000000000E+00 0.  1.
         23    2    1    2    0    0  0.32401909125E+02  0.30561400779E+02  0.23972643536E+02  0.11193583843E+03  0.99855201943E+02 0.  0.
         24    2    1    2    0    0 -0.20009798264E+02 -0.83198687248E+01  0.50389243935E+03  0.51037752955E+03  0.78153822642E+02 0.  0.
        -13    1    4    4    0    0  0.28928027713E+02  0.66359162786E+01  0.16603799242E+03  0.16866973973E+03  0.00000000000E+00 0.  1.
         14    1    4    4    0    0 -0.48937825978E+02 -0.14955785003E+02  0.33785444693E+03  0.34170778982E+03  0.00000000000E+00 0. -1.
        -13    1    3    3    0    0 -0.12956743181E+02 -0.28045795614E+02  0.21769614482E+02  0.37793649734E+02  0.00000000000E+00 0. -1.
         13    1    3    3    0    0  0.45358652306E+02  0.58607196394E+02  0.22030290541E+01  0.74142188700E+02  0.00000000000E+00 0.  1.
         21    1    1    2  502  501 -0.12392110861E+02 -0.22241532055E+02  0.48356080685E+02  0.54649434571E+02  0.00000000000E+00 0. -1.
<scales pt_clust_5="13000.00000" pt_clust_6="13000.00000" pt_clust_7="13000.00000" pt_clust_8="13000.00000" pt_clust_9="25.46076"></scales>
<clustering>
<clus scale="   25.461">  1  9  2 -1</clus>
<clus scale="   78.154">  5  6 -1 -1</clus>
<clus scale="   88.574">  1  5  2 -1</clus>
<clus scale="   99.855">  7  8 -1 -1</clus>
<clus scale="   25.461">  1  5  2 -1</clus>
</clustering>
</event>
<event>
 9    2  0.5684583E-005  0.9487952E+02  0.7546771E-02  0.1294109E+00
          2   -1    0    0  502    0  0.00000000000E+00  0.00000000000E+00  0.10783617665E+03  0.10783617665E+03  0.00000000000E+00 0. -1.
         -1   -1    0    0    0  501 -0.00000000000E+00 -0.00000000000E+00 -0.18768715213E+03  0.18768715213E+03  0.00000000000E+00 0.  1.
         23    2    1    2    0    0  0.20410824428E+02 -0.45452859434E+02 -0.55040514253E+02  0.11662672881E+03  0.89943156930E+02 0.  0.
         24    2    1    2    0    0 -0.69841750302E+01  0.23279669577E+02  0.48662460563E+02  0.10098514062E+03  0.85083734290E+02 0.  0.
        -11    1    4    4    0    0 -0.14654498989E+02  0.20556818589E+02 -0.19773068969E+02  0.32067294672E+02  0.00000000000E+00 0.  1.
         12    1    4    4    0    0  0.76703239592E+01  0.27228509882E+01  0.68435529532E+02  0.68917845943E+02  0.00000000000E+00 0. -1.
        -11    1    3    3    0    0  0.80113544034E+00 -0.24470647649E+02  0.22924241830E+02  0.33540651124E+02  0.00000000000E+00 0. -1.
         11    1    3    3    0    0  0.19609688987E+02 -0.20982211785E+02 -0.77964756084E+02  0.83086077683E+02  0.00000000000E+00 0.  1.
         21    1    1    2  502  501 -0.13426649398E+02  0.22173189856E+02 -0.73472921792E+02  0.77911459357E+02  0.00000000000E+00 0.  1.
<scales pt_clust_5="13000.00000" pt_clust_6="13000.00000" pt_clust_7="13000.00000" pt_clust_8="13000.00000" pt_clust_9="25.92152"></scales>
<clustering>
<clus scale="   25.922">  2  9  1 -1</clus>
<clus scale="   85.084">  5  6 -1 -1</clus>
<clus scale="   89.943">  7  8 -1 -1</clus>
<clus scale="   90.286">  1  5  2 -1</clus>
<clus scale="   90.286">  1  5  2 -1</clus>
</clustering>
</event>
<event>
 9    2  0.5684583E-005  0.1158252E+03  0.7546771E-02  0.1255534E+00
         -1   -1    0    0    0  501 -0.00000000000E+00  0.00000000000E+00  0.26539048154E+02  0.26539048154E+02  0.00000000000E+00 0.  1.
          2   -1    0    0  502    0  0.00000000000E+00 -0.00000000000E+00 -0.72797619116E+03  0.72797619116E+03  0.00000000000E+00 0. -1.
         23    2    1    2    0    0 -0.46111372377E+02  0.42859232065E+02 -0.15677338112E+03  0.19389886170E+03  0.95161458087E+02 0.  0.
         24    2    1    2    0    0  0.65994846167E+02 -0.37811891363E+02 -0.48668333511E+03  0.49911387305E+03  0.80429663372E+02 0.  0.
        -11    1    4    4    0    0 -0.15929446472E+02 -0.19408609046E+02 -0.79792656305E+02  0.83649921520E+02  0.00000000000E+00 0.  1.
         12    1    4    4    0    0  0.81924292639E+02 -0.18403282317E+02 -0.40689067881E+03  0.41546395153E+03  0.00000000000E+00 0. -1.
        -11    1    3    3    0    0 -0.22411131070E+02  0.49748168521E+02 -0.25325849660E+02  0.60154282707E+02  0.00000000000E+00 0.  1.
         11    1    3    3    0    0 -0.23700241307E+02 -0.68889364552E+01 -0.13144753146E+03  0.13374457899E+03  0.00000000000E+00 0. -1.
         21    1    1    2  502  501 -0.19883473789E+02 -0.50473407024E+01 -0.57980426774E+02  0.61502504559E+02  0.00000000000E+00 0. -1.
<scales pt_clust_5="13000.00000" pt_clust_6="13000.00000" pt_clust_7="13000.00000" pt_clust_8="13000.00000" pt_clust_9="20.51410"></scales>
<clustering>
<clus scale="   20.514">  2  9  1 -1</clus>
<clus scale="   80.430">  5  6 -1 -1</clus>
<clus scale="   95.161">  7  8 -1 -1</clus>
<clus scale="  104.061">  2  5  1 -1</clus>
<clus scale="   20.514">  2  5  1 -1</clus>
</clustering>
</event>
<event>
 9    2  0.5684583E-005  0.1623184E+03  0.7546771E-02  0.1187510E+00
         -1   -1    0    0    0  501 -0.00000000000E+00  0.00000000000E+00  0.12290016220E+03  0.12290016220E+03  0.00000000000E+00 0.  1.
          2   -1    0    0  502    0  0.00000000000E+00 -0.00000000000E+00 -0.66536920603E+03  0.66536920603E+03  0.00000000000E+00 0. -1.
         24    2    1    2    0    0 -0.77581376577E+02 -0.11639182263E+03  0.46150114941E+02  0.16819494778E+03  0.81202099609E+02 0.  0.
         23    2    1    2    0    0  0.37812106027E+02  0.84209316674E+02 -0.51110966066E+03  0.52720337617E+03  0.90495028833E+02 0.  0.
        -11    1    3    3    0    0 -0.41384866978E+02 -0.29497705281E+02  0.53482586358E+02  0.73778105662E+02  0.00000000000E+00 0.  1.
         12    1    3    3    0    0 -0.36196509599E+02 -0.86894117354E+02 -0.73324714162E+01  0.94416842115E+02  0.00000000000E+00 0. -1.
        -11    1    4    4    0    0  0.51130283200E+02  0.60863855194E+02 -0.47796889961E+03  0.48453377975E+03  0.00000000000E+00 0. -1.
         11    1    4    4    0    0 -0.13318177173E+02  0.23345461480E+02 -0.33140761052E+02  0.42669596413E+02  0.00000000000E+00 0.  1.
         21    1    1    2  502  501  0.39769270550E+02  0.32182505961E+02 -0.77509498104E+02  0.92871044284E+02  0.00000000000E+00 0. -1.
<scales pt_clust_5="13000.00000" pt_clust_6="13000.00000" pt_clust_7="13000.00000" pt_clust_8="13000.00000" pt_clust_9="51.15964"></scales>
<clustering>
<clus scale="   51.160">  2  9  1 -1</clus>
<clus scale="   81.202">  5  6 -1 -1</clus>
<clus scale="   90.495">  7  8 -1 -1</clus>
<clus scale="  157.327">  1  5  2 -1</clus>
<clus scale="   51.160">  2  5  1 -1</clus>
</clustering>
</event>
<event>
 9    2  0.5684583E-005  0.1190660E+03  0.7546771E-02  0.1250161E+00
         -1   -1    0    0    0  501 -0.00000000000E+00  0.00000000000E+00  0.32296638390E+03  0.32296638390E+03  0.00000000000E+00 0.  1.
          2   -1    0    0  502    0  0.00000000000E+00 -0.00000000000E+00 -0.32180401472E+03  0.32180401472E+03  0.00000000000E+00 0. -1.
         24    2    1    2    0    0 -0.54651857685E+02  0.19094900182E+02  0.90769691451E+02  0.13604765126E+03  0.83176834311E+02 0.  0.
         23    2    1    2    0    0  0.50932768191E+02 -0.45075497224E+02 -0.28625915113E+03  0.31032727151E+03  0.98654784526E+02 0.  0.
        -11    1    3    3    0    0 -0.57675576322E+02  0.44196179458E+02  0.81327388262E+02  0.10905924291E+03  0.00000000000E+00 0.  1.
         12    1    3    3    0    0  0.30237186369E+01 -0.25101279277E+02  0.94423031883E+01  0.26988408349E+02  0.00000000000E+00 0. -1.
        -13    1    4    4    0    0  0.18413186495E+02 -0.71864042842E+02 -0.14437340491E+03  0.16231810168E+03  0.00000000000E+00 0. -1.
         13    1    4    4    0    0  0.32519581696E+02  0.26788545618E+02 -0.14188574622E+03  0.14800916982E+03  0.00000000000E+00 0.  1.
         21    1    1    2  502  501  0.37190894937E+01  0.25980597043E+02  0.19665182886E+03  0.19839547586E+03  0.00000000000E+00 0.  1.
<scales pt_clust_5="13000.00000" pt_clust_6="13000.00000" pt_clust_7="13000.00000" pt_clust_8="13000.00000" pt_clust_9="26.24544"></scales>
<clustering>
<clus scale="   26.245">  1  9  2 -1</clus>
<clus scale="   83.177">  5  6 -1 -1</clus>
<clus scale="   98.655">  7  8 -1 -1</clus>
<clus scale="  106.594">  1  5  2 -1</clus>
<clus scale="  119.066">  2  5  1 -1</clus>
</clustering>
</event>
<event>
 9    2  0.5684583E-005  0.1036529E+03  0.7546771E-02  0.1279910E+00
          2   -1    0    0  502    0  0.00000000000E+00  0.00000000000E+00  0.13438030100E+03  0.13438030100E+03  0.00000000000E+00 0. -1.
         -1   -1    0    0    0  501 -0.00000000000E+00 -0.00000000000E+00 -0.30753722067E+03  0.30753722067E+03  0.00000000000E+00 0.  1.
         24    2    1    2    0    0 -0.63925635237E+02  0.15873739032E+02 -0.23303149629E+03  0.25507710602E+03  0.80138563259E+02 0.  0.
         23    2    1    2    0    0  0.30553510583E+02 -0.26265386389E+02  0.92940449055E+02  0.13872558468E+03  0.94781186128E+02 0.  0.
        -13    1    3    3    0    0 -0.52936636370E+02  0.13668720110E+02 -0.23697154104E+03  0.24319669537E+03  0.00000000000E+00 0.  1.
         14    1    3    3    0    0 -0.10988998867E+02  0.22050189218E+01  0.39400447454E+01  0.11880410647E+02  0.00000000000E+00 0. -1.
        -13    1    4    4    0    0  0.40056042249E+02  0.15702637106E+02  0.83602536827E+01  0.43828679815E+02  0.00000000000E+00 0. -1.
         13    1    4    4    0    0 -0.95025316654E+01 -0.41968023494E+02  0.84580195373E+02  0.94896904867E+02  0.00000000000E+00 0.  1.
         21    1    1    2  502  501  0.33372124654E+02  0.10391647357E+02 -0.33065872437E+02  0.48114830964E+02  0.00000000000E+00 0.  1.
<scales pt_clust_5="13000.00000" pt_clust_6="13000.00000" pt_clust_7="13000.00000" pt_clust_8="13000.00000" pt_clust_9="34.95261"></scales>
<clustering>
<clus scale="   34.953">  2  9  1 -1</clus>
<clus scale="   80.139">  5  6 -1 -1</clus>
<clus scale="   90.458">  2  5  1 -1</clus>
<clus scale="   94.781">  7  8 -1 -1</clus>
<clus scale="  103.653">  1  5  2 -1</clus>
</clustering>
</event>
<event>
 9    2  0.5684583E-005  0.1376308E+03  0.7546771E-02  0.1219067E+00
         -1   -1    0    0    0  501 -0.00000000000E+00  0.00000000000E+00  0.34606553841E+03  0.34606553841E+03  0.00000000000E+00 0.  1.
          2   -1    0    0  502    0  0.00000000000E+00 -0.00000000000E+00 -0.24323576751E+03  0.24323576751E+03  0.00000000000E+00 0. -1.
         23    2    1    2    0    0  0.56008461807E+02 -0.54194580777E+02  0.25788398796E+03  0.28434534290E+03  0.90962203147E+02 0.  0.
         24    2    1    2    0    0  0.11132616970E+02  0.10729348655E+03 -0.17153531535E+03  0.21778346246E+03  0.79808800824E+02 0.  0.
        -13    1    4    4    0    0  0.35015263096E+02  0.22059239455E+02 -0.82153865107E+02  0.91988783268E+02  0.00000000000E+00 0.  1.
         14    1    4    4    0    0 -0.23882646126E+02  0.85234247095E+02 -0.89381450246E+02  0.12579467919E+03  0.00000000000E+00 0. -1.
        -13    1    3    3    0    0  0.13585545982E+02 -0.64715940224E+02  0.20679733661E+03  0.21711254779E+03  0.00000000000E+00 0.  1.
         13    1    3    3    0    0  0.42422915825E+02  0.10521359447E+02  0.51086651351E+02  0.67232795108E+02  0.00000000000E+00 0. -1.
         21    1    1    2  502  501 -0.67141078778E+02 -0.53098905774E+02  0.16481098286E+02  0.87172500564E+02  0.00000000000E+00 0.  1.
<scales pt_clust_5="13000.00000" pt_clust_6="13000.00000" pt_clust_7="13000.00000" pt_clust_8="13000.00000" pt_clust_9="85.60034"></scales>
<clustering>
<clus scale="   79.809">  5  6 -1 -1</clus>
<clus scale="   85.600">  1  9  2 -1</clus>
<clus scale="   90.962">  7  8 -1 -1</clus>
<clus scale="  130.528">  2  5  1 -1</clus>
<clus scale="  130.528">  2  5  1 -1</clus>
</clustering>
</event>
<event>
 9    2  0.5684583E-005  0.1100417E+03  0.7546771E-02  0.1270155E+00
          2   -1    0    0  502    0  0.00000000000E+00  0.00000000000E+00  0.55509862975E+03  0.55509862975E+03  0.00000000000E+00 0. -1.
         -1   -1    0    0    0  501 -0.00000000000E+00 -0.00000000000E+00 -0.27210557082E+03  0.27210557082E+03  0.00000000000E+00 0.  1.
         23    2    1    2    0    0 -0.77426270630E+01 -0.18966011250E+02  0.13891998214E+02  0.10388491674E+03  0.10089316357E+03 0.  0.
         24    2    1    2    0    0 -0.22403107219E+02  0.41190267193E+02  0.49030034025E+03  0.49897177636E+03  0.79874104866E+02 0.  0.
        -13    1    4    4    0    0  0.23129382467E+02  0.23417809399E+01  0.57022055479E+02  0.61578949994E+02  0.00000000000E+00 0.  1.
         14    1    4    4    0    0 -0.45532489686E+02  0.38848486253E+02  0.43327828477E+03  0.43739282636E+03  0.00000000000E+00 0. -1.
        -13    1    3    3    0    0 -0.31299986215E+02  0.73276995427E+01  0.46030270533E+02  0.56144190466E+02  0.00000000000E+00 0. -1.
         13    1    3    3    0    0  0.23557359152E+02 -0.26293710793E+02 -0.32138272319E+02  0.47740726274E+02  0.00000000000E+00 0.  1.
         21    1    1    2  502  501  0.30145734282E+02 -0.22224255943E+02 -0.22119927953E+03  0.22434750748E+03  0.00000000000E+00 0.  1.
<scales pt_clust_5="13000.00000" pt_clust_6="13000.00000" pt_clust_7="13000.00000" pt_clust_8="13000.00000" pt_clust_9="37.45241"></scales>
<clustering>
<clus scale="   37.452">  2  9  1 -1</clus>
<clus scale="   79.874">  5  6 -1 -1</clus>
<clus scale="   91.157">  1  5  2 -1</clus>
<clus scale="  100.893">  7  8 -1 -1</clus>
<clus scale="   91.157">  1  5  2 -1</clus>
</clustering>
</event>
<event>
 9    2  0.5684583E-005  0.1051024E+03  0.7546771E-02  0.1273735E+00
          2   -1    0    0  502    0  0.00000000000E+00  0.00000000000E+00  0.45498958926E+03  0.45498958926E+03  0.00000000000E+00 0. -1.
         -1   -1    0    0    0  501 -0.00000000000E+00 -0.00000000000E+00 -0.53505152776E+02  0.53505152776E+02  0.00000000000E+00 0.  1.
         24    2    1    2    0    0 -0.14643358374E+02 -0.35685306244E+02  0.51047361812E+02  0.11767511481E+03  0.98760976458E+02 0.  0.
         23    2    1    2    0    0 -0.83262558151E+01  0.35668507318E+02  0.35425734715E+03  0.36753448303E+03  0.90784135504E+02 0.  0.
        -11    1    3    3    0    0  0.35020643419E+01  0.33659195084E+02  0.11093638698E+02  0.35612844424E+02  0.00000000000E+00 0.  1.
         12    1    3    3    0    0 -0.18145422716E+02 -0.69344501329E+02  0.39953723114E+02  0.82062270385E+02  0.00000000000E+00 0. -1.
        -11    1    4    4    0    0 -0.27527592623E+01  0.63063030737E+02  0.29920210706E+03  0.30578820186E+03  0.00000000000E+00 0.  1.
         11    1    4    4    0    0 -0.55734965528E+01 -0.27394523418E+02  0.55055240090E+02  0.61746281171E+02  0.00000000000E+00 0. -1.
         21    1    1    2  502  501  0.22969614189E+02  0.16798926135E-01 -0.38202724794E+01  0.23285144191E+02  0.00000000000E+00 0.  1.
<scales pt_clust_5="13000.00000" pt_clust_6="13000.00000" pt_clust_7="13000.00000" pt_clust_8="13000.00000" pt_clust_9="22.96962"></scales>
<clustering>
<clus scale="   22.970">  2  9  1 -1</clus>
<clus scale="   90.784">  7  8 -1 -1</clus>
<clus scale="   97.645">  1  7  2 -1</clus>
<clus scale="   98.761">  5  6 -1 -1</clus>
<clus scale="   97.645">  1  5  2 -1</clus>
</clustering>
</event>
<event>
 9    2  0.5684583E-005  0.1332735E+03  0.7546771E-02  0.1226319E+00
         -1   -1    0    0    0  501 -0.00000000000E+00  0.00000000000E+00  0.53561612774E+02  0.53561612774E+02  0.00000000000E+00 0.  1.
          2   -1    0    0  502    0  0.00000000000E+00 -0.00000000000E+00 -0.52281118314E+03  0.52281118314E+03  0.00000000000E+00 0. -1.
         23    2    1    2    0    0  0.10065519863E+03 -0.17026059827E+01 -0.12709383330E+03  0.18762549840E+03  0.94425194256E+02 0.  0.
         24    2    1    2    0    0 -0.88043069760E+02  0.29671616986E+02 -0.33567864031E+03  0.35738993548E+03  0.80096375933E+02 0.  0.
        -11    1    4    4    0    0 -0.23140958968E+02 -0.12900263623E+02 -0.22570246490E+02  0.34804264252E+02  0.00000000000E+00 0.  1.
         12    1    4    4    0    0 -0.64902110791E+02  0.42571880609E+02 -0.31310839382E+03  0.32258567123E+03  0.00000000000E+00 0. -1.
        -13    1    3    3    0    0  0.50100153713E+02  0.46359768354E+02 -0.61760099384E+02  0.92051960326E+02  0.00000000000E+00 0.  1.
         13    1    3    3    0    0  0.50555044919E+02 -0.48062374337E+02 -0.65333733911E+02  0.95573538076E+02  0.00000000000E+00 0. -1.
         21    1    1    2  502  501 -0.12612128873E+02 -0.27969011003E+02 -0.64770967671E+01  0.31357362034E+02  0.00000000000E+00 0. -1.
<scales pt_clust_5="13000.00000" pt_clust_6="13000.00000" pt_clust_7="13000.00000" pt_clust_8="13000.00000" pt_clust_9="30.68112"></scales>
<clustering>
<clus scale="   30.681">  1  9  2 -1</clus>
<clus scale="   80.096">  5  6 -1 -1</clus>
<clus scale="   94.425">  7  8 -1 -1</clus>
<clus scale="  123.536">  2  5  1 -1</clus>
<clus scale="  123.536">  2  5  1 -1</clus>
</clustering>
</event>
<event>
 9    2  0.5684583E-005  0.2804954E+03  0.7546771E-02  0.1095972E+00
         -1   -1    0    0    0  501 -0.00000000000E+00  0.00000000000E+00  0.28905526064E+03  0.28905526064E+03  0.00000000000E+00 0.  1.
          2   -1    0    0  502    0  0.00000000000E+00 -0.00000000000E+00 -0.57614160322E+03  0.57614160322E+03  0.00000000000E+00 0. -1.
         23    2    1    2    0    0 -0.21248861058E+03 -0.14346276801E+03  0.12511900729E+03  0.30015485613E+03  0.93301641149E+02 0.  0.
         24    2    1    2    0    0  0.22491721092E+03  0.20876456410E+03 -0.36457164558E+03  0.48326325460E+03  0.80377195117E+02 0.  0.
        -11    1    4    4    0    0  0.15850354132E+02  0.15251403775E+02 -0.70413725890E+02  0.73769450566E+02  0.00000000000E+00 0.  1.
         12    1    4    4    0    0  0.20906685679E+03  0.19351316032E+03 -0.29415791969E+03  0.40949380403E+03  0.00000000000E+00 0. -1.
        -13    1    3    3    0    0 -0.93519052549E+02 -0.28194965925E+02  0.94857850850E+01  0.98136381694E+02  0.00000000000E+00 0. -1.
         13    1    3    3    0    0 -0.11896955803E+03 -0.11526780208E+03  0.11563322220E+03  0.20201847443E+03  0.00000000000E+00 0.  1.
         21    1    1    2  502  501 -0.12428600343E+02 -0.65301796087E+02 -0.47633704296E+02  0.81778753131E+02  0.00000000000E+00 0. -1.
<scales pt_clust_5="13000.00000" pt_clust_6="13000.00000" pt_clust_7="13000.00000" pt_clust_8="13000.00000" pt_clust_9="66.47402"></scales>
<clustering>
<clus scale="   66.474">  2  9  1 -1</clus>
<clus scale="   80.377">  5  6 -1 -1</clus>
<clus scale="   93.302">  7  8 -1 -1</clus>
<clus scale="  276.465">  2  5  1 -1</clus>
<clus scale="   66.474">  2  5  1 -1</clus>
</clustering>
</event>
<event>
 9    2  0.5684583E-005  0.1300474E+03  0.7546771E-02  0.1230571E+00
          2   -1    0    0  502    0  0.00000000000E+00  0.00000000000E+00  0.17173621202E+03  0.17173621202E+03  0.00000000000E+00 0. -1.
         -1   -1    0    0    0  501 -0.00000000000E+00 -0.00000000000E+00 -0.16859521304E+03  0.16859521304E+03  0.00000000000E+00 0.  1.
         23    2    1    2    0    0  0.55116719687E+02  0.36103298147E+02 -0.54364565923E+02  0.12616153803E+03  0.92843560483E+02 0.  0.
         24    2    1    2    0    0 -0.71633044481E+02 -0.70496923230E+02  0.95381622147E+02  0.16040831950E+03  0.80821196936E+02 0.  0.
        -13    1    4    4    0    0 -0.40303271727E+02 -0.56392123424E+02  0.12159204729E+02  0.70372377790E+02  0.00000000000E+00 0.  1.
         14    1    4    4    0    0 -0.31329772753E+02 -0.14104799806E+02  0.83222417418E+02  0.90035941708E+02  0.00000000000E+00 0. -1.
        -11    1    3    3    0    0  0.51356038649E+01 -0.19823651821E+02 -0.46419352199E+02  0.50735666519E+02  0.00000000000E+00 0.  1.
         11    1    3    3    0    0  0.49981115823E+02  0.55926949968E+02 -0.79452137243E+01  0.75425871508E+02  0.00000000000E+00 0. -1.
         21    1    1    2  502  501  0.16516324793E+02  0.34393625083E+02 -0.37876057245E+02  0.53761567531E+02  0.00000000000E+00 0.  1.
<scales pt_clust_5="13000.00000" pt_clust_6="13000.00000" pt_clust_7="13000.00000" pt_clust_8="13000.00000" pt_clust_9="38.15377"></scales>
<clustering>
<clus scale="   38.154">  2  9  1 -1</clus>
<clus scale="   80.821">  5  6 -1 -1</clus>
<clus scale="   92.844">  7  8 -1 -1</clus>
<clus scale="  121.756">  1  5  2 -1</clus>
<clus scale="  121.756">  1  5  2 -1</clus>
</clustering>
</event>
<event>
 9    2  0.5684583E-005  0.1172544E+03  0.7546771E-02  0.1255637E+00
          2   -1    0    0  502    0  0.00000000000E+00  0.00000000000E+00  0.54291149197E+03  0.54291149197E+03  0.00000000000E+00 0. -1.
         -1   -1    0    0    0  501 -0.00000000000E+00 -0.00000000000E+00 -0.10844071132E+03  0.10844071132E+03  0.00000000000E+00 0.  1.
         23    2    1    2    0    0  0.36054482711E+02 -0.29921939678E+02  0.17150692277E+03  0.20414555231E+03  0.10032713379E+03 0.  0.
         24    2    1    2    0    0 -0.48766092155E+02  0.46275559291E+02  0.34614462404E+03  0.36148579150E+03  0.79600989783E+02 0.  0.
        -13    1    4    4    0    0 -0.30932487288E+01  0.45614189081E+02  0.25991246746E+03  0.26390284798E+03  0.00000000000E+00 0.  1.
         14    1    4    4    0    0 -0.45672843426E+02  0.66137021007E+00  0.86232156584E+02  0.97582943521E+02  0.00000000000E+00 0. -1.
        -11    1    3    3    0    0  0.53611273399E+02  0.25370213050E+01  0.38336881848E+02  0.65956967959E+02  0.00000000000E+00 0.  1.
         11    1    3    3    0    0 -0.17556790688E+02 -0.32458960983E+02  0.13317004092E+03  0.13818858435E+03  0.00000000000E+00 0. -1.
         21    1    1    2  502  501  0.12711609444E+02 -0.16353619613E+02 -0.83180766162E+02  0.85720859470E+02  0.00000000000E+00 0. -1.
<scales pt_clust_5="13000.00000" pt_clust_6="13000.00000" pt_clust_7="13000.00000" pt_clust_8="13000.00000" pt_clust_9="20.71294"></scales>
<clustering>
<clus scale="   20.713">  2  9  1 -1</clus>
<clus scale="   79.601">  5  6 -1 -1</clus>
<clus scale="  100.097">  1  5  2 -1</clus>
<clus scale="  100.327">  7  8 -1 -1</clus>
<clus scale="  100.097">  1  5  2 -1</clus>
</clustering>
</event>
<event>
 9    2  0.5684583E-005  0.9793323E+02  0.7546771E-02  0.1289192E+00
          2   -1    0    0  502    0  0.00000000000E+00  0.00000000000E+00  0.21211525464E+03  0.21211525464E+03  0.00000000000E+00 0. -1.
         -1   -1    0    0    0  501 -0.00000000000E+00 -0.00000000000E+00 -0.18258156783E+03  0.18258156783E+03  0.00000000000E+00 0.  1.
         23    2    1    2    0    0  0.42880909332E+02 -0.44378249594E+02 -0.93108487719E+02  0.14231119867E+03  0.88176444464E+02 0.  0.
         24    2    1    2    0    0 -0.20520194353E+02  0.35509327872E+02  0.17406551318E+03  0.19561398383E+03  0.79271918433E+02 0.  0.
        -11    1    4    4    0    0  0.86583148741E+01  0.41189583885E+02  0.39218898604E+02  0.57529733572E+02  0.00000000000E+00 0.  1.
         12    1    4    4    0    0 -0.29178509227E+02 -0.56802560133E+01  0.13484661457E+03  0.13808425026E+03  0.00000000000E+00 0. -1.
        -11    1    3    3    0    0  0.62995982802E+02 -0.17386069655E+02 -0.85817776507E+02  0.10786778959E+03  0.00000000000E+00 0.  1.
         11    1    3    3    0    0 -0.20115073470E+02 -0.26992179938E+02 -0.72907112122E+01  0.34443409072E+02  0.00000000000E+00 0. -1.
         21    1    1    2  502  501 -0.22360714979E+02  0.88689217219E+01 -0.51423338644E+02  0.56771639964E+02  0.00000000000E+00 0. -1.
<scales pt_clust_5="13000.00000" pt_clust_6="13000.00000" pt_clust_7="13000.00000" pt_clust_8="13000.00000" pt_clust_9="24.05534"></scales>
<clustering>
<clus scale="   24.055">  2  9  1 -1</clus>
<clus scale="   79.272">  5  6 -1 -1</clus>
<clus scale="   88.176">  7  8 -1 -1</clus>
<clus scale="   89.999">  1  5  2 -1</clus>
<clus scale="   89.999">  1  5  2 -1</clus>
</clustering>
</event>
<event>
 9    2  0.5684583E-005  0.1338871E+03  0.7546771E-02  0.1225908E+00
         -1   -1    0    0    0  501 -0.00000000000E+00  0.00000000000E+00  0.12669011588E+03  0.12669011588E+03  0.00000000000E+00 0.  1.
          2   -1    0    0  502    0  0.00000000000E+00 -0.00000000000E+00 -0.35621571341E+03  0.35621571341E+03  0.00000000000E+00 0. -1.
         24    2    1    2    0    0  0.85589675311E+02 -0.28835932149E+02 -0.78245550385E+02  0.14318415002E+03  0.78881120418E+02 0.  0.
         23    2    1    2    0    0 -0.84041762569E+02  0.48844430570E+02 -0.22522604257E+03  0.26310088391E+03  0.95113135852E+02 0.  0.
        -13    1    3    3    0    0  0.64882300414E+02 -0.53013445881E+02 -0.38352578171E+02  0.92146940283E+02  0.00000000000E+00 0.  1.
         14    1    3    3    0    0  0.20707374898E+02  0.24177513732E+02 -0.39892972215E+02  0.51037209735E+02  0.00000000000E+00 0. -1.
        -11    1    4    4    0    0 -0.55343907153E+02  0.47671085687E+02 -0.57574954752E+02  0.93007289414E+02  0.00000000000E+00 0.  1.
         11    1    4    4    0    0 -0.28697855416E+02  0.11733448835E+01 -0.16765108782E+03  0.17009359450E+03  0.00000000000E+00 0. -1.
         21    1    1    2  502  501 -0.15479127419E+01 -0.20008498421E+02  0.73945995425E+02  0.76620795364E+02  0.00000000000E+00 0.  1.
<scales pt_clust_5="13000.00000" pt_clust_6="13000.00000" pt_clust_7="13000.00000" pt_clust_8="13000.00000" pt_clust_9="20.06828"></scales>
<clustering>
<clus scale="   20.068">  1  9  2 -1</clus>
<clus scale="   78.881">  5  6 -1 -1</clus>
<clus scale="   95.113">  7  8 -1 -1</clus>
<clus scale="  122.888">  1  5  2 -1</clus>
<clus scale="  133.887">  2  5  1 -1</clus>
</clustering>
</event>
<event>
 9    2  0.5684583E-005  0.1514090E+03  0.7546771E-02  0.1229455E+00
          2   -1    0    0  502    0  0.00000000000E+00  0.00000000000E+00  0.11458438011E+04  0.11458438011E+04  0.00000000000E+00 0. -1.
         -1   -1    0    0    0  501 -0.00000000000E+00 -0.00000000000E+00 -0.94075579712E+02  0.94075579712E+02  0.00000000000E+00 0.  1.
         23    2    1    2    0    0  0.85122463635E+02  0.85252993042E+02 -0.17099452692E+02  0.15245721600E+03  0.91852625378E+02 0.  0.
         24    2    1    2    0    0 -0.23712363486E+01  0.57627968899E+00  0.35172853010E+03  0.36048005946E+03  0.78911086196E+02 0.  0.
        -11    1    4    4    0    0  0.37824813850E+02 -0.26448115928E+01  0.14649713689E+03  0.15132456076E+03  0.00000000000E+00 0.  1.
         12    1    4    4    0    0 -0.40196050199E+02  0.32210912818E+01  0.20523139320E+03  0.20915549870E+03  0.00000000000E+00 0. -1.
        -11    1    3    3    0    0  0.58682827208E+02  0.15509489062E+02  0.26313510034E+02  0.66156022178E+02  0.00000000000E+00 0. -1.
         11    1    3    3    0    0  0.26439636427E+02  0.69743503979E+02 -0.43412962726E+02  0.86301193818E+02  0.00000000000E+00 0.  1.
         21    1    1    2  502  501 -0.82751227286E+02 -0.85829272731E+02  0.71713914402E+03  0.72698210539E+03  0.00000000000E+00 0. -1.
<scales pt_clust_5="13000.00000" pt_clust_6="13000.00000" pt_clust_7="13000.00000" pt_clust_8="13000.00000" pt_clust_9="120.36518"></scales>
<clustering>
<clus scale="   78.911">  5  6 -1 -1</clus>
<clus scale="   78.949">  1  5  2 -1</clus>
<clus scale="   91.853">  7  8 -1 -1</clus>
<clus scale="  120.365">  1  9  2 -1</clus>
<clus scale="   78.949">  1  5  2 -1</clus>
</clustering>
</event>
<event>
 9    2  0.5684583E-005  0.1409746E+03  0.7546771E-02  0.1214521E+00
          4   -1    0    0  502    0  0.00000000000E+00  0.00000000000E+00  0.98903853264E+02  0.98903853264E+02  0.00000000000E+00 0. -1.
         -3   -1    0    0    0  501 -0.00000000000E+00 -0.00000000000E+00 -0.56400016318E+03  0.56400016318E+03  0.00000000000E+00 0.  1.
         23    2    1    2    0    0  0.71583609391E+02  0.86340835767E+02 -0.44950034924E+03  0.47218102366E+03  0.91243641333E+02 0.  0.
         24    2    1    2    0    0 -0.13766267917E+02 -0.87772857772E+02  0.22664274558E+02  0.12137790455E+03  0.79532016679E+02 0.  0.
        -11    1    4    4    0    0  0.30119180546E+02 -0.30490295461E+02 -0.68727362000E+01  0.43405732997E+02  0.00000000000E+00 0.  1.
         12    1    4    4    0    0 -0.43885448463E+02 -0.57282562311E+02  0.29537010758E+02  0.77972171550E+02  0.00000000000E+00 0. -1.
        -13    1    3    3    0    0  0.46369078451E+02  0.10367413802E+03 -0.36799043909E+03  0.38511736080E+03  0.00000000000E+00 0.  1.
         13    1    3    3    0    0  0.25214530939E+02 -0.17333302252E+02 -0.81509910153E+02  0.87063662860E+02  0.00000000000E+00 0. -1.
         21    1    1    2  502  501 -0.57817341474E+02  0.14320220046E+01 -0.38260235231E+02  0.69345088233E+02  0.00000000000E+00 0. -1.
<scales pt_clust_5="13000.00000" pt_clust_6="13000.00000" pt_clust_7="13000.00000" pt_clust_8="13000.00000" pt_clust_9="57.83507"></scales>
<clustering>
<clus scale="   57.835">  1  9  2 -1</clus>
<clus scale="   79.532">  5  6 -1 -1</clus>
<clus scale="   91.244">  7  8 -1 -1</clus>
<clus scale="  133.693">  1  5  2 -1</clus>
<clus scale="   57.835">  1  5  2 -1</clus>
</clustering>
</event>
<event>
 9    2  0.5684583E-005  0.1775695E+03  0.7546771E-02  0.1171499E+00
          4   -1    0    0  502    0  0.00000000000E+00  0.00000000000E+00  0.11746211757E+03  0.11746211757E+03  0.00000000000E+00 0. -1.
         -3   -1    0    0    0  501 -0.00000000000E+00 -0.00000000000E+00 -0.53824413708E+03  0.53824413708E+03  0.00000000000E+00 0.  1.
         24    2    1    2    0    0 -0.10359020214E+03 -0.14060577252E+02 -0.23193916496E+03  0.26696525824E+03  0.80907620476E+02 0.  0.
         23    2    1    2    0    0  0.15972547058E+03  0.67073605028E+02 -0.12661602174E+02  0.19638356047E+03  0.91624735795E+02 0.  0.
        -11    1    3    3    0    0  0.52771599716E+01 -0.22226681188E+02 -0.45520276717E+02  0.50931025577E+02  0.00000000000E+00 0.  1.
         12    1    3    3    0    0 -0.10886736212E+03  0.81661039363E+01 -0.18641888824E+03  0.21603423266E+03  0.00000000000E+00 0. -1.
        -11    1    4    4    0    0  0.70905229409E+02 -0.15264436255E+02 -0.19409290950E+02  0.75081789716E+02  0.00000000000E+00 0.  1.
         11    1    4    4    0    0  0.88820241167E+02  0.82338041284E+02  0.67476887759E+01  0.12130177075E+03  0.00000000000E+00 0. -1.
         21    1    1    2  502  501 -0.56135268432E+02 -0.53013027777E+02 -0.17618125237E+03  0.19235743594E+03  0.00000000000E+00 0.  1.
<scales pt_clust_5="13000.00000" pt_clust_6="13000.00000" pt_clust_7="13000.00000" pt_clust_8="13000.00000" pt_clust_9="77.21107"></scales>
<clustering>
<clus scale="   77.211">  2  9  1 -1</clus>
<clus scale="   80.908">  5  6 -1 -1</clus>
<clus scale="   91.625">  7  8 -1 -1</clus>
<clus scale="  172.284">  2  5  1 -1</clus>
<clus scale="  177.569">  1  5  2 -1</clus>
</clustering>
</event>
<event>
 9    2  0.5684583E-005  0.1123514E+03  0.7546771E-02  0.1262283E+00
         -1   -1    0    0    0  501 -0.00000000000E+00  0.00000000000E+00  0.11563514412E+03  0.11563514412E+03  0.00000000000E+00 0.  1.
          2   -1    0    0  502    0  0.00000000000E+00 -0.00000000000E+00 -0.64698112601E+03  0.64698112601E+03  0.00000000000E+00 0. -1.
         23    2    1    2    0    0 -0.31266729506E+02 -0.20677903058E+02  0.68823014310E+02  0.12179481201E+03  0.93231887703E+02 0.  0.
         24    2    1    2    0    0  0.42287320896E+02  0.47840437365E+02 -0.60304148006E+03  0.61136797161E+03  0.77684265357E+02 0.  0.
        -13    1    4    4    0    0 -0.12410300464E+02  0.37618248176E+02 -0.15930217356E+03  0.16415337540E+03  0.00000000000E+00 0.  1.
         14    1    4    4    0    0  0.54697621360E+02  0.10222189189E+02 -0.44373930649E+03  0.44721459621E+03  0.00000000000E+00 0. -1.
        -13    1    3    3    0    0 -0.56194565258E+02 -0.76157563374E+01  0.73948484089E+02  0.93189093827E+02  0.00000000000E+00 0.  1.
         13    1    3    3    0    0  0.24927835752E+02 -0.13062146721E+02 -0.51254697795E+01  0.28605718182E+02  0.00000000000E+00 0. -1.
         21    1    1    2  502  501 -0.11020591390E+02 -0.27162534307E+02  0.28724838534E+01  0.29453486518E+02  0.00000000000E+00 0.  1.
<scales pt_clust_5="13000.00000" pt_clust_6="13000.00000" pt_clust_7="13000.00000" pt_clust_8="13000.00000" pt_clust_9="29.31308"></scales>
<clustering>
<clus scale="   29.313">  1  9  2 -1</clus>
<clus scale="   77.684">  5  6 -1 -1</clus>
<clus scale="   93.232">  7  8 -1 -1</clus>
<clus scale="   99.827">  2  5  1 -1</clus>
<clus scale="   99.827">  2  5  1 -1</clus>
</clustering>
</event>
<event>
 9    2  0.5684583E-005  0.1089285E+03  0.7546771E-02  0.1265958E+00
         -1   -1    0    0    0  501 -0.00000000000E+00  0.00000000000E+00  0.88562022558E+02  0.88562022558E+02  0.00000000000E+00 0.  1.
          2   -1    0    0  502    0  0.00000000000E+00 -0.00000000000E+00 -0.66866635706E+03  0.66866635706E+03  0.00000000000E+00 0. -1.
         23    2    1    2    0    0 -0.76399995709E+02 -0.51244428941E+02  0.20916560209E+02  0.12980622466E+03  0.89158300940E+02 0.  0.
         24    2    1    2    0    0  0.36298633102E+02  0.49174668682E+02 -0.56341545185E+03  0.57240786115E+03  0.80486330038E+02 0.  0.
        -13    1    4    4    0    0  0.19765912604E+00  0.47852932799E+02 -0.15071971409E+03  0.15813403954E+03  0.00000000000E+00 0.  1.
         14    1    4    4    0    0  0.36100973976E+02  0.13217358834E+01 -0.41269573776E+03  0.41427382161E+03  0.00000000000E+00 0. -1.
        -11    1    3    3    0    0 -0.58327187156E+02 -0.76505198159E+02  0.93279663453E+01  0.96654627737E+02  0.00000000000E+00 0.  1.
         11    1    3    3    0    0 -0.18072808554E+02  0.25260769218E+02  0.11588593864E+02  0.33151596918E+02  0.00000000000E+00 0. -1.
         21    1    1    2  502  501  0.40101362607E+02  0.20697602591E+01 -0.37605442864E+02  0.55014293811E+02  0.00000000000E+00 0.  1.
<scales pt_clust_5="13000.00000" pt_clust_6="13000.00000" pt_clust_7="13000.00000" pt_clust_8="13000.00000" pt_clust_9="40.15474"></scales>
<clustering>
<clus scale="   40.155">  1  9  2 -1</clus>
<clus scale="   80.486">  5  6 -1 -1</clus>
<clus scale="   89.158">  7  8 -1 -1</clus>
<clus scale="  101.952">  2  5  1 -1</clus>
<clus scale="  101.952">  2  5  1 -1</clus>
</clustering>
</event>
<event>
 9    2  0.5684583E-005  0.1024437E+03  0.7546771E-02  0.1281002E+00
          2   -1    0    0  502    0  0.00000000000E+00  0.00000000000E+00  0.12983535950E+03  0.12983535950E+03  0.00000000000E+00 0. -1.
         -1   -1    0    0    0  501 -0.00000000000E+00 -0.00000000000E+00 -0.21069229493E+03  0.21069229493E+03  0.00000000000E+00 0.  1.
         23    2    1    2    0    0 -0.38313465770E+02  0.64134551234E+01 -0.10348764410E+03  0.14485932657E+03  0.93624131216E+02 0.  0.
         24    2    1    2    0    0  0.36943606630E+02  0.22809901176E+02  0.85674553998E+02  0.12616719478E+03  0.81810208247E+02 0.  0.
        -13    1    4    4    0    0 -0.14007339001E+02 -0.20749098109E+02  0.17407516317E+02  0.30491838950E+02  0.00000000000E+00 0.  1.
         14    1    4    4    0    0  0.50950945631E+02  0.43558999285E+02  0.68267037682E+02  0.95675355830E+02  0.00000000000E+00 0. -1.
        -11    1    3    3    0    0  0.23858697807E+02  0.39025941592E+01 -0.81619192322E-01  0.24175904614E+02  0.00000000000E+00 0. -1.
         11    1    3    3    0    0 -0.62172163578E+02  0.25108609642E+01 -0.10340602491E+03  0.12068342195E+03  0.00000000000E+00 0.  1.
         21    1    1    2  502  501  0.13698591407E+01 -0.29223356299E+02 -0.63043845324E+02  0.69501133089E+02  0.00000000000E+00 0.  1.
<scales pt_clust_5="13000.00000" pt_clust_6="13000.00000" pt_clust_7="13000.00000" pt_clust_8="13000.00000" pt_clust_9="29.25545"></scales>
<clustering>
<clus scale="   29.255">  2  9  1 -1</clus>
<clus scale="   81.810">  5  6 -1 -1</clus>
<clus scale="   91.772">  1  5  2 -1</clus>
<clus scale="   93.624">  7  8 -1 -1</clus>
<clus scale="   91.772">  1  5  2 -1</clus>
</clustering>
</event>
<event>
 9    2  0.5684583E-005  0.1522922E+03  0.7546771E-02  0.1205011E+00
         -1   -1    0    0    0  501 -0.00000000000E+00  0.00000000000E+00  0.26215349248E+03  0.26215349248E+03  0.00000000000E+00 0.  1.
          2   -1    0    0  502    0  0.00000000000E+00 -0.00000000000E+00 -0.34412383979E+03  0.34412383979E+03  0.00000000000E+00 0. -1.
         23    2    1    2    0    0  0.45041334316E+02 -0.70765119019E+02  0.17681378886E+03  0.22573304620E+03  0.11249830377E+03 0.  0.
         24    2    1    2    0    0 -0.38533730107E+02  0.96609318525E+02 -0.30232638788E+03  0.32949333853E+03  0.79664336696E+02 0.  0.
        -11    1    4    4    0    0 -0.59850429147E+00  0.48396910158E+02 -0.49112897874E+02  0.68954302678E+02  0.00000000000E+00 0.  1.
         12    1    4    4    0    0 -0.37935225816E+02  0.48212408366E+02 -0.25321349001E+03  0.26053903585E+03  0.00000000000E+00 0. -1.
        -11    1    3    3    0    0  0.70823625159E+02 -0.82717879835E+02  0.11895282047E+03  0.16126998178E+03  0.00000000000E+00 0.  1.
         11    1    3    3    0    0 -0.25782290843E+02  0.11952760817E+02  0.57860968389E+02  0.64463064425E+02  0.00000000000E+00 0. -1.
         21    1    1    2  502  501 -0.65076042088E+01 -0.25844199506E+02  0.43542251720E+02  0.51050947548E+02  0.00000000000E+00 0.  1.
<scales pt_clust_5="13000.00000" pt_clust_6="13000.00000" pt_clust_7="13000.00000" pt_clust_8="13000.00000" pt_clust_9="26.65092"></scales>
<clustering>
<clus scale="   26.651">  1  9  2 -1</clus>
<clus scale="   79.664">  5  6 -1 -1</clus>
<clus scale="  112.498">  7  8 -1 -1</clus>
<clus scale="  129.936">  2  5  1 -1</clus>
<clus scale="  129.936">  2  5  1 -1</clus>
</clustering>
</event>
<event>
 9    2  0.5684583E-005  0.9527033E+02  0.7546771E-02  0.1297685E+00
         -1   -1    0    0    0  501 -0.00000000000E+00  0.00000000000E+00  0.72850253914E+02  0.72850253914E+02  0.00000000000E+00 0.  1.
          2   -1    0    0  502    0  0.00000000000E+00 -0.00000000000E+00 -0.34192492843E+03  0.34192492843E+03  0.00000000000E+00 0. -1.
         23    2    1    2    0    0  0.36725792146E+01  0.27365372308E+02 -0.10356982380E+03  0.14171622257E+03  0.92706137318E+02 0.  0.
         24    2    1    2    0    0  0.17230150668E+02  0.57487195000E+02 -0.15548972029E+03  0.18509768914E+03  0.80513636896E+02 0.  0.
        -11    1    4    4    0    0  0.29634139983E+02  0.34451355738E+02 -0.24710381045E+02  0.51726986149E+02  0.00000000000E+00 0.  1.
         12    1    4    4    0    0 -0.12403989315E+02  0.23035839262E+02 -0.13077933925E+03  0.13337070299E+03  0.00000000000E+00 0. -1.
        -13    1    3    3    0    0 -0.14514344067E+02 -0.31061533225E+02 -0.26647290863E+02  0.43423071521E+02  0.00000000000E+00 0.  1.
         13    1    3    3    0    0  0.18186923281E+02  0.58426905533E+02 -0.76922532938E+02  0.98293151045E+02  0.00000000000E+00 0. -1.
         21    1    1    2  502  501 -0.20902729883E+02 -0.84852567308E+02 -0.10015130422E+02  0.87961270640E+02  0.00000000000E+00 0.  1.
<scales pt_clust_5="13000.00000" pt_clust_6="13000.00000" pt_clust_7="13000.00000" pt_clust_8="13000.00000" pt_clust_9="87.38926"></scales>
<clustering>
<clus scale="   80.514">  5  6 -1 -1</clus>
<clus scale="   87.389">  1  9  2 -1</clus>
<clus scale="   83.453">  2  5  1 -1</clus>
<clus scale="   92.706">  7  8 -1 -1</clus>
<clus scale="   83.453">  2  5  1 -1</clus>
</clustering>
</event>
<event>
 9    2  0.5684583E-005  0.1035830E+03  0.7546771E-02  0.1277760E+00
         -1   -1    0    0    0  501 -0.00000000000E+00  0.00000000000E+00  0.14684444129E+02  0.14684444129E+02  0.00000000000E+00 0.  1.
          2   -1    0    0  502    0  0.00000000000E+00 -0.00000000000E+00 -0.10749572367E+04  0.10749572367E+04  0.00000000000E+00 0. -1.
         23    2    1    2    0    0  0.23024981051E+02 -0.37892997290E+02 -0.27336770787E+03  0.29186176773E+03  0.92126862319E+02 0.  0.
         24    2    1    2    0    0 -0.45838751094E+02  0.21203418466E+02 -0.69556122298E+03  0.70216238741E+03  0.81705736156E+02 0.  0.
        -11    1    4    4    0    0 -0.34849308828E+02 -0.26804030343E+02 -0.24458987139E+03  0.24850982990E+03  0.00000000000E+00 0.  1.
         12    1    4    4    0    0 -0.10989442267E+02  0.48007448808E+02 -0.45097135159E+03  0.45365255751E+03  0.00000000000E+00 0. -1.
        -11    1    3    3    0    0 -0.32706955636E+02 -0.29093406302E+02 -0.91292554679E+02  0.10124476173E+03  0.00000000000E+00 0.  1.
         11    1    3    3    0    0  0.55731936687E+02 -0.87995909886E+01 -0.18207515319E+03  0.19061700600E+03  0.00000000000E+00 0. -1.
         21    1    1    2  502  501  0.22813770043E+02  0.16689578825E+02 -0.91343861716E+02  0.95617525685E+02  0.00000000000E+00 0. -1.
<scales pt_clust_5="13000.00000" pt_clust_6="13000.00000" pt_clust_7="13000.00000" pt_clust_8="13000.00000" pt_clust_9="28.26677"></scales>
<clustering>
<clus scale="   28.267">  1  9  2 -1</clus>
<clus scale="   81.706">  5  6 -1 -1</clus>
<clus scale="   92.127">  7  8 -1 -1</clus>
<clus scale="   94.435">  2  5  1 -1</clus>
<clus scale="   94.435">  2  5  1 -1</clus>
</clustering>
</event>
<event>
 9    2  0.5684583E-005  0.1510220E+03  0.7546771E-02  0.1202100E+00
          2   -1    0    0  502    0  0.00000000000E+00  0.00000000000E+00  0.62451935949E+03  0.62451935949E+03  0.00000000000E+00 0. -1.
         -1   -1    0    0    0  501 -0.00000000000E+00 -0.00000000000E+00 -0.19553074602E+03  0.19553074602E+03  0.00000000000E+00 0.  1.
         24    2    1    2    0    0  0.44714613520E+02  0.92333582466E+02  0.17651108371E+03  0.21995883524E+03  0.81858655090E+02 0.  0.
         23    2    1    2    0    0 -0.61020487970E+02 -0.10903963830E+03  0.41074228744E+03  0.44011406136E+03  0.96840165412E+02 0.  0.
        -13    1    3    3    0    0  0.36847980475E+02  0.85030317935E+02  0.78755301093E+02  0.12161548456E+03  0.00000000000E+00 0.  1.
         14    1    3    3    0    0  0.78666330451E+01  0.73032645305E+01  0.97755782619E+02  0.98343350684E+02  0.00000000000E+00 0. -1.
        -13    1    4    4    0    0 -0.54117723427E+02 -0.19858338609E+02  0.87955888477E+02  0.10516330120E+03  0.00000000000E+00 0.  1.
         13    1    4    4    0    0 -0.69027645430E+01 -0.89181299690E+02  0.32278639897E+03  0.33495076016E+03  0.00000000000E+00 0. -1.
         21    1    1    2  502  501  0.16305874450E+02  0.16706055833E+02 -0.15826475769E+03  0.15997720891E+03  0.00000000000E+00 0.  1.
<scales pt_clust_5="13000.00000" pt_clust_6="13000.00000" pt_clust_7="13000.00000" pt_clust_8="13000.00000" pt_clust_9="23.34467"></scales>
<clustering>
<clus scale="   23.345">  2  9  1 -1</clus>
<clus scale="   81.859">  5  6 -1 -1</clus>
<clus scale="   96.840">  7  8 -1 -1</clus>
<clus scale="  141.882">  2  5  1 -1</clus>
<clus scale="  151.022">  1  5  2 -1</clus>
</clustering>
</event>
<event>
 9    2  0.5684583E-005  0.1072675E+03  0.7546771E-02  0.1273471E+00
         -1   -1    0    0    0  501 -0.00000000000E+00  0.00000000000E+00  0.13891925507E+03  0.13891925507E+03  0.00000000000E+00 0.  1.
          2   -1    0    0  502    0  0.00000000000E+00 -0.00000000000E+00 -0.48582059178E+03  0.48582059178E+03  0.00000000000E+00 0. -1.
         23    2    1    2    0    0 -0.25996111120E+02 -0.27431905285E+02 -0.33814122838E+02  0.10530822115E+03  0.92293658060E+02 0.  0.
         24    2    1    2    0    0  0.58473681350E+02 -0.13425468637E+02 -0.40370208403E+03  0.41486025167E+03  0.74392480473E+02 0.  0.
        -13    1    4    4    0    0  0.60949366449E+02  0.12120210681E+02 -0.19694974973E+03  0.20652101272E+03  0.00000000000E+00 0.  1.
         14    1    4    4    0    0 -0.24756850984E+01 -0.25545679318E+02 -0.20675233430E+03  0.20833923895E+03  0.00000000000E+00 0. -1.
        -11    1    3    3    0    0 -0.49592799491E+02  0.14447071703E+02 -0.16837681379E+02  0.54329284519E+02  0.00000000000E+00 0.  1.
         11    1    3    3    0    0  0.23596688371E+02 -0.41878976988E+02 -0.16976441459E+02  0.50978936633E+02  0.00000000000E+00 0. -1.
         21    1    1    2  502  501 -0.32477570230E+02  0.40857373922E+02  0.90614870161E+02  0.10457137403E+03  0.00000000000E+00 0.  1.
<scales pt_clust_5="13000.00000" pt_clust_6="13000.00000" pt_clust_7="13000.00000" pt_clust_8="13000.00000" pt_clust_9="52.19308"></scales>
<clustering>
<clus scale="   52.193">  1  9  2 -1</clus>
<clus scale="   74.392">  5  6 -1 -1</clus>
<clus scale="   92.294">  7  8 -1 -1</clus>
<clus scale="   92.317">  2  5  1 -1</clus>
<clus scale="   92.317">  2  5  1 -1</clus>
</clustering>
</event>
<event>
 9    2  0.5684583E-005  0.9951865E+02  0.7546771E-02  0.1285044E+00
          2   -1    0    0  502    0  0.00000000000E+00  0.00000000000E+00  0.62451148382E+03  0.62451148382E+03  0.00000000000E+00 0. -1.
         -1   -1    0    0    0  501 -0.00000000000E+00 -0.00000000000E+00 -0.83186526471E+02  0.83186526471E+02  0.00000000000E+00 0.  1.
         23    2    1    2    0    0 -0.27830226287E+02  0.11123805518E+03  0.62941257697E+02  0.15737435395E+03  0.87502336793E+02 0.  0.
         24    2    1    2    0    0  0.10938866338E+02 -0.39852047845E+02  0.46764601553E+03  0.47618474656E+03  0.79694871235E+02 0.  0.
        -13    1    4    4    0    0  0.36131627132E+02  0.66873362921E+01  0.18032666047E+03  0.18403238689E+03  0.00000000000E+00 0.  1.
         14    1    4    4    0    0 -0.25192760794E+02 -0.46539384137E+02  0.28731935505E+03  0.29215235967E+03  0.00000000000E+00 0. -1.
        -11    1    3    3    0    0 -0.10949287898E+02  0.73514803580E+02  0.83017446191E+02  0.11142804684E+03  0.00000000000E+00 0.  1.
         11    1    3    3    0    0 -0.16880938389E+02  0.37723251598E+02 -0.20076188494E+02  0.45946307103E+02  0.00000000000E+00 0. -1.
         21    1    1    2  502  501  0.16891359949E+02 -0.71386007333E+02  0.10737684122E+02  0.74138909785E+02  0.00000000000E+00 0.  1.
<scales pt_clust_5="13000.00000" pt_clust_6="13000.00000" pt_clust_7="13000.00000" pt_clust_8="13000.00000" pt_clust_9="73.35721"></scales>
<clustering>
<clus scale="   73.357">  2  9  1 -1</clus>
<clus scale="   79.695">  5  6 -1 -1</clus>
<clus scale="   87.502">  7  8 -1 -1</clus>
<clus scale="   92.729">  1  5  2 -1</clus>
<clus scale="   92.729">  1  5  2 -1</clus>
</clustering>
</event>
<event>
 9    2  0.5684583E-005  0.1533561E+03  0.7546771E-02  0.1197966E+00
         -1   -1    0    0    0  501 -0.00000000000E+00  0.00000000000E+00  0.13903946067E+03  0.13903946067E+03  0.00000000000E+00 0.  1.
          2   -1    0    0  502    0  0.00000000000E+00 -0.00000000000E+00 -0.23549010000E+03  0.23549010000E+03  0.00000000000E+00 0. -1.
         24    2    1    2    0    0  0.85550019886E+02  0.91148209191E+02 -0.68191083973E+02  0.16486096733E+03  0.83080158123E+02 0.  0.
         23    2    1    2    0    0 -0.97420846193E+02 -0.72469796340E+02 -0.65956241299E+02  0.16595544023E+03  0.91914578397E+02 0.  0.
        -11    1    3    3    0    0  0.47960032329E+02  0.26414185582E+00 -0.40265476643E+02  0.62622225138E+02  0.00000000000E+00 0.  1.
         12    1    3    3    0    0  0.37589987556E+02  0.90884067335E+02 -0.27925607330E+02  0.10223874219E+03  0.00000000000E+00 0. -1.
        -11    1    4    4    0    0 -0.83817106868E+02 -0.61187311525E+01 -0.43273427662E+02  0.94526905251E+02  0.00000000000E+00 0. -1.
         11    1    4    4    0    0 -0.13603739324E+02 -0.66351065187E+02 -0.22682813638E+02  0.71428534981E+02  0.00000000000E+00 0.  1.
         21    1    1    2  502  501  0.11870826307E+02 -0.18678412851E+02  0.37696685944E+02  0.43713153112E+02  0.00000000000E+00 0. -1.
<scales pt_clust_5="13000.00000" pt_clust_6="13000.00000" pt_clust_7="13000.00000" pt_clust_8="13000.00000" pt_clust_9="22.13142"></scales>
<clustering>
<clus scale="   22.131">  1  9  2 -1</clus>
<clus scale="   83.080">  5  6 -1 -1</clus>
<clus scale="   91.915">  7  8 -1 -1</clus>
<clus scale="  148.230">  1  5  2 -1</clus>
<clus scale="  153.356">  2  5  1 -1</clus>
</clustering>
</event>
<event>
 9    2  0.5684583E-005  0.1001111E+03  0.7546771E-02  0.1284609E+00
         -3   -1    0    0    0  501 -0.00000000000E+00  0.00000000000E+00  0.13291957242E+03  0.13291957242E+03  0.00000000000E+00 0.  1.
          4   -1    0    0  502    0  0.00000000000E+00 -0.00000000000E+00 -0.12811150838E+03  0.12811150838E+03  0.00000000000E+00 0. -1.
         23    2    1    2    0    0 -0.75693477323E+02 -0.12875731416E+02  0.25992265079E+02  0.12109655539E+03  0.89963831150E+02 0.  0.
         24    2    1    2    0    0  0.30615821769E+02  0.15969208413E+01 -0.32331239076E+02  0.92148930772E+02  0.80661252925E+02 0.  0.
        -13    1    4    4    0    0  0.19299552477E+02 -0.26348889879E+02  0.15071179735E+02  0.35970504337E+02  0.00000000000E+00 0.  1.
         14    1    4    4    0    0  0.11316269292E+02  0.27945810721E+02 -0.47402418811E+02  0.56178426435E+02  0.00000000000E+00 0. -1.
        -13    1    3    3    0    0 -0.30379952749E+02 -0.25469465537E+02 -0.28716026776E+02  0.48951459606E+02  0.00000000000E+00 0. -1.
         13    1    3    3    0    0 -0.45313524573E+02  0.12593734121E+02  0.54708291855E+02  0.72145095786E+02  0.00000000000E+00 0.  1.
         21    1    1    2  502  501  0.45077655554E+02  0.11278810574E+02  0.11147038033E+02  0.47785594640E+02  0.00000000000E+00 0.  1.
<scales pt_clust_5="13000.00000" pt_clust_6="13000.00000" pt_clust_7="13000.00000" pt_clust_8="13000.00000" pt_clust_9="46.46726"></scales>
<clustering>
<clus scale="   46.467">  1  9  2 -1</clus>
<clus scale="   80.661">  5  6 -1 -1</clus>
<clus scale="   89.964">  7  8 -1 -1</clus>
<clus scale="   91.842">  2  5  1 -1</clus>
<clus scale="   91.842">  2  5  1 -1</clus>
</clustering>
</event>
<event>
 9    2  0.5684583E-005  0.2369372E+03  0.7546771E-02  0.1122411E+00
         -1   -1    0    0    0  501 -0.00000000000E+00  0.00000000000E+00  0.26436010801E+03  0.26436010801E+03  0.00000000000E+00 0.  1.
          2   -1    0    0  502    0  0.00000000000E+00 -0.00000000000E+00 -0.48697695329E+03  0.48697695329E+03  0.00000000000E+00 0. -1.
         23    2    1    2    0    0  0.19867567148E+03 -0.10278593120E+03 -0.95683930011E+02  0.26047801749E+03  0.93039846515E+02 0.  0.
         24    2    1    2    0    0 -0.17093665728E+03  0.12211474034E+03 -0.26254794789E+03  0.35109319374E+03  0.10101314339E+03 0.  0.
        -13    1    4    4    0    0 -0.16518223508E+03  0.89282178110E+02 -0.17212633127E+03  0.25472328521E+03  0.00000000000E+00 0.  1.
         14    1    4    4    0    0 -0.57544222065E+01  0.32832562232E+02 -0.90421616620E+02  0.96369908528E+02  0.00000000000E+00 0. -1.
        -13    1    3    3    0    0  0.20004380140E+03 -0.81143667798E+02 -0.70168273250E+02  0.22699207888E+03  0.00000000000E+00 0. -1.
         13    1    3    3    0    0 -0.13681299172E+01 -0.21642263400E+02 -0.25515656761E+02  0.33485938608E+02  0.00000000000E+00 0.  1.
         21    1    1    2  502  501 -0.27739014199E+02 -0.19328809144E+02  0.13561503262E+03  0.13976585007E+03  0.00000000000E+00 0.  1.
<scales pt_clust_5="13000.00000" pt_clust_6="13000.00000" pt_clust_7="13000.00000" pt_clust_8="13000.00000" pt_clust_9="33.80911"></scales>
<clustering>
<clus scale="   33.809">  1  9  2 -1</clus>
<clus scale="   93.040">  7  8 -1 -1</clus>
<clus scale="  101.013">  5  6 -1 -1</clus>
<clus scale="  233.649">  1  7  2 -1</clus>
<clus scale="  236.937">  2  5  1 -1</clus>
</clustering>
</event>
<event>
 9    2  0.5684583E-005  0.1063371E+03  0.7546771E-02  0.1283267E+00
         -1   -1    0    0    0  501 -0.00000000000E+00  0.00000000000E+00  0.13312263331E+03  0.13312263331E+03  0.00000000000E+00 0.  1.
          2   -1    0    0  502    0  0.00000000000E+00 -0.00000000000E+00 -0.25071632715E+03  0.25071632715E+03  0.00000000000E+00 0. -1.
         23    2    1    2    0    0  0.18005401109E+02 -0.53944213969E+02  0.57051480458E+02  0.12309116338E+03  0.93071963503E+02 0.  0.
         24    2    1    2    0    0 -0.54681130615E+02 -0.10873989820E+02 -0.16707059777E+03  0.18588871022E+03  0.59445422430E+02 0.  0.
        -13    1    4    4    0    0 -0.11209742501E+02 -0.18538711435E+02 -0.12227836816E+02  0.24876939961E+02  0.00000000000E+00 0.  1.
         14    1    4    4    0    0 -0.43471388113E+02  0.76647216149E+01 -0.15484276095E+03  0.16101177026E+03  0.00000000000E+00 0. -1.
        -11    1    3    3    0    0 -0.30824373322E+02 -0.23142491179E+02  0.52566873856E+02  0.65184301144E+02  0.00000000000E+00 0.  1.
         11    1    3    3    0    0  0.48829774431E+02 -0.30801722790E+02  0.44846066022E+01  0.57906862237E+02  0.00000000000E+00 0. -1.
         21    1    1    2  502  501  0.36675729506E+02  0.64818203789E+02 -0.75745765283E+01  0.74859086869E+02  0.00000000000E+00 0. -1.
<scales pt_clust_5="13000.00000" pt_clust_6="13000.00000" pt_clust_7="13000.00000" pt_clust_8="13000.00000" pt_clust_9="74.47489"></scales>
<clustering>
<clus scale="   59.445">  5  6 -1 -1</clus>
<clus scale="   74.475">  1  9  2 -1</clus>
<clus scale="   78.606">  2  5  1 -1</clus>
<clus scale="   93.072">  7  8 -1 -1</clus>
<clus scale="   78.606">  2  5  1 -1</clus>
</clustering>
</event>
<event>
 9    2  0.5684583E-005  0.1514580E+03  0.7546771E-02  0.1200644E+00
          2   -1    0    0  502    0  0.00000000000E+00  0.00000000000E+00  0.49153671606E+03  0.49153671606E+03  0.00000000000E+00 0. -1.
         -1   -1    0    0    0  501 -0.00000000000E+00 -0.00000000000E+00 -0.90700856660E+02  0.90700856660E+02  0.00000000000E+00 0.  1.
         23    2    1    2    0    0  0.60057092481E+01 -0.75239839074E+02  0.70520007200E+02  0.13778280602E+03  0.91180745178E+02 0.  0.
         24    2    1    2    0    0 -0.29808720868E+02  0.14584232798E+03  0.32900759150E+03  0.36993627002E+03  0.80301333380E+02 0.  0.
        -13    1    4    4    0    0 -0.22818956865E+02  0.13509249192E+01  0.29470163009E+02  0.37296384520E+02  0.00000000000E+00 0.  1.
         14    1    4    4    0    0 -0.69897640029E+01  0.14449140306E+03  0.29953742849E+03  0.33263988550E+03  0.00000000000E+00 0. -1.
        -11    1    3    3    0    0  0.26082721994E+02 -0.60002523314E+02  0.27572630071E+01  0.65484453804E+02  0.00000000000E+00 0.  1.
         11    1    3    3    0    0 -0.20077012746E+02 -0.15237315760E+02  0.67762744193E+02  0.72298352214E+02  0.00000000000E+00 0. -1.
         21    1    1    2  502  501  0.23803011620E+02 -0.70602488904E+02  0.13082606994E+01  0.74518496681E+02  0.00000000000E+00 0.  1.
<scales pt_clust_5="13000.00000" pt_clust_6="13000.00000" pt_clust_7="13000.00000" pt_clust_8="13000.00000" pt_clust_9="74.50701"></scales>
<clustering>
<clus scale="   74.507">  2  9  1 -1</clus>
<clus scale="   80.301">  5  6 -1 -1</clus>
<clus scale="   91.181">  7  8 -1 -1</clus>
<clus scale="  145.169">  1  5  2 -1</clus>
<clus scale="  145.169">  1  5  2 -1</clus>
</clustering>
</event>
<event>
 9    2  0.5684583E-005  0.3541840E+03  0.7546771E-02  0.1061202E+00
         -1   -1    0    0    0  501 -0.00000000000E+00  0.00000000000E+00  0.11846089285E+03  0.11846089285E+03  0.00000000000E+00 0.  1.
          2   -1    0    0  502    0  0.00000000000E+00 -0.00000000000E+00 -0.17137775428E+04  0.17137775428E+04  0.00000000000E+00 0. -1.
         23    2    1    2    0    0 -0.19491730628E+03  0.34137262345E+03 -0.60358950589E+03  0.72612065754E+03  0.91667297115E+02 0.  0.
         24    2    1    2    0    0  0.17057503773E+03 -0.27037419879E+03 -0.97506175939E+03  0.10292343769E+04  0.79874382741E+02 0.  0.
        -13    1    4    4    0    0  0.11407708543E+03 -0.12185931808E+03 -0.57605142036E+03  0.59974870881E+03  0.00000000000E+00 0.  1.
         14    1    4    4    0    0  0.56497952299E+02 -0.14851488071E+03 -0.39901033903E+03  0.42948566805E+03  0.00000000000E+00 0. -1.
        -11    1    3    3    0    0 -0.14912789562E+03  0.17382200725E+03 -0.31872959138E+03  0.39248155609E+03  0.00000000000E+00 0.  1.
         11    1    3    3    0    0 -0.45789410661E+02  0.16755061620E+03 -0.28485991451E+03  0.33363910145E+03  0.00000000000E+00 0. -1.
         21    1    1    2  502  501  0.24342268548E+02 -0.70998424659E+02 -0.16665384688E+02  0.76883401258E+02  0.00000000000E+00 0. -1.
<scales pt_clust_5="13000.00000" pt_clust_6="13000.00000" pt_clust_7="13000.00000" pt_clust_8="13000.00000" pt_clust_9="75.05546"></scales>
<clustering>
<clus scale="   75.055">  1  9  2 -1</clus>
<clus scale="   79.874">  5  6 -1 -1</clus>
<clus scale="   91.667">  7  8 -1 -1</clus>
<clus scale="  351.317">  2  5  1 -1</clus>
<clus scale="  351.317">  2  5  1 -1</clus>
</clustering>
</event>
<event>
 9    2  0.5684583E-005  0.1494869E+03  0.7546771E-02  0.1213420E+00
         -1   -1    0    0    0  501 -0.00000000000E+00  0.00000000000E+00  0.14685688499E+03  0.14685688499E+03  0.00000000000E+00 0.  1.
          2   -1    0    0  502    0  0.00000000000E+00 -0.00000000000E+00 -0.13442250382E+04  0.13442250382E+04  0.00000000000E+00 0. -1.
         23    2    1    2    0    0  0.95127780666E+02 -0.25746546703E+02 -0.10717653808E+03  0.19296077805E+03  0.12662887597E+03 0.  0.
         24    2    1    2    0    0 -0.72125530761E+02  0.30436637833E+02 -0.11900726853E+04  0.11955183741E+04  0.82841446411E+02 0.  0.
        -13    1    4    4    0    0 -0.18101271885E+02  0.37557497452E+02 -0.21995160429E+03  0.22386810824E+03  0.00000000000E+00 0.  1.
         14    1    4    4    0    0 -0.54024258876E+02 -0.71208596192E+01 -0.97012108106E+03  0.97165026584E+03  0.00000000000E+00 0. -1.
        -11    1    3    3    0    0  0.10687300919E+03 -0.58329072786E+02 -0.10007743696E+03  0.15760588255E+03  0.00000000000E+00 0.  1.
         11    1    3    3    0    0 -0.11745228525E+02  0.32582526083E+02 -0.70991011170E+01  0.35354895499E+02  0.00000000000E+00 0. -1.
         21    1    1    2  502  501 -0.23002249905E+02 -0.46900911302E+01  0.99881070180E+02  0.10260277109E+03  0.00000000000E+00 0.  1.
<scales pt_clust_5="13000.00000" pt_clust_6="13000.00000" pt_clust_7="13000.00000" pt_clust_8="13000.00000" pt_clust_9="23.47553"></scales>
<clustering>
<clus scale="   23.476">  1  9  2 -1</clus>
<clus scale="   82.841">  5  6 -1 -1</clus>
<clus scale="  114.779">  2  5  1 -1</clus>
<clus scale="  126.629">  7  8 -1 -1</clus>
<clus scale="  114.779">  2  5  1 -1</clus>
</clustering>
</event>
<event>
 9    2  0.5684583E-005  0.1384286E+03  0.7546771E-02  0.1217758E+00
          2   -1    0    0  502    0  0.00000000000E+00  0.00000000000E+00  0.12922114218E+03  0.12922114218E+03  0.00000000000E+00 0. -1.
         -1   -1    0    0    0  501 -0.00000000000E+00 -0.00000000000E+00 -0.51909949900E+03  0.51909949900E+03  0.00000000000E+00 0.  1.
         23    2    1    2    0    0 -0.42919629752E+02  0.89943848152E+02 -0.38535704329E+03  0.40815939624E+03  0.90344072769E+02 0.  0.
         24    2    1    2    0    0  0.74882048503E+02 -0.74883855485E+02  0.75521232684E+02  0.15266719488E+03  0.79930612450E+02 0.  0.
        -13    1    4    4    0    0  0.56722441742E+01 -0.20971320959E+02 -0.15162079355E+02  0.26492627410E+02  0.00000000000E+00 0.  1.
         14    1    4    4    0    0  0.69209804329E+02 -0.53912534526E+02  0.90683312039E+02  0.12617456747E+03  0.00000000000E+00 0. -1.
        -13    1    3    3    0    0 -0.70698407971E+02  0.66264453473E+02 -0.25505109107E+03  0.27283750061E+03  0.00000000000E+00 0.  1.
         13    1    3    3    0    0  0.27778778219E+02  0.23679394679E+02 -0.13030595222E+03  0.13532189563E+03  0.00000000000E+00 0. -1.
         21    1    1    2  502  501 -0.31962418751E+02 -0.15059992667E+02 -0.80042546209E+02  0.87494050056E+02  0.00000000000E+00 0. -1.
<scales pt_clust_5="13000.00000" pt_clust_6="13000.00000" pt_clust_7="13000.00000" pt_clust_8="13000.00000" pt_clust_9="35.33270"></scales>
<clustering>
<clus scale="   35.333">  2  9  1 -1</clus>
<clus scale="   79.931">  5  6 -1 -1</clus>
<clus scale="   90.344">  7  8 -1 -1</clus>
<clus scale="  131.869">  1  5  2 -1</clus>
<clus scale="  131.869">  1  5  2 -1</clus>
</clustering>
</event>
<event>
 9    2  0.5684583E-005  0.1783050E+03  0.7546771E-02  0.1171282E+00
         -1   -1    0    0    0  501 -0.00000000000E+00  0.00000000000E+00  0.93228391581E+02  0.93228391581E+02  0.00000000000E+00 0.  1.
          2   -1    0    0  502    0  0.00000000000E+00 -0.00000000000E+00 -0.67879715851E+03  0.67879715851E+03  0.00000000000E+00 0. -1.
         23    2    1    2    0    0  0.12782767640E+03 -0.58811304622E+02 -0.17116954350E+03  0.24029196124E+03  0.92965206453E+02 0.  0.
         24    2    1    2    0    0 -0.14916149125E+03  0.51612666823E+02 -0.45357077406E+03  0.48655214994E+03  0.78061063833E+02 0.  0.
        -11    1    4    4    0    0 -0.85731653828E+02  0.54934671612E+02 -0.19142069065E+03  0.21681700907E+03  0.00000000000E+00 0.  1.
         12    1    4    4    0    0 -0.63429837420E+02 -0.33220047887E+01 -0.26215008341E+03  0.26973514087E+03  0.00000000000E+00 0. -1.
        -11    1    3    3    0    0  0.18997746265E+02  0.20197132009E+02 -0.80319088833E+01  0.28867803256E+02  0.00000000000E+00 0. -1.
         11    1    3    3    0    0  0.10882993013E+03 -0.79008436631E+02 -0.16313763462E+03  0.21142415799E+03  0.00000000000E+00 0.  1.
         21    1    1    2  502  501  0.21333814851E+02  0.71986377987E+01  0.39171550633E+02  0.45181438902E+02  0.00000000000E+00 0.  1.
<scales pt_clust_5="13000.00000" pt_clust_6="13000.00000" pt_clust_7="13000.00000" pt_clust_8="13000.00000" pt_clust_9="22.51560"></scales>
<clustering>
<clus scale="   22.516">  1  9  2 -1</clus>
<clus scale="   78.061">  5  6 -1 -1</clus>
<clus scale="   92.965">  7  8 -1 -1</clus>
<clus scale="  171.008">  2  5  1 -1</clus>
<clus scale="  171.008">  2  5  1 -1</clus>
</clustering>
</event>
<event>
 9    2  0.5684583E-005  0.1148642E+03  0.7546771E-02  0.1257179E+00
         -1   -1    0    0    0  501 -0.00000000000E+00  0.00000000000E+00  0.12830572977E+03  0.12830572977E+03  0.00000000000E+00 0.  1.
          2   -1    0    0  502    0  0.00000000000E+00 -0.00000000000E+00 -0.97115665781E+03  0.97115665781E+03  0.00000000000E+00 0. -1.
         23    2    1    2    0    0  0.58504435376E+02  0.44948383346E+02  0.67427628010E+02  0.13828680933E+03  0.95570029254E+02 0.  0.
         24    2    1    2    0    0 -0.33379958835E+02 -0.54099523610E+02 -0.92494179942E+03  0.93067978516E+03  0.81280687027E+02 0.  0.
        -11    1    4    4    0    0  0.65338105200E+01 -0.46632112797E+02 -0.24240069267E+03  0.24693185382E+03  0.00000000000E+00 0.  1.
         12    1    4    4    0    0 -0.39913769355E+02 -0.74674108127E+01 -0.68254110675E+03  0.68374793134E+03  0.00000000000E+00 0. -1.
        -13    1    3    3    0    0 -0.20755907575E+02 -0.74235888807E+01  0.27481440977E+02  0.35229915829E+02  0.00000000000E+00 0.  1.
         13    1    3    3    0    0  0.79260342951E+02  0.52371972226E+02  0.39946187034E+02  0.10305689350E+03  0.00000000000E+00 0. -1.
         21    1    1    2  502  501 -0.25124476541E+02  0.91511402641E+01  0.14663243374E+02  0.30495793084E+02  0.00000000000E+00 0. -1.
<scales pt_clust_5="13000.00000" pt_clust_6="13000.00000" pt_clust_7="13000.00000" pt_clust_8="13000.00000" pt_clust_9="26.73916"></scales>
<clustering>
<clus scale="   26.739">  1  9  2 -1</clus>
<clus scale="   81.281">  5  6 -1 -1</clus>
<clus scale="   95.570">  7  8 -1 -1</clus>
<clus scale="  103.280">  2  5  1 -1</clus>
<clus scale="  103.280">  2  5  1 -1</clus>
</clustering>
</event>
<event>
 9    2  0.5684583E-005  0.1014473E+03  0.7546771E-02  0.1287191E+00
          2   -1    0    0  502    0  0.00000000000E+00  0.00000000000E+00  0.59644374522E+03  0.59644374522E+03  0.00000000000E+00 0. -1.
         -1   -1    0    0    0  501 -0.00000000000E+00 -0.00000000000E+00 -0.58257438191E+03  0.58257438191E+03  0.00000000000E+00 0.  1.
         23    2    1    2    0    0  0.24281166832E+02  0.40370419427E+02 -0.53844749647E+03  0.54940705135E+03  0.98504090214E+02 0.  0.
         24    2    1    2    0    0 -0.12143016227E+02 -0.20855075103E+02  0.58425300793E+03  0.59026516211E+03  0.80492219044E+02 0.  0.
        -13    1    4    4    0    0 -0.42273356542E+02  0.39498866903E+01  0.23163318424E+03  0.23549218738E+03  0.00000000000E+00 0.  1.
         14    1    4    4    0    0  0.30130340316E+02 -0.24804961793E+02  0.35261982370E+03  0.35477297473E+03  0.00000000000E+00 0. -1.
        -11    1    3    3    0    0  0.50257844209E+02 -0.10521037744E+02 -0.28615336555E+03  0.29072373786E+03  0.00000000000E+00 0.  1.
         11    1    3    3    0    0 -0.25976677376E+02  0.50891457171E+02 -0.25229413092E+03  0.25868331349E+03  0.00000000000E+00 0. -1.
         21    1    1    2  502  501 -0.12138150606E+02 -0.19515344324E+02 -0.31936148153E+02  0.39345913677E+02  0.00000000000E+00 0. -1.
<scales pt_clust_5="13000.00000" pt_clust_6="13000.00000" pt_clust_7="13000.00000" pt_clust_8="13000.00000" pt_clust_9="22.98224"></scales>
<clustering>
<clus scale="   22.982">  2  9  1 -1</clus>
<clus scale="   80.492">  5  6 -1 -1</clus>
<clus scale="   84.068">  1  5  2 -1</clus>
<clus scale="   98.504">  7  8 -1 -1</clus>
<clus scale="   84.068">  1  5  2 -1</clus>
</clustering>
</event>
<event>
 9    2  0.5684583E-005  0.1395345E+03  0.7546771E-02  0.1216353E+00
          2   -1    0    0  502    0  0.00000000000E+00  0.00000000000E+00  0.12315192722E+04  0.12315192722E+04  0.00000000000E+00 0. -1.
         -1   -1    0    0    0  501 -0.00000000000E+00 -0.00000000000E+00 -0.34779191826E+02  0.34779191826E+02  0.00000000000E+00 0.  1.
         23    2    1    2    0    0 -0.89756083327E+02  0.23716233337E+02  0.12279619691E+03  0.17905916980E+03  0.91458548507E+02 0.  0.
         24    2    1    2    0    0  0.10733203941E+03 -0.74916294248E+01  0.10111722751E+04  0.10200646947E+04  0.80537694677E+02 0.  0.
        -13    1    4    4    0    0  0.86777602843E+02  0.16166993340E+02  0.48551325832E+03  0.49347223633E+03  0.00000000000E+00 0.  1.
         14    1    4    4    0    0  0.20554436569E+02 -0.23658622764E+02  0.52565901677E+03  0.52659245836E+03  0.00000000000E+00 0. -1.
        -13    1    3    3    0    0 -0.55409453491E+02 -0.19897487965E+02  0.10566859373E+03  0.12096267715E+03  0.00000000000E+00 0.  1.
         13    1    3    3    0    0 -0.34346629836E+02  0.43613721302E+02  0.17127603183E+02  0.58096492645E+02  0.00000000000E+00 0. -1.
         21    1    1    2  502  501 -0.17575956085E+02 -0.16224603912E+02  0.62771608403E+02  0.67174599559E+02  0.00000000000E+00 0.  1.
<scales pt_clust_5="13000.00000" pt_clust_6="13000.00000" pt_clust_7="13000.00000" pt_clust_8="13000.00000" pt_clust_9="23.91970"></scales>
<clustering>
<clus scale="   23.920">  2  9  1 -1</clus>
<clus scale="   80.538">  5  6 -1 -1</clus>
<clus scale="   91.459">  7  8 -1 -1</clus>
<clus scale="  132.633">  1  5  2 -1</clus>
<clus scale="  132.633">  1  5  2 -1</clus>
</clustering>
</event>
<event>
 9    2  0.5684583E-005  0.9182206E+02  0.7546771E-02  0.1302582E+00
          2   -1    0    0  502    0  0.00000000000E+00  0.00000000000E+00  0.11802440577E+03  0.11802440577E+03  0.00000000000E+00 0. -1.
         -1   -1    0    0    0  501 -0.00000000000E+00 -0.00000000000E+00 -0.10112484549E+03  0.10112484549E+03  0.00000000000E+00 0.  1.
         23    2    1    2    0    0  0.39859764281E+01 -0.18624925952E+02  0.20863251335E+00  0.90192597414E+02  0.88158296411E+02 0.  0.
         24    2    1    2    0    0 -0.38931485605E+02  0.54879119045E+01  0.15912145597E+02  0.91615306102E+02  0.81205850689E+02 0.  0.
        -11    1    4    4    0    0  0.21017151827E+02 -0.38955196195E+01 -0.12340620380E+02  0.24681706897E+02  0.00000000000E+00 0.  1.
         12    1    4    4    0    0 -0.59948637432E+02  0.93834315240E+01  0.28252765977E+02  0.66933599205E+02  0.00000000000E+00 0. -1.
        -13    1    3    3    0    0  0.11439554909E+02  0.26629358593E+02  0.24806256801E+02  0.38148873274E+02  0.00000000000E+00 0.  1.
         13    1    3    3    0    0 -0.74535784809E+01 -0.45254284544E+02 -0.24597624288E+02  0.52043724140E+02  0.00000000000E+00 0. -1.
         21    1    1    2  502  501  0.34945509177E+02  0.13137014047E+02  0.77878216107E+00  0.37341347745E+02  0.00000000000E+00 0.  1.
<scales pt_clust_5="13000.00000" pt_clust_6="13000.00000" pt_clust_7="13000.00000" pt_clust_8="13000.00000" pt_clust_9="37.33323"></scales>
<clustering>
<clus scale="   37.333">  2  9  1 -1</clus>
<clus scale="   81.206">  5  6 -1 -1</clus>
<clus scale="   85.169">  1  5  2 -1</clus>
<clus scale="   88.158">  7  8 -1 -1</clus>
<clus scale="   85.169">  1  5  2 -1</clus>
</clustering>
</event>
<event>
 9    2  0.5684583E-005  0.9365162E+02  0.7546771E-02  0.1298674E+00
         -1   -1    0    0    0  501 -0.00000000000E+00  0.00000000000E+00  0.71729846274E+03  0.71729846274E+03  0.00000000000E+00 0.  1.
          2   -1    0    0  502    0  0.00000000000E+00 -0.00000000000E+00 -0.27338815206E+02  0.27338815206E+02  0.00000000000E+00 0. -1.
         24    2    1    2    0    0  0.13303271333E+02 -0.31574156659E+02  0.52223267469E+03  0.52971522801E+03  0.81837350168E+02 0.  0.
         23    2    1    2    0    0  0.83037956055E+01  0.25953738358E+02  0.76248687294E+02  0.12075872814E+03  0.89589388608E+02 0.  0.
        -13    1    3    3    0    0 -0.17119806567E+02 -0.49064855166E+02  0.25975684684E+03  0.26490388307E+03  0.00000000000E+00 0.  1.
         14    1    3    3    0    0  0.30423077900E+02  0.17490698507E+02  0.26247582785E+03  0.26481134494E+03  0.00000000000E+00 0. -1.
        -11    1    4    4    0    0  0.24133679549E+02  0.46441900742E+02  0.78954679907E+02  0.94726586090E+02  0.00000000000E+00 0.  1.
         11    1    4    4    0    0 -0.15829883943E+02 -0.20488162384E+02 -0.27059926132E+01  0.26032142047E+02  0.00000000000E+00 0. -1.
         21    1    1    2  502  501 -0.21607066939E+02  0.56204183014E+01  0.91478285552E+02  0.94163321793E+02  0.00000000000E+00 0. -1.
<scales pt_clust_5="13000.00000" pt_clust_6="13000.00000" pt_clust_7="13000.00000" pt_clust_8="13000.00000" pt_clust_9="22.32609"></scales>
<clustering>
<clus scale="   22.326">  1  9  2 -1</clus>
<clus scale="   81.837">  5  6 -1 -1</clus>
<clus scale="   86.265">  1  5  2 -1</clus>
<clus scale="   89.589">  7  8 -1 -1</clus>
<clus scale="   93.652">  2  5  1 -1</clus>
</clustering>
</event>
<event>
 9    2  0.5684583E-005  0.9988330E+02  0.7546771E-02  0.1281556E+00
         -1   -1    0    0    0  501 -0.00000000000E+00  0.00000000000E+00  0.66834042383E+02  0.66834042383E+02  0.00000000000E+00 0.  1.
          2   -1    0    0  502    0  0.00000000000E+00 -0.00000000000E+00 -0.37721562340E+03  0.37721562340E+03  0.00000000000E+00 0. -1.
         23    2    1    2    0    0 -0.48850712169E+02 -0.36054485825E+02  0.88290477536E+01  0.10246578032E+03  0.82066838761E+02 0.  0.
         24    2    1    2    0    0  0.26501791924E+02  0.20368986846E+02 -0.28493086926E+03  0.29775910907E+03  0.79734849179E+02 0.  0.
        -13    1    4    4    0    0  0.11733694220E+02 -0.30066845890E+02 -0.81721424007E+02  0.87864019619E+02  0.00000000000E+00 0.  1.
         14    1    4    4    0    0  0.14768097703E+02  0.50435832736E+02 -0.20320944526E+03  0.20989508945E+03  0.00000000000E+00 0. -1.
        -13    1    3    3    0    0 -0.71774581367E+02 -0.21588158867E+02  0.75234400587E+01  0.75327559923E+02  0.00000000000E+00 0.  1.
         13    1    3    3    0    0  0.22923869198E+02 -0.14466326958E+02  0.13056076948E+01  0.27138220394E+02  0.00000000000E+00 0. -1.
         21    1    1    2  502  501  0.22348920245E+02  0.15685498979E+02 -0.34279759505E+02  0.43824776395E+02  0.00000000000E+00 0. -1.
<scales pt_clust_5="13000.00000" pt_clust_6="13000.00000" pt_clust_7="13000.00000" pt_clust_8="13000.00000" pt_clust_9="27.30401"></scales>
<clustering>
<clus scale="   27.304">  2  9  1 -1</clus>
<clus scale="   79.735">  5  6 -1 -1</clus>
<clus scale="   82.067">  7  8 -1 -1</clus>
<clus scale="   97.976">  2  5  1 -1</clus>
<clus scale="   27.304">  2  5  1 -1</clus>
</clustering>
</event>
<event>
 9    2  0.5684583E-005  0.8512661E+02  0.7546771E-02  0.1322579E+00
         -1   -1    0    0    0  501 -0.00000000000E+00  0.00000000000E+00  0.25422535274E+03  0.25422535274E+03  0.00000000000E+00 0.  1.
          2   -1    0    0  502    0  0.00000000000E+00 -0.00000000000E+00 -0.43464428173E+03  0.43464428173E+03  0.00000000000E+00 0. -1.
         23    2    1    2    0    0  0.32972790048E+01 -0.39890599364E+02  0.20304190358E+03  0.21808872408E+03  0.68808030028E+02 0.  0.
         24    2    1    2    0    0  0.13898477955E+02  0.24726320998E+02 -0.41951297078E+03  0.42805613929E+03  0.80226972372E+02 0.  0.
        -11    1    4    4    0    0 -0.23952153112E+02 -0.13989293202E+02 -0.91753456820E+02  0.95854591968E+02  0.00000000000E+00 0.  1.
         12    1    4    4    0    0  0.37850631066E+02  0.38715614200E+02 -0.32775951396E+03  0.33220154732E+03  0.00000000000E+00 0. -1.
        -11    1    3    3    0    0  0.34206892789E+02 -0.80210623435E+01  0.85121451542E+02  0.92087515267E+02  0.00000000000E+00 0.  1.
         11    1    3    3    0    0 -0.30909613785E+02 -0.31869537021E+02  0.11792045204E+03  0.12600120882E+03  0.00000000000E+00 0. -1.
         21    1    1    2  502  501 -0.17195756960E+02  0.15164278367E+02  0.36052138206E+02  0.42724771094E+02  0.00000000000E+00 0. -1.
<scales pt_clust_5="13000.00000" pt_clust_6="13000.00000" pt_clust_7="13000.00000" pt_clust_8="13000.00000" pt_clust_9="22.92705"></scales>
<clustering>
<clus scale="   22.927">  1  9  2 -1</clus>
<clus scale="   68.808">  7  8 -1 -1</clus>
<clus scale="   74.463">  1  7  2 -1</clus>
<clus scale="   80.227">  5  6 -1 -1</clus>
<clus scale="   85.127">  2  5  1 -1</clus>
</clustering>
</event>
<event>
 9    2  0.5684583E-005  0.9632424E+02  0.7546771E-02  0.1293850E+00
          2   -1    0    0  502    0  0.00000000000E+00  0.00000000000E+00  0.36756998894E+03  0.36756998894E+03  0.00000000000E+00 0. -1.
         -1   -1    0    0    0  501 -0.00000000000E+00 -0.00000000000E+00 -0.65601877234E+02  0.65601877234E+02  0.00000000000E+00 0.  1.
         23    2    1    2    0    0  0.16063115275E+02 -0.34371521234E+02  0.72608461408E+02  0.12457405945E+03  0.93847122889E+02 0.  0.
         24    2    1    2    0    0 -0.14728025368E+02  0.10663426232E+02  0.25769340228E+03  0.27162947251E+03  0.83940796811E+02 0.  0.
        -11    1    4    4    0    0 -0.37406780788E+02  0.23864468588E+02  0.75633081518E+02  0.87687759293E+02  0.00000000000E+00 0.  1.
         12    1    4    4    0    0  0.22678755420E+02 -0.13201042356E+02  0.18206032076E+03  0.18394171322E+03  0.00000000000E+00 0. -1.
        -13    1    3    3    0    0  0.33669133467E+02  0.22330408980E+02  0.39925196248E+02  0.56800343389E+02  0.00000000000E+00 0. -1.
         13    1    3    3    0    0 -0.17606018192E+02 -0.56701930215E+02  0.32683265159E+02  0.67773716057E+02  0.00000000000E+00 0.  1.
         21    1    1    2  502  501 -0.13350899067E+01  0.23708095002E+02 -0.28333751978E+02  0.36968334218E+02  0.00000000000E+00 0.  1.
<scales pt_clust_5="13000.00000" pt_clust_6="13000.00000" pt_clust_7="13000.00000" pt_clust_8="13000.00000" pt_clust_9="23.74566"></scales>
<clustering>
<clus scale="   23.746">  2  9  1 -1</clus>
<clus scale="   83.941">  5  6 -1 -1</clus>
<clus scale="   86.701">  1  5  2 -1</clus>
<clus scale="   93.847">  7  8 -1 -1</clus>
<clus scale="   86.701">  1  5  2 -1</clus>
</clustering>
</event>
<event>
 9    2  0.5684583E-005  0.1211354E+03  0.7546771E-02  0.1245336E+00
         -1   -1    0    0    0  501 -0.00000000000E+00  0.00000000000E+00  0.14444691649E+03  0.14444691649E+03  0.00000000000E+00 0.  1.
          2   -1    0    0  502    0  0.00000000000E+00 -0.00000000000E+00 -0.57382164686E+03  0.57382164686E+03  0.00000000000E+00 0. -1.
         23    2    1    2    0    0  0.82443970157E+02 -0.86126818890E+01  0.99204427200E+02  0.15565269116E+03  0.86689419106E+02 0.  0.
         24    2    1    2    0    0 -0.11509472779E+03  0.12002166274E+02 -0.50235162696E+03  0.52059868594E+03  0.72629101159E+02 0.  0.
        -13    1    4    4    0    0 -0.20714563727E+02  0.33127163159E+02 -0.11976399474E+03  0.12597585692E+03  0.00000000000E+00 0.  1.
         14    1    4    4    0    0 -0.94380164061E+02 -0.21124996885E+02 -0.38258763222E+03  0.39462282903E+03  0.00000000000E+00 0. -1.
        -13    1    3    3    0    0  0.21752550746E+02  0.30707125663E+02  0.66778484360E+01  0.38219035705E+02  0.00000000000E+00 0. -1.
         13    1    3    3    0    0  0.60691419410E+02 -0.39319807552E+02  0.92526578764E+02  0.11743365546E+03  0.00000000000E+00 0.  1.
         21    1    1    2  502  501  0.32650757631E+02 -0.33894843849E+01 -0.26227530608E+02  0.42017186247E+02  0.00000000000E+00 0.  1.
<scales pt_clust_5="13000.00000" pt_clust_6="13000.00000" pt_clust_7="13000.00000" pt_clust_8="13000.00000" pt_clust_9="32.82622"></scales>
<clustering>
<clus scale="   32.826">  2  9  1 -1</clus>
<clus scale="   72.629">  5  6 -1 -1</clus>
<clus scale="   86.689">  7  8 -1 -1</clus>
<clus scale="  111.507">  2  5  1 -1</clus>
<clus scale="   32.826">  2  5  1 -1</clus>
</clustering>
</event>
<event>
 9    2  0.5684583E-005  0.1354476E+03  0.7546771E-02  0.1222249E+00
          2   -1    0    0  502    0  0.00000000000E+00  0.00000000000E+00  0.45902213555E+03  0.45902213555E+03  0.00000000000E+00 0. -1.
         -1   -1    0    0    0  501 -0.00000000000E+00 -0.00000000000E+00 -0.51255572638E+02  0.51255572638E+02  0.00000000000E+00 0.  1.
         24    2    1    2    0    0 -0.35640615290E+02 -0.94044040863E+02  0.12004467142E+03  0.17564110945E+03  0.79526983547E+02 0.  0.
         23    2    1    2    0    0  0.65040124829E+02  0.80468681189E+02  0.24467273801E+03  0.28076776576E+03  0.90886539558E+02 0.  0.
        -13    1    3    3    0    0 -0.33575649293E+02 -0.61884437774E+02  0.24079946062E+02  0.74410023964E+02  0.00000000000E+00 0.  1.
         14    1    3    3    0    0 -0.20649659974E+01 -0.32159603089E+02  0.95964725358E+02  0.10123108548E+03  0.00000000000E+00 0. -1.
        -13    1    4    4    0    0  0.88104250359E+02  0.60952200351E+02  0.18195530169E+03  0.21115222346E+03  0.00000000000E+00 0. -1.
         13    1    4    4    0    0 -0.23064125530E+02  0.19516480838E+02  0.62717436319E+02  0.69615542297E+02  0.00000000000E+00 0.  1.
         21    1    1    2  502  501 -0.29399509539E+02  0.13575359674E+02  0.43049153483E+02  0.53868832984E+02  0.00000000000E+00 0.  1.
<scales pt_clust_5="13000.00000" pt_clust_6="13000.00000" pt_clust_7="13000.00000" pt_clust_8="13000.00000" pt_clust_9="32.38243"></scales>
<clustering>
<clus scale="   32.382">  1  9  2 -1</clus>
<clus scale="   79.527">  5  6 -1 -1</clus>
<clus scale="   90.887">  7  8 -1 -1</clus>
<clus scale="  128.102">  2  5  1 -1</clus>
<clus scale="   32.382">  1  5  2 -1</clus>
</clustering>
</event>
<event>
 9    2  0.6921027E-005  0.1912025E+03  0.7546771E-02  0.1157996E+00
         -1   -1    0    0    0  501 -0.00000000000E+00  0.00000000000E+00  0.32601069669E+03  0.32601069669E+03  0.00000000000E+00 0.  1.
          2   -1    0    0  502    0  0.00000000000E+00 -0.00000000000E+00 -0.68324713516E+03  0.68324713516E+03  0.00000000000E+00 0. -1.
         24    2    1    2    0    0  0.19493957815E+03 -0.86504942407E+01  0.19375779196E+03  0.28733449234E+03  0.83323216235E+02 0.  0.
         23    2    1    2    0    0 -0.13254135749E+03  0.10587418655E+03 -0.57308730313E+03  0.60430493896E+03  0.89324394324E+02 0.  0.
        -11    1    3    3    0    0  0.19570548470E+03  0.59602536225E+01  0.16933129659E+03  0.25886144821E+03  0.00000000000E+00 0.  1.
         12    1    3    3    0    0 -0.76590655222E+00 -0.14610747863E+02  0.24426495365E+02  0.28473044126E+02  0.00000000000E+00 0. -1.
        -11    1    4    4    0    0 -0.65342128019E+02  0.94861468798E+01 -0.12873792700E+03  0.14468253013E+03  0.00000000000E+00 0.  1.
         11    1    4    4    0    0 -0.67199229474E+02  0.96388039675E+02 -0.44434937612E+03  0.45962240882E+03  0.00000000000E+00 0. -1.
         21    1    1    2  502  501 -0.62398220654E+02 -0.97223692314E+02  0.22093072698E+02  0.11761840056E+03  0.00000000000E+00 0.  1.
<scales pt_clust_5="13000.00000" pt_clust_6="13000.00000" pt_clust_7="13000.00000" pt_clust_8="13000.00000" pt_clust_9="115.52482"></scales>
<clustering>
<clus scale="   83.323">  5  6 -1 -1</clus>
<clus scale="   89.324">  7  8 -1 -1</clus>
<clus scale="  115.525">  1  9  2 -1</clus>
<clus scale="  188.474">  1  5  2 -1</clus>
<clus scale="  191.203">  2  5  1 -1</clus>
</clustering>
</event>
<event>
 9    2  0.5684583E-005  0.1404745E+03  0.7546771E-02  0.1228030E+00
         -1   -1    0    0    0  501 -0.00000000000E+00  0.00000000000E+00  0.86068937083E+03  0.86068937083E+03  0.00000000000E+00 0.  1.
          2   -1    0    0  502    0  0.00000000000E+00 -0.00000000000E+00 -0.43558802547E+03  0.43558802547E+03  0.00000000000E+00 0. -1.
         23    2    1    2    0    0 -0.39108313086E+02 -0.58746578567E+02  0.15067664408E+02  0.11661875576E+03  0.91609382912E+02 0.  0.
         24    2    1    2    0    0  0.34276657252E+02 -0.51087526598E+02 -0.37417555756E+03  0.38778048999E+03  0.81126665964E+02 0.  0.
        -11    1    4    4    0    0 -0.13492922029E+02 -0.51991815609E+02 -0.21336774794E+03  0.22002500698E+03  0.00000000000E+00 0.  1.
         12    1    4    4    0    0  0.47769579281E+02  0.90428901187E+00 -0.16080780962E+03  0.16775548301E+03  0.00000000000E+00 0. -1.
        -11    1    3    3    0    0 -0.30101762103E+02 -0.86851271551E+01  0.47055715815E+02  0.56531300236E+02  0.00000000000E+00 0.  1.
         11    1    3    3    0    0 -0.90065509824E+01 -0.50061451412E+02 -0.31988051407E+02  0.60087455520E+02  0.00000000000E+00 0. -1.
         21    1    1    2  502  501  0.48316558338E+01  0.10983410516E+03  0.78420923851E+03  0.79187815055E+03  0.00000000000E+00 0.  1.
<scales pt_clust_5="13000.00000" pt_clust_6="13000.00000" pt_clust_7="13000.00000" pt_clust_8="13000.00000" pt_clust_9="106.49326"></scales>
<clustering>
<clus scale="   81.127">  5  6 -1 -1</clus>
<clus scale="   91.609">  7  8 -1 -1</clus>
<clus scale="  101.815">  2  5  1 -1</clus>
<clus scale="  106.493">  1  9  2 -1</clus>
<clus scale="  101.815">  2  5  1 -1</clus>
</clustering>
</event>
<event>
 9    2  0.5684583E-005  0.1635475E+03  0.7546771E-02  0.1186870E+00
          2   -1    0    0  502    0  0.00000000000E+00  0.00000000000E+00  0.75764227026E+03  0.75764227026E+03  0.00000000000E+00 0. -1.
         -1   -1    0    0    0  501 -0.00000000000E+00 -0.00000000000E+00 -0.63912369341E+02  0.63912369341E+02  0.00000000000E+00 0.  1.
         23    2    1    2    0    0  0.12042843551E+03  0.60377500580E+02  0.81950694804E+02  0.18382800072E+03  0.94490035518E+02 0.  0.
         24    2    1    2    0    0 -0.10303056850E+03 -0.80018765531E+02  0.53656603237E+03  0.55806807645E+03  0.80737661412E+02 0.  0.
        -13    1    4    4    0    0 -0.27364411141E+02 -0.15528316758E+02  0.36385476422E+02  0.48102416913E+02  0.00000000000E+00 0.  1.
         14    1    4    4    0    0 -0.75666157364E+02 -0.64490448773E+02  0.50018055595E+03  0.50996565953E+03  0.00000000000E+00 0. -1.
        -11    1    3    3    0    0  0.95418115570E+02  0.11471309696E+02  0.15067440016E+02  0.97279162587E+02  0.00000000000E+00 0.  1.
         11    1    3    3    0    0  0.25010319942E+02  0.48906190884E+02  0.66883254788E+02  0.86548838129E+02  0.00000000000E+00 0. -1.
         21    1    1    2  502  501 -0.17397867007E+02  0.19641264951E+02  0.75213173749E+02  0.79658562444E+02  0.00000000000E+00 0.  1.
<scales pt_clust_5="13000.00000" pt_clust_6="13000.00000" pt_clust_7="13000.00000" pt_clust_8="13000.00000" pt_clust_9="26.23862"></scales>
<clustering>
<clus scale="   26.239">  1  9  2 -1</clus>
<clus scale="   80.738">  5  6 -1 -1</clus>
<clus scale="   94.490">  7  8 -1 -1</clus>
<clus scale="  156.006">  1  5  2 -1</clus>
<clus scale="   26.239">  1  5  2 -1</clus>
</clustering>
</event>
<event>
 9    2  0.5684583E-005  0.1760380E+03  0.7546771E-02  0.1173241E+00
          2   -1    0    0  502    0  0.00000000000E+00  0.00000000000E+00  0.45121675577E+03  0.45121675577E+03  0.00000000000E+00 0. -1.
         -1   -1    0    0    0  501 -0.00000000000E+00 -0.00000000000E+00 -0.22775254305E+03  0.22775254305E+03  0.00000000000E+00 0.  1.
         24    2    1    2    0    0 -0.13951389727E+03 -0.39292718160E+02  0.14667723324E+03  0.22187800989E+03  0.81899910211E+02 0.  0.
         23    2    1    2    0    0  0.15224165556E+03  0.15858907395E+02  0.23550065807E+03  0.29615288118E+03  0.93898575328E+02 0.  0.
        -11    1    3    3    0    0 -0.29520850919E+02 -0.42625364447E+02  0.72639674952E+02  0.89246426878E+02  0.00000000000E+00 0.  1.
         12    1    3    3    0    0 -0.10999304635E+03  0.33326462871E+01  0.74037558285E+02  0.13263158302E+03  0.00000000000E+00 0. -1.
        -11    1    4    4    0    0  0.12036297982E+03  0.51709550416E+02  0.18270964247E+03  0.22481978998E+03  0.00000000000E+00 0. -1.
         11    1    4    4    0    0  0.31878675738E+02 -0.35850643021E+02  0.52791015595E+02  0.71333091194E+02  0.00000000000E+00 0.  1.
         21    1    1    2  502  501 -0.12727758294E+02  0.23433810765E+02 -0.15871367859E+03  0.16093840775E+03  0.00000000000E+00 0.  1.
<scales pt_clust_5="13000.00000" pt_clust_6="13000.00000" pt_clust_7="13000.00000" pt_clust_8="13000.00000" pt_clust_9="26.66720"></scales>
<clustering>
<clus scale="   26.667">  2  9  1 -1</clus>
<clus scale="   81.900">  5  6 -1 -1</clus>
<clus scale="   93.899">  7  8 -1 -1</clus>
<clus scale="  169.941">  2  5  1 -1</clus>
<clus scale="  176.038">  1  5  2 -1</clus>
</clustering>
</event>
<event>
 9    2  0.5684583E-005  0.9152054E+02  0.7546771E-02  0.1304218E+00
         -1   -1    0    0    0  501 -0.00000000000E+00  0.00000000000E+00  0.35647749372E+02  0.35647749372E+02  0.00000000000E+00 0.  1.
          2   -1    0    0  502    0  0.00000000000E+00 -0.00000000000E+00 -0.39130393422E+03  0.39130393422E+03  0.00000000000E+00 0. -1.
         23    2    1    2    0    0  0.62304637787E+01  0.11450912451E+02 -0.56075451524E+02  0.10714341177E+03  0.90362117882E+02 0.  0.
         24    2    1    2    0    0  0.13262545573E+02 -0.24078025608E+02 -0.25814709276E+03  0.27230913529E+03  0.82199131575E+02 0.  0.
        -13    1    4    4    0    0 -0.97473414442E+01  0.28048702889E+02 -0.88766187748E+02  0.93601156437E+02  0.00000000000E+00 0.  1.
         14    1    4    4    0    0  0.23009887018E+02 -0.52126728497E+02 -0.16938090501E+03  0.17870797886E+03  0.00000000000E+00 0. -1.
        -11    1    3    3    0    0 -0.88769795895E+00 -0.35694608853E+02 -0.30529136449E+01  0.35835923186E+02  0.00000000000E+00 0. -1.
         11    1    3    3    0    0  0.71181617376E+01  0.47145521305E+02 -0.53022537879E+02  0.71307488588E+02  0.00000000000E+00 0.  1.
         21    1    1    2  502  501 -0.19493009352E+02  0.12627113157E+02 -0.41433640569E+02  0.47499136530E+02  0.00000000000E+00 0.  1.
<scales pt_clust_5="13000.00000" pt_clust_6="13000.00000" pt_clust_7="13000.00000" pt_clust_8="13000.00000" pt_clust_9="23.22545"></scales>
<clustering>
<clus scale="   23.225">  2  9  1 -1</clus>
<clus scale="   82.199">  5  6 -1 -1</clus>
<clus scale="   83.471">  2  5  1 -1</clus>
<clus scale="   90.362">  7  8 -1 -1</clus>
<clus scale="   23.225">  2  5  1 -1</clus>
</clustering>
</event>
<event>
 9    2  0.5684583E-005  0.9561269E+02  0.7546771E-02  0.1296105E+00
          2   -1    0    0  502    0  0.00000000000E+00  0.00000000000E+00  0.62007688628E+03  0.62007688628E+03  0.00000000000E+00 0. -1.
         -1   -1    0    0    0  501 -0.00000000000E+00 -0.00000000000E+00 -0.25638468721E+02  0.25638468721E+02  0.00000000000E+00 0.  1.
         23    2    1    2    0    0 -0.73661362887E+01  0.14826261310E+02  0.13305818246E+03  0.16236082613E+03  0.91555884331E+02 0.  0.
         24    2    1    2    0    0  0.27871811050E+02 -0.14457353742E+02  0.45307564507E+03  0.46122796099E+03  0.80422875591E+02 0.  0.
        -11    1    4    4    0    0  0.38873716034E+02 -0.18222306614E+02  0.11188709510E+03  0.11984131302E+03  0.00000000000E+00 0.  1.
         12    1    4    4    0    0 -0.11001904984E+02  0.37649528719E+01  0.34118854997E+03  0.34138664797E+03  0.00000000000E+00 0. -1.
        -11    1    3    3    0    0 -0.21946283774E+02 -0.18427468566E+02  0.47923543223E+01  0.29054735056E+02  0.00000000000E+00 0. -1.
         11    1    3    3    0    0  0.14580147485E+02  0.33253729875E+02  0.12826582813E+03  0.13330609108E+03  0.00000000000E+00 0.  1.
         21    1    1    2  502  501 -0.20505674762E+02 -0.36890756766E+00  0.83045900302E+01  0.22126567872E+02  0.00000000000E+00 0. -1.
<scales pt_clust_5="13000.00000" pt_clust_6="13000.00000" pt_clust_7="13000.00000" pt_clust_8="13000.00000" pt_clust_9="20.50899"></scales>
<clustering>
<clus scale="   20.509">  2  9  1 -1</clus>
<clus scale="   80.423">  5  6 -1 -1</clus>
<clus scale="   85.013">  1  5  2 -1</clus>
<clus scale="   91.556">  7  8 -1 -1</clus>
<clus scale="   85.013">  1  5  2 -1</clus>
</clustering>
</event>
<event>
 9    2  0.5684583E-005  0.8532713E+02  0.7546771E-02  0.1316816E+00
         -1   -1    0    0    0  501 -0.00000000000E+00  0.00000000000E+00  0.15665919648E+02  0.15665919648E+02  0.00000000000E+00 0.  1.
          2   -1    0    0  502    0  0.00000000000E+00 -0.00000000000E+00 -0.64711508465E+03  0.64711508465E+03  0.00000000000E+00 0. -1.
         23    2    1    2    0    0 -0.16859136903E+01  0.20067207402E+01 -0.17652325208E+03  0.19569645020E+03  0.84437982328E+02 0.  0.
         24    2    1    2    0    0  0.32448183832E+00  0.18706878833E+02 -0.39513452176E+03  0.40379223892E+03  0.81035975499E+02 0.  0.
        -11    1    4    4    0    0 -0.23288735013E+02 -0.13993494092E+02 -0.55737477588E+02  0.62006850131E+02  0.00000000000E+00 0.  1.
         12    1    4    4    0    0  0.23613216851E+02  0.32700372925E+02 -0.33939704417E+03  0.34178538879E+03  0.00000000000E+00 0. -1.
        -13    1    3    3    0    0  0.36831395633E+02 -0.15148676211E+02 -0.62323178690E+02  0.73960886265E+02  0.00000000000E+00 0. -1.
         13    1    3    3    0    0 -0.38517309323E+02  0.17155396951E+02 -0.11420007339E+03  0.12173556393E+03  0.00000000000E+00 0.  1.
         21    1    1    2  502  501  0.13614318520E+01 -0.20713599573E+02 -0.59791391158E+02  0.63292315178E+02  0.00000000000E+00 0.  1.
<scales pt_clust_5="13000.00000" pt_clust_6="13000.00000" pt_clust_7="13000.00000" pt_clust_8="13000.00000" pt_clust_9="20.75829"></scales>
<clustering>
<clus scale="   20.758">  1  9  2 -1</clus>
<clus scale="   81.036">  5  6 -1 -1</clus>
<clus scale="   81.962">  2  5  1 -1</clus>
<clus scale="   84.438">  7  8 -1 -1</clus>
<clus scale="   81.962">  2  5  1 -1</clus>
</clustering>
</event>
<event>
 9    2  0.5684583E-005  0.9355886E+02  0.7546771E-02  0.1301904E+00
          4   -1    0    0  502    0  0.00000000000E+00  0.00000000000E+00  0.50946000919E+02  0.50946000919E+02  0.00000000000E+00 0. -1.
         -3   -1    0    0    0  501 -0.00000000000E+00 -0.00000000000E+00 -0.33970488106E+03  0.33970488106E+03  0.00000000000E+00 0.  1.
         24    2    1    2    0    0 -0.44085585381E+01  0.16342991788E+02 -0.17321787910E+03  0.19163520018E+03  0.80206530535E+02 0.  0.
         23    2    1    2    0    0 -0.19360621118E+02 -0.12629312800E+01 -0.16256820261E+02  0.95818149463E+02  0.92414311208E+02 0.  0.
        -11    1    3    3    0    0 -0.37931831326E+02  0.48133448605E+00 -0.48815262213E+02  0.61822207463E+02  0.00000000000E+00 0.  1.
         12    1    3    3    0    0  0.33523272788E+02  0.15861657302E+02 -0.12440261689E+03  0.12981299272E+03  0.00000000000E+00 0. -1.
        -13    1    4    4    0    0  0.10672116119E+02  0.27736465386E+02  0.23713803036E+02  0.38020389648E+02  0.00000000000E+00 0. -1.
         13    1    4    4    0    0 -0.30032737237E+02 -0.28999396666E+02 -0.39970623297E+02  0.57797759815E+02  0.00000000000E+00 0.  1.
         21    1    1    2  502  501  0.23769179656E+02 -0.15080060508E+02 -0.99284180781E+02  0.10319753233E+03  0.00000000000E+00 0.  1.
<scales pt_clust_5="13000.00000" pt_clust_6="13000.00000" pt_clust_7="13000.00000" pt_clust_8="13000.00000" pt_clust_9="28.14928"></scales>
<clustering>
<clus scale="   28.149">  2  9  1 -1</clus>
<clus scale="   80.207">  5  6 -1 -1</clus>
<clus scale="   81.523">  2  5  1 -1</clus>
<clus scale="   92.414">  7  8 -1 -1</clus>
<clus scale="   93.559">  1  5  2 -1</clus>
</clustering>
</event>
<event>
 9    2  0.5684583E-005  0.1655479E+03  0.7546771E-02  0.1186775E+00
         -1   -1    0    0    0  501 -0.00000000000E+00  0.00000000000E+00  0.52765507846E+02  0.52765507846E+02  0.00000000000E+00 0.  1.
          2   -1    0    0  502    0  0.00000000000E+00 -0.00000000000E+00 -0.79040731643E+03  0.79040731643E+03  0.00000000000E+00 0. -1.
         24    2    1    2    0    0  0.10493140573E+03  0.39277405549E+02 -0.21609671212E+03  0.25579776312E+03  0.78621829892E+02 0.  0.
         23    2    1    2    0    0 -0.14630398270E+03  0.48933225011E+01 -0.48368088335E+03  0.51598569236E+03  0.10423645160E+03 0.  0.
        -11    1    3    3    0    0  0.10183257143E+03  0.17063914859E+02 -0.20751515213E+03  0.23178349415E+03  0.00000000000E+00 0.  1.
         12    1    3    3    0    0  0.30988343025E+01  0.22213490690E+02 -0.85815599831E+01  0.24014268976E+02  0.00000000000E+00 0. -1.
        -13    1    4    4    0    0 -0.54536085302E+01  0.33924208523E+02 -0.69119061264E+02  0.77188330724E+02  0.00000000000E+00 0.  1.
         13    1    4    4    0    0 -0.14085037417E+03 -0.29030886022E+02 -0.41456182209E+03  0.43879736164E+03  0.00000000000E+00 0. -1.
         21    1    1    2  502  501  0.41372576969E+02 -0.44170728050E+02 -0.37864213114E+02  0.71389368790E+02  0.00000000000E+00 0.  1.
<scales pt_clust_5="13000.00000" pt_clust_6="13000.00000" pt_clust_7="13000.00000" pt_clust_8="13000.00000" pt_clust_9="60.52060"></scales>
<clustering>
<clus scale="   60.521">  1  9  2 -1</clus>
<clus scale="   78.622">  5  6 -1 -1</clus>
<clus scale="  104.236">  7  8 -1 -1</clus>
<clus scale="  150.739">  1  5  2 -1</clus>
<clus scale="  165.548">  2  5  1 -1</clus>
</clustering>
</event>
<event>
 9    2  0.5684583E-005  0.1074235E+03  0.7546771E-02  0.1273488E+00
         -1   -1    0    0    0  501 -0.00000000000E+00  0.00000000000E+00  0.95944291589E+02  0.95944291589E+02  0.00000000000E+00 0.  1.
          2   -1    0    0  502    0  0.00000000000E+00 -0.00000000000E+00 -0.22085335052E+03  0.22085335052E+03  0.00000000000E+00 0. -1.
         24    2    1    2    0    0  0.17135205912E+02  0.10395800153E+02 -0.15237519418E+02  0.84068113958E+02  0.80209586983E+02 0.  0.
         23    2    1    2    0    0 -0.69901946920E+01 -0.65525707942E+02 -0.12781702236E+03  0.17381020591E+03  0.97623333540E+02 0.  0.
        -13    1    3    3    0    0  0.30881312233E+02 -0.27648816943E+02 -0.13446773863E+02  0.43576693896E+02  0.00000000000E+00 0.  1.
         14    1    3    3    0    0 -0.13746106321E+02  0.38044617096E+02 -0.17907455545E+01  0.40491420062E+02  0.00000000000E+00 0. -1.
        -13    1    4    4    0    0  0.59027106689E+01  0.24818470528E+02 -0.19105767542E+02  0.31872069685E+02  0.00000000000E+00 0.  1.
         13    1    4    4    0    0 -0.12892905361E+02 -0.90344178470E+02 -0.10871125482E+03  0.14193813623E+03  0.00000000000E+00 0. -1.
         21    1    1    2  502  501 -0.10145011220E+02  0.55129907789E+02  0.18145482846E+02  0.58919322240E+02  0.00000000000E+00 0. -1.
<scales pt_clust_5="13000.00000" pt_clust_6="13000.00000" pt_clust_7="13000.00000" pt_clust_8="13000.00000" pt_clust_9="56.05558"></scales>
<clustering>
<clus scale="   56.056">  1  9  2 -1</clus>
<clus scale="   80.210">  5  6 -1 -1</clus>
<clus scale="   91.886">  1  5  2 -1</clus>
<clus scale="   97.623">  7  8 -1 -1</clus>
<clus scale="  107.424">  2  5  1 -1</clus>
</clustering>
</event>
<event>
 9    2  0.5684583E-005  0.1199625E+03  0.7546771E-02  0.1246534E+00
          2   -1    0    0  502    0  0.00000000000E+00  0.00000000000E+00  0.36406812160E+03  0.36406812160E+03  0.00000000000E+00 0. -1.
         -1   -1    0    0    0  501 -0.00000000000E+00 -0.00000000000E+00 -0.76771226523E+02  0.76771226523E+02  0.00000000000E+00 0.  1.
         23    2    1    2    0    0 -0.40520719980E+02  0.28956635572E+02 -0.45970519186E+01  0.10412917762E+03  0.91330921677E+02 0.  0.
         24    2    1    2    0    0  0.52976075076E+02 -0.65824886843E+02  0.26439377188E+03  0.28905869147E+03  0.80693743563E+02 0.  0.
        -13    1    4    4    0    0 -0.21202209990E+02 -0.84951125830E+01  0.44686671956E+02  0.50185648314E+02  0.00000000000E+00 0.  1.
         14    1    4    4    0    0  0.74178285066E+02 -0.57329774260E+02  0.21970709992E+03  0.23887304316E+03  0.00000000000E+00 0. -1.
        -13    1    3    3    0    0 -0.34263093009E+02 -0.10816939097E+01 -0.42988337386E+02  0.54982967867E+02  0.00000000000E+00 0.  1.
         13    1    3    3    0    0 -0.62576269713E+01  0.30038329482E+02  0.38391285467E+02  0.49146209754E+02  0.00000000000E+00 0. -1.
         21    1    1    2  502  501 -0.12455355096E+02  0.36868251271E+02  0.27500175123E+02  0.47651479034E+02  0.00000000000E+00 0. -1.
<scales pt_clust_5="13000.00000" pt_clust_6="13000.00000" pt_clust_7="13000.00000" pt_clust_8="13000.00000" pt_clust_9="38.91534"></scales>
<clustering>
<clus scale="   38.915">  2  9  1 -1</clus>
<clus scale="   80.694">  5  6 -1 -1</clus>
<clus scale="   91.331">  7  8 -1 -1</clus>
<clus scale="  112.076">  1  5  2 -1</clus>
<clus scale="  112.076">  1  5  2 -1</clus>
</clustering>
</event>
<event>
 9    2  0.5684583E-005  0.1183715E+03  0.7546771E-02  0.1249868E+00
         -3   -1    0    0    0  501 -0.00000000000E+00  0.00000000000E+00  0.79504129350E+02  0.79504129350E+02  0.00000000000E+00 0.  1.
          4   -1    0    0  502    0  0.00000000000E+00 -0.00000000000E+00 -0.43780675384E+03  0.43780675384E+03  0.00000000000E+00 0. -1.
         23    2    1    2    0    0 -0.18997738751E+02  0.47958731849E+02  0.16716343502E+02  0.10734211665E+03  0.92638759864E+02 0.  0.
         24    2    1    2    0    0 -0.40632756007E+01 -0.77352505305E+02 -0.34311870505E+03  0.36084208258E+03  0.80477590162E+02 0.  0.
        -13    1    4    4    0    0 -0.31332747325E+02 -0.39586445979E+01 -0.13044819142E+03  0.13421677453E+03  0.00000000000E+00 0.  1.
         14    1    4    4    0    0  0.27269471724E+02 -0.73393860707E+02 -0.21267051363E+03  0.22662530805E+03  0.00000000000E+00 0. -1.
        -13    1    3    3    0    0  0.98004230005E+01  0.37608837388E+02  0.49210384262E+02  0.62706736957E+02  0.00000000000E+00 0.  1.
         13    1    3    3    0    0 -0.28798161752E+02  0.10349894461E+02 -0.32494040760E+02  0.44635379695E+02  0.00000000000E+00 0. -1.
         21    1    1    2  502  501  0.23061014352E+02  0.29393773456E+02 -0.31900262937E+02  0.49126683955E+02  0.00000000000E+00 0.  1.
<scales pt_clust_5="13000.00000" pt_clust_6="13000.00000" pt_clust_7="13000.00000" pt_clust_8="13000.00000" pt_clust_9="37.36046"></scales>
<clustering>
<clus scale="   37.360">  1  9  2 -1</clus>
<clus scale="   80.478">  5  6 -1 -1</clus>
<clus scale="   92.639">  7  8 -1 -1</clus>
<clus scale="  109.117">  2  5  1 -1</clus>
<clus scale="  109.117">  2  5  1 -1</clus>
</clustering>
</event>
<event>
 9    2  0.5684583E-005  0.8711471E+02  0.7546771E-02  0.1314674E+00
         -1   -1    0    0    0  501 -0.00000000000E+00  0.00000000000E+00  0.19384956013E+02  0.19384956013E+02  0.00000000000E+00 0.  1.
          2   -1    0    0  502    0  0.00000000000E+00 -0.00000000000E+00 -0.67699982680E+03  0.67699982680E+03  0.00000000000E+00 0. -1.
         23    2    1    2    0    0 -0.12484238175E+02 -0.13235848860E+02 -0.18198412215E+03  0.20256911343E+03  0.87091796996E+02 0.  0.
         24    2    1    2    0    0 -0.54355800149E+01 -0.70867257573E+01 -0.44777308200E+03  0.45495467977E+03  0.80020375344E+02 0.  0.
        -11    1    4    4    0    0  0.18195876843E+02  0.90077099145E+01 -0.30120318890E+02  0.36324404772E+02  0.00000000000E+00 0.  1.
         12    1    4    4    0    0 -0.23631456858E+02 -0.16094435672E+02 -0.41765276311E+03  0.41863027500E+03  0.00000000000E+00 0. -1.
        -13    1    3    3    0    0  0.34286378797E+02 -0.48646952573E+01 -0.40323911759E+02  0.53152976309E+02  0.00000000000E+00 0. -1.
         13    1    3    3    0    0 -0.46770616972E+02 -0.83711536029E+01 -0.14166021039E+03  0.14941613713E+03  0.00000000000E+00 0.  1.
         21    1    1    2  502  501  0.17919818190E+02  0.20322574618E+02 -0.27857666638E+02  0.38860989611E+02  0.00000000000E+00 0.  1.
<scales pt_clust_5="13000.00000" pt_clust_6="13000.00000" pt_clust_7="13000.00000" pt_clust_8="13000.00000" pt_clust_9="27.09478"></scales>
<clustering>
<clus scale="   27.095">  1  9  2 -1</clus>
<clus scale="   80.020">  5  6 -1 -1</clus>
<clus scale="   80.045">  2  5  1 -1</clus>
<clus scale="   87.092">  7  8 -1 -1</clus>
<clus scale="   80.045">  2  5  1 -1</clus>
</clustering>
</event>
<event>
 9    2  0.5684583E-005  0.1184784E+03  0.7546771E-02  0.1255348E+00
          2   -1    0    0  502    0  0.00000000000E+00  0.00000000000E+00  0.13487200443E+03  0.13487200443E+03  0.00000000000E+00 0. -1.
         -1   -1    0    0    0  501 -0.00000000000E+00 -0.00000000000E+00 -0.25055860393E+03  0.25055860393E+03  0.00000000000E+00 0.  1.
         24    2    1    2    0    0 -0.10321087750E+02 -0.82883220936E+01 -0.16175912929E+03  0.18105204813E+03  0.80240931501E+02 0.  0.
         23    2    1    2    0    0  0.29487904575E+02  0.57040067789E+02  0.75651625407E+02  0.14422024848E+03  0.10465756445E+03 0.  0.
        -11    1    3    3    0    0  0.14255641245E+02 -0.38346937922E+02 -0.65118638570E+02  0.76903498259E+02  0.00000000000E+00 0.  1.
         12    1    3    3    0    0 -0.24576728995E+02  0.30058615829E+02 -0.96640490716E+02  0.10414854987E+03  0.00000000000E+00 0. -1.
        -13    1    4    4    0    0  0.51696985341E+02  0.65299497362E+02  0.22878251919E+02  0.86371390286E+02  0.00000000000E+00 0. -1.
         13    1    4    4    0    0 -0.22209080766E+02 -0.82594295722E+01  0.52773373488E+02  0.57848858197E+02  0.00000000000E+00 0.  1.
         21    1    1    2  502  501 -0.19166816825E+02 -0.48751745696E+02 -0.29579095613E+02  0.60158311752E+02  0.00000000000E+00 0.  1.
<scales pt_clust_5="13000.00000" pt_clust_6="13000.00000" pt_clust_7="13000.00000" pt_clust_8="13000.00000" pt_clust_9="52.38415"></scales>
<clustering>
<clus scale="   52.384">  2  9  1 -1</clus>
<clus scale="   80.241">  5  6 -1 -1</clus>
<clus scale="   97.583">  2  5  1 -1</clus>
<clus scale="  104.658">  7  8 -1 -1</clus>
<clus scale="  118.478">  1  5  2 -1</clus>
</clustering>
</event>
<event>
 9    2  0.5684583E-005  0.1255677E+03  0.7546771E-02  0.1237962E+00
          2   -1    0    0  502    0  0.00000000000E+00  0.00000000000E+00  0.95331492630E+03  0.95331492630E+03  0.00000000000E+00 0. -1.
         -1   -1    0    0    0  501 -0.00000000000E+00 -0.00000000000E+00 -0.37503224116E+02  0.37503224116E+02  0.00000000000E+00 0.  1.
         23    2    1    2    0    0  0.13626126430E+03 -0.68689485756E+00  0.33189560382E+03  0.37086709662E+03  0.93915427613E+02 0.  0.
         24    2    1    2    0    0 -0.67921595679E+02  0.86219356784E+01  0.50149111072E+03  0.51258647040E+03  0.81017742326E+02 0.  0.
        -13    1    4    4    0    0 -0.49781997729E+02 -0.33253390152E+02  0.25788526064E+03  0.26474297519E+03  0.00000000000E+00 0.  1.
         14    1    4    4    0    0 -0.18139597951E+02  0.41875325831E+02  0.24360585008E+03  0.24784349522E+03  0.00000000000E+00 0. -1.
        -11    1    3    3    0    0  0.10294000215E+03 -0.86014429670E+01  0.12978744170E+03  0.16587769255E+03  0.00000000000E+00 0.  1.
         11    1    3    3    0    0  0.33321262158E+02  0.79145481094E+01  0.20210816213E+03  0.20498940407E+03  0.00000000000E+00 0. -1.
         21    1    1    2  502  501 -0.68339668624E+02 -0.79350408209E+01  0.82424987640E+02  0.10736458340E+03  0.00000000000E+00 0.  1.
<scales pt_clust_5="13000.00000" pt_clust_6="13000.00000" pt_clust_7="13000.00000" pt_clust_8="13000.00000" pt_clust_9="68.79880"></scales>
<clustering>
<clus scale="   68.799">  2  9  1 -1</clus>
<clus scale="   81.018">  5  6 -1 -1</clus>
<clus scale="   93.915">  7  8 -1 -1</clus>
<clus scale="  116.237">  1  5  2 -1</clus>
<clus scale="  116.237">  1  5  2 -1</clus>
</clustering>
</event>
<event>
 9    2  0.5684583E-005  0.9842787E+02  0.7546771E-02  0.1289209E+00
         -1   -1    0    0    0  501 -0.00000000000E+00  0.00000000000E+00  0.40262769708E+02  0.40262769708E+02  0.00000000000E+00 0.  1.
          2   -1    0    0  502    0  0.00000000000E+00 -0.00000000000E+00 -0.11100510566E+04  0.11100510566E+04  0.00000000000E+00 0. -1.
         23    2    1    2    0    0  0.14589284781E+02  0.36488783522E+02 -0.30731909284E+02  0.10373077896E+03  0.90946938934E+02 0.  0.
         24    2    1    2    0    0 -0.28019659193E+02 -0.55236741838E+01 -0.87215550243E+03  0.87630352689E+03  0.80231156942E+02 0.  0.
        -11    1    4    4    0    0  0.18508378168E+02 -0.13389328324E+02 -0.94660144954E+02  0.97377498520E+02  0.00000000000E+00 0.  1.
         12    1    4    4    0    0 -0.46528037361E+02  0.78656541403E+01 -0.77749535747E+03  0.77892602837E+03  0.00000000000E+00 0. -1.
        -13    1    3    3    0    0 -0.32543743055E+02  0.38363287246E+02 -0.25112368480E+02  0.56226933680E+02  0.00000000000E+00 0. -1.
         13    1    3    3    0    0  0.47133027836E+02 -0.18745037249E+01 -0.56195408042E+01  0.47503845277E+02  0.00000000000E+00 0.  1.
         21    1    1    2  502  501  0.13430374411E+02 -0.30965109338E+02 -0.16690087522E+03  0.17027952050E+03  0.00000000000E+00 0. -1.
<scales pt_clust_5="13000.00000" pt_clust_6="13000.00000" pt_clust_7="13000.00000" pt_clust_8="13000.00000" pt_clust_9="33.75223"></scales>
<clustering>
<clus scale="   33.752">  2  9  1 -1</clus>
<clus scale="   80.231">  5  6 -1 -1</clus>
<clus scale="   88.621">  2  5  1 -1</clus>
<clus scale="   90.947">  7  8 -1 -1</clus>
<clus scale="   33.752">  2  5  1 -1</clus>
</clustering>
</event>
<event>
 9    2  0.5684583E-005  0.1196474E+03  0.7546771E-02  0.1255947E+00
         -1   -1    0    0    0  501 -0.00000000000E+00  0.00000000000E+00  0.16347993597E+03  0.16347993597E+03  0.00000000000E+00 0.  1.
          2   -1    0    0  502    0  0.00000000000E+00 -0.00000000000E+00 -0.85065978435E+03  0.85065978435E+03  0.00000000000E+00 0. -1.
         23    2    1    2    0    0  0.39899583415E+02 -0.20412684728E+02  0.13473366283E+03  0.17211835915E+03  0.97277516437E+02 0.  0.
         24    2    1    2    0    0 -0.66590544910E+02  0.21942141271E+02 -0.80482367352E+03  0.81029110407E+03  0.62568120081E+02 0.  0.
        -11    1    4    4    0    0 -0.14720145957E+02  0.21964178275E+02 -0.96077094054E+02  0.99648962996E+02  0.00000000000E+00 0.  1.
         12    1    4    4    0    0 -0.51870398953E+02 -0.22037004128E-01 -0.70874657946E+03  0.71064214108E+03  0.00000000000E+00 0. -1.
        -11    1    3    3    0    0  0.51957567028E+02 -0.51763253207E+02  0.96884175751E+02  0.12151364806E+03  0.00000000000E+00 0.  1.
         11    1    3    3    0    0 -0.12057983613E+02  0.31350568480E+02  0.37849487077E+02  0.50604711093E+02  0.00000000000E+00 0. -1.
         21    1    1    2  502  501  0.26690961495E+02 -0.15294565433E+01 -0.17089837699E+02  0.31730257097E+02  0.00000000000E+00 0. -1.
<scales pt_clust_5="13000.00000" pt_clust_6="13000.00000" pt_clust_7="13000.00000" pt_clust_8="13000.00000" pt_clust_9="26.73475"></scales>
<clustering>
<clus scale="   26.735">  1  9  2 -1</clus>
<clus scale="   62.568">  5  6 -1 -1</clus>
<clus scale="   93.634">  2  5  1 -1</clus>
<clus scale="   97.278">  7  8 -1 -1</clus>
<clus scale="   93.634">  2  5  1 -1</clus>
</clustering>
</event>
<event>
 9    2  0.5684583E-005  0.1200561E+03  0.7546771E-02  0.1243323E+00
         -1   -1    0    0    0  501 -0.00000000000E+00  0.00000000000E+00  0.77395370165E+02  0.77395370165E+02  0.00000000000E+00 0.  1.
          2   -1    0    0  502    0  0.00000000000E+00 -0.00000000000E+00 -0.71977067753E+03  0.71977067753E+03  0.00000000000E+00 0. -1.
         24    2    1    2    0    0 -0.48517669505E+02 -0.26572033930E+02 -0.56457521680E+02  0.11914359776E+03  0.89149918065E+02 0.  0.
         23    2    1    2    0    0  0.78041067621E+02  0.30955543072E+02 -0.62034284034E+03  0.63246006878E+03  0.90176743984E+02 0.  0.
        -13    1    3    3    0    0 -0.41236159078E+02  0.27896510120E+02 -0.30313085757E+02  0.58288242901E+02  0.00000000000E+00 0.  1.
         14    1    3    3    0    0 -0.72815104268E+01 -0.54468544050E+02 -0.26144435923E+02  0.60855354857E+02  0.00000000000E+00 0. -1.
        -11    1    4    4    0    0 -0.11782113012E+02 -0.17536698233E+02 -0.10421633258E+03  0.10633624946E+03  0.00000000000E+00 0.  1.
         11    1    4    4    0    0  0.89823180633E+02  0.48492241305E+02 -0.51612650776E+03  0.52612381932E+03  0.00000000000E+00 0. -1.
         21    1    1    2  502  501 -0.29523398117E+02 -0.43835091413E+01  0.34425054655E+02  0.45562381158E+02  0.00000000000E+00 0.  1.
<scales pt_clust_5="13000.00000" pt_clust_6="13000.00000" pt_clust_7="13000.00000" pt_clust_8="13000.00000" pt_clust_9="29.84705"></scales>
<clustering>
<clus scale="   29.847">  1  9  2 -1</clus>
<clus scale="   89.150">  5  6 -1 -1</clus>
<clus scale="   90.177">  7  8 -1 -1</clus>
<clus scale="  119.287">  1  5  2 -1</clus>
<clus scale="  120.056">  2  5  1 -1</clus>
</clustering>
</event>
<event>
 9    2  0.5684583E-005  0.9535611E+02  0.7546771E-02  0.1296734E+00
          2   -1    0    0  502    0  0.00000000000E+00  0.00000000000E+00  0.75934873057E+02  0.75934873057E+02  0.00000000000E+00 0. -1.
         -1   -1    0    0    0  501 -0.00000000000E+00 -0.00000000000E+00 -0.37169923312E+03  0.37169923312E+03  0.00000000000E+00 0.  1.
         24    2    1    2    0    0  0.26522573675E+02 -0.36175691336E+02 -0.24784714562E+03  0.26412917465E+03  0.79522863099E+02 0.  0.
         23    2    1    2    0    0 -0.28108985809E+02  0.47074001180E+01  0.29747749273E+02  0.99691945385E+02  0.90781499705E+02 0.  0.
        -13    1    3    3    0    0  0.49793064319E+02 -0.32977613809E+02 -0.21863073766E+03  0.22664128423E+03  0.00000000000E+00 0.  1.
         14    1    3    3    0    0 -0.23270490644E+02 -0.31980775262E+01 -0.29216407953E+02  0.37487890422E+02  0.00000000000E+00 0. -1.
        -11    1    4    4    0    0 -0.58356794740E+02 -0.10455465677E+02  0.28632434463E+02  0.65838047952E+02  0.00000000000E+00 0. -1.
         11    1    4    4    0    0  0.30247808931E+02  0.15162865795E+02  0.11153148102E+01  0.33853897432E+02  0.00000000000E+00 0.  1.
         21    1    1    2  502  501  0.15864121341E+01  0.31468291217E+02 -0.77664963716E+02  0.83812986134E+02  0.00000000000E+00 0.  1.
<scales pt_clust_5="13000.00000" pt_clust_6="13000.00000" pt_clust_7="13000.00000" pt_clust_8="13000.00000" pt_clust_9="31.50825"></scales>
<clustering>
<clus scale="   31.508">  2  9  1 -1</clus>
<clus scale="   79.523">  5  6 -1 -1</clus>
<clus scale="   84.708">  2  5  1 -1</clus>
<clus scale="   90.781">  7  8 -1 -1</clus>
<clus scale="   95.356">  1  5  2 -1</clus>
</clustering>
</event>
<event>
 9    2  0.5684583E-005  0.9879928E+02  0.7546771E-02  0.1288400E+00
         -1   -1    0    0    0  501 -0.00000000000E+00  0.00000000000E+00  0.21260254254E+03  0.21260254254E+03  0.00000000000E+00 0.  1.
          2   -1    0    0  502    0  0.00000000000E+00 -0.00000000000E+00 -0.40133005961E+03  0.40133005961E+03  0.00000000000E+00 0. -1.
         23    2    1    2    0    0 -0.77327288750E+02  0.13366720280E+02  0.13927603303E+03  0.18409564513E+03  0.91297395268E+02 0.  0.
         24    2    1    2    0    0  0.36461640216E+02  0.10159310673E+01 -0.36333057232E+03  0.37393650632E+03  0.80553849367E+02 0.  0.
        -13    1    4    4    0    0  0.37402084263E+02  0.56778781681E+01 -0.62425249924E+02  0.72993602704E+02  0.00000000000E+00 0.  1.
         14    1    4    4    0    0 -0.94044404741E+00 -0.46619471008E+01 -0.30090532240E+03  0.30094290361E+03  0.00000000000E+00 0. -1.
        -13    1    3    3    0    0 -0.90573206201E+02 -0.11174648421E+02  0.11712439170E+03  0.14848064379E+03  0.00000000000E+00 0.  1.
         13    1    3    3    0    0  0.13245917451E+02  0.24541368701E+02  0.22151641325E+02  0.35615001337E+02  0.00000000000E+00 0. -1.
         21    1    1    2  502  501  0.40865648534E+02 -0.14382651347E+02  0.35327022223E+02  0.55900450705E+02  0.00000000000E+00 0. -1.
<scales pt_clust_5="13000.00000" pt_clust_6="13000.00000" pt_clust_7="13000.00000" pt_clust_8="13000.00000" pt_clust_9="43.32276"></scales>
<clustering>
<clus scale="   43.323">  1  9  2 -1</clus>
<clus scale="   80.554">  5  6 -1 -1</clus>
<clus scale="   88.966">  2  5  1 -1</clus>
<clus scale="   91.297">  7  8 -1 -1</clus>
<clus scale="   88.966">  2  5  1 -1</clus>
</clustering>
</event>
<event>
 9    2  0.5684583E-005  0.1118941E+03  0.7546771E-02  0.1260101E+00
         -3   -1    0    0    0  501 -0.00000000000E+00  0.00000000000E+00  0.15240277197E+03  0.15240277197E+03  0.00000000000E+00 0.  1.
          4   -1    0    0  502    0  0.00000000000E+00 -0.00000000000E+00 -0.41060357708E+03  0.41060357708E+03  0.00000000000E+00 0. -1.
         23    2    1    2    0    0  0.45256310036E+02 -0.61812612660E+02  0.31462951140E+02  0.12397548708E+03  0.92255468236E+02 0.  0.
         24    2    1    2    0    0  0.42413782171E+02  0.52782989411E+02 -0.32616759327E+03  0.34363636904E+03  0.84354503954E+02 0.  0.
        -13    1    4    4    0    0  0.11569485916E+02 -0.22191994931E+02 -0.51584511881E+02  0.57334976318E+02  0.00000000000E+00 0.  1.
         14    1    4    4    0    0  0.30844296255E+02  0.74974984343E+02 -0.27458308139E+03  0.28630139272E+03  0.00000000000E+00 0. -1.
        -13    1    3    3    0    0  0.23276891508E+02 -0.69380330805E+02  0.54502326971E+02  0.91246630766E+02  0.00000000000E+00 0.  1.
         13    1    3    3    0    0  0.21979418528E+02  0.75677181446E+01 -0.23039375831E+02  0.32728856311E+02  0.00000000000E+00 0. -1.
         21    1    1    2  502  501 -0.87670092207E+02  0.90296232486E+01  0.36503837026E+02  0.95394492929E+02  0.00000000000E+00 0.  1.
<scales pt_clust_5="13000.00000" pt_clust_6="13000.00000" pt_clust_7="13000.00000" pt_clust_8="13000.00000" pt_clust_9="88.13387"></scales>
<clustering>
<clus scale="   84.355">  5  6 -1 -1</clus>
<clus scale="   88.134">  1  9  2 -1</clus>
<clus scale="   92.255">  7  8 -1 -1</clus>
<clus scale="  105.475">  2  5  1 -1</clus>
<clus scale="  105.475">  2  5  1 -1</clus>
</clustering>
</event>
<event>
 9    2  0.5684583E-005  0.1083945E+03  0.7546771E-02  0.1269349E+00
         -1   -1    0    0    0  501 -0.00000000000E+00  0.00000000000E+00  0.18415009835E+03  0.18415009835E+03  0.00000000000E+00 0.  1.
          2   -1    0    0  502    0  0.00000000000E+00 -0.00000000000E+00 -0.20890377749E+03  0.20890377749E+03  0.00000000000E+00 0. -1.
         23    2    1    2    0    0  0.44465755746E+02 -0.71291625413E+02  0.74352261372E+02  0.14688307887E+03  0.94798105454E+02 0.  0.
         24    2    1    2    0    0 -0.12277486895E+02  0.47526800213E+02 -0.15235522617E+03  0.17956495645E+03  0.81375212580E+02 0.  0.
        -11    1    4    4    0    0  0.26337200903E+02 -0.57606441145E+01 -0.27992157732E+02  0.38863788628E+02  0.00000000000E+00 0.  1.
         12    1    4    4    0    0 -0.38614687798E+02  0.53287444328E+02 -0.12436306844E+03  0.14070116783E+03  0.00000000000E+00 0. -1.
        -11    1    3    3    0    0 -0.20514308870E+02 -0.35665772299E+02  0.57804808397E+02  0.70952660668E+02  0.00000000000E+00 0.  1.
         11    1    3    3    0    0  0.64980064616E+02 -0.35625853114E+02  0.16547452975E+02  0.75930418197E+02  0.00000000000E+00 0. -1.
         21    1    1    2  502  501 -0.32188268852E+02  0.23764825200E+02  0.53249285651E+02  0.66605840516E+02  0.00000000000E+00 0.  1.
<scales pt_clust_5="13000.00000" pt_clust_6="13000.00000" pt_clust_7="13000.00000" pt_clust_8="13000.00000" pt_clust_9="40.01064"></scales>
<clustering>
<clus scale="   40.011">  1  9  2 -1</clus>
<clus scale="   81.375">  5  6 -1 -1</clus>
<clus scale="   94.798">  7  8 -1 -1</clus>
<clus scale="   96.874">  2  5  1 -1</clus>
<clus scale="   96.874">  2  5  1 -1</clus>
</clustering>
</event>
<event>
 9    2  0.5684583E-005  0.1531256E+03  0.7546771E-02  0.1198480E+00
         -1   -1    0    0    0  501 -0.00000000000E+00  0.00000000000E+00  0.33640078125E+02  0.33640078125E+02  0.00000000000E+00 0.  1.
          2   -1    0    0  502    0  0.00000000000E+00 -0.00000000000E+00 -0.79681203542E+03  0.79681203542E+03  0.00000000000E+00 0. -1.
         23    2    1    2    0    0 -0.75449194747E+02 -0.97755150229E+02 -0.34705758529E+03  0.37936263043E+03  0.90655322376E+02 0.  0.
         24    2    1    2    0    0  0.54499875591E+02  0.11199792142E+03 -0.36777664795E+03  0.39651599073E+03  0.80321213168E+02 0.  0.
        -13    1    4    4    0    0 -0.10757275252E+02  0.69148876183E+02 -0.18302449685E+03  0.19594706555E+03  0.00000000000E+00 0.  1.
         14    1    4    4    0    0  0.65257150843E+02  0.42849045238E+02 -0.18475215109E+03  0.20056892518E+03  0.00000000000E+00 0. -1.
        -11    1    3    3    0    0 -0.19933595964E+01 -0.45215356986E+02 -0.43951803288E+02  0.63088533047E+02  0.00000000000E+00 0.  1.
         11    1    3    3    0    0 -0.73455835150E+02 -0.52539793243E+02 -0.30310578200E+03  0.31627409738E+03  0.00000000000E+00 0. -1.
         21    1    1    2  502  501  0.20949319156E+02 -0.14242771192E+02 -0.48337724057E+02  0.54573492387E+02  0.00000000000E+00 0. -1.
<scales pt_clust_5="13000.00000" pt_clust_6="13000.00000" pt_clust_7="13000.00000" pt_clust_8="13000.00000" pt_clust_9="25.33240"></scales>
<clustering>
<clus scale="   25.332">  1  9  2 -1</clus>
<clus scale="   80.321">  5  6 -1 -1</clus>
<clus scale="   90.655">  7  8 -1 -1</clus>
<clus scale="  147.243">  2  5  1 -1</clus>
<clus scale="  147.243">  2  5  1 -1</clus>
</clustering>
</event>
<event>
 9    2  0.5684583E-005  0.9277979E+02  0.7546771E-02  0.1301352E+00
          2   -1    0    0  502    0  0.00000000000E+00  0.00000000000E+00  0.14850170420E+03  0.14850170420E+03  0.00000000000E+00 0. -1.
         -1   -1    0    0    0  501 -0.00000000000E+00 -0.00000000000E+00 -0.88897144438E+02  0.88897144438E+02  0.00000000000E+00 0.  1.
         23    2    1    2    0    0  0.26947523539E+02 -0.97224189722E+01  0.25439959437E+01  0.96368783289E+02  0.91977040731E+02 0.  0.
         24    2    1    2    0    0 -0.61837334992E+01 -0.32927534029E+01  0.73510026285E+02  0.11151541637E+03  0.83563648428E+02 0.  0.
        -11    1    4    4    0    0 -0.41680618828E+02 -0.17818286702E+02  0.36234628125E+02  0.58032004981E+02  0.00000000000E+00 0.  1.
         12    1    4    4    0    0  0.35496885328E+02  0.14525533299E+02  0.37275398160E+02  0.53483411387E+02  0.00000000000E+00 0. -1.
        -11    1    3    3    0    0 -0.30528065052E+02 -0.45376675997E+01 -0.17253163007E+02  0.35358518307E+02  0.00000000000E+00 0.  1.
         11    1    3    3    0    0  0.57475588591E+02 -0.51847513725E+01  0.19797158950E+02  0.61010264982E+02  0.00000000000E+00 0. -1.
         21    1    1    2  502  501 -0.20763790040E+02  0.13015172375E+02 -0.16449462469E+02  0.29514648978E+02  0.00000000000E+00 0. -1.
<scales pt_clust_5="13000.00000" pt_clust_6="13000.00000" pt_clust_7="13000.00000" pt_clust_8="13000.00000" pt_clust_9="24.50571"></scales>
<clustering>
<clus scale="   24.506">  2  9  1 -1</clus>
<clus scale="   83.564">  5  6 -1 -1</clus>
<clus scale="   84.446">  1  5  2 -1</clus>
<clus scale="   91.977">  7  8 -1 -1</clus>
<clus scale="   84.446">  1  5  2 -1</clus>
</clustering>
</event>
<event>
 9    2  0.5684583E-005  0.9336791E+02  0.7546771E-02  0.1305581E+00
          4   -1    0    0  502    0  0.00000000000E+00  0.00000000000E+00  0.13748063360E+03  0.13748063360E+03  0.00000000000E+00 0. -1.
         -3   -1    0    0    0  501 -0.00000000000E+00 -0.00000000000E+00 -0.71982062501E+03  0.71982062501E+03  0.00000000000E+00 0.  1.
         23    2    1    2    0    0  0.50747278707E+02  0.89828341556E+00 -0.37861994202E+03  0.39249746826E+03  0.90139385892E+02 0.  0.
         24    2    1    2    0    0 -0.85173937235E+01 -0.22944375237E+02  0.11735836581E+03  0.14021059563E+03  0.72711998660E+02 0.  0.
        -13    1    4    4    0    0 -0.27352653879E+02 -0.36520204508E-02  0.10487489568E+02  0.29294284852E+02  0.00000000000E+00 0.  1.
         14    1    4    4    0    0  0.18835260155E+02 -0.22940723216E+02  0.10687087624E+03  0.11091631077E+03  0.00000000000E+00 0. -1.
        -11    1    3    3    0    0  0.50134343410E+02  0.37456051914E+02 -0.28915265449E+03  0.29584736912E+03  0.00000000000E+00 0.  1.
         11    1    3    3    0    0  0.61293529676E+00 -0.36557768499E+02 -0.89467287525E+02  0.96650099143E+02  0.00000000000E+00 0. -1.
         21    1    1    2  502  501 -0.42229884983E+02  0.22046091821E+02 -0.32107841520E+03  0.32459319472E+03  0.00000000000E+00 0. -1.
<scales pt_clust_5="13000.00000" pt_clust_6="13000.00000" pt_clust_7="13000.00000" pt_clust_8="13000.00000" pt_clust_9="47.63815"></scales>
<clustering>
<clus scale="   47.638">  2  9  1 -1</clus>
<clus scale="   72.712">  5  6 -1 -1</clus>
<clus scale="   76.678">  1  5  2 -1</clus>
<clus scale="   90.139">  7  8 -1 -1</clus>
<clus scale="   76.678">  1  5  2 -1</clus>
</clustering>
</event>
<event>
 9    2  0.5684583E-005  0.9770859E+02  0.7546771E-02  0.1290128E+00
         -1   -1    0    0    0  501 -0.00000000000E+00  0.00000000000E+00  0.52731080104E+02  0.52731080104E+02  0.00000000000E+00 0.  1.
          2   -1    0    0  502    0  0.00000000000E+00 -0.00000000000E+00 -0.53002582782E+03  0.53002582782E+03  0.00000000000E+00 0. -1.
         23    2    1    2    0    0 -0.11081544488E+01 -0.82876121742E+02 -0.86865645213E+02  0.14980537843E+03  0.89589795880E+02 0.  0.
         24    2    1    2    0    0  0.52058993597E+01  0.31685747767E+02 -0.36610474489E+03  0.37612794043E+03  0.80052828458E+02 0.  0.
        -11    1    4    4    0    0 -0.27655033957E+02 -0.83739959862E+00 -0.54591549864E+02  0.61202446502E+02  0.00000000000E+00 0.  1.
         12    1    4    4    0    0  0.32860933317E+02  0.32523147365E+02 -0.31151319502E+03  0.31492549393E+03  0.00000000000E+00 0. -1.
        -13    1    3    3    0    0 -0.26280201515E+02 -0.35689586109E+01  0.37476899161E+01  0.26784914353E+02  0.00000000000E+00 0.  1.
         13    1    3    3    0    0  0.25172047066E+02 -0.79307163131E+02 -0.90613335129E+02  0.12302046407E+03  0.00000000000E+00 0. -1.
         21    1    1    2  502  501 -0.40977449108E+01  0.51190373975E+02 -0.24324357615E+02  0.56823589067E+02  0.00000000000E+00 0. -1.
<scales pt_clust_5="13000.00000" pt_clust_6="13000.00000" pt_clust_7="13000.00000" pt_clust_8="13000.00000" pt_clust_9="51.35412"></scales>
<clustering>
<clus scale="   51.354">  1  9  2 -1</clus>
<clus scale="   80.053">  5  6 -1 -1</clus>
<clus scale="   89.045">  2  5  1 -1</clus>
<clus scale="   89.590">  7  8 -1 -1</clus>
<clus scale="   89.045">  2  5  1 -1</clus>
</clustering>
</event>
<event>
 9    2  0.5684583E-005  0.1028096E+03  0.7546771E-02  0.1291285E+00
          2   -1    0    0  502    0  0.00000000000E+00  0.00000000000E+00  0.43709430930E+03  0.43709430930E+03  0.00000000000E+00 0. -1.
         -1   -1    0    0    0  501 -0.00000000000E+00 -0.00000000000E+00 -0.44532167028E+02  0.44532167028E+02  0.00000000000E+00 0.  1.
         23    2    1    2    0    0  0.10736699730E+02 -0.17715534484E+02  0.82245079812E+02  0.13241318304E+03  0.10168520545E+03 0.  0.
         24    2    1    2    0    0 -0.14734506300E+02 -0.50989141256E+02  0.15779860949E+03  0.18188668625E+03  0.73248667397E+02 0.  0.
        -11    1    4    4    0    0  0.27959396226E+02 -0.70273875146E+01  0.58119805096E+02  0.64876989427E+02  0.00000000000E+00 0.  1.
         12    1    4    4    0    0 -0.42693902526E+02 -0.43961753741E+02  0.99678804394E+02  0.11700969682E+03  0.00000000000E+00 0. -1.
        -13    1    3    3    0    0  0.38932512872E+02 -0.24175695448E+02  0.63940944980E+00  0.45832451968E+02  0.00000000000E+00 0.  1.
         13    1    3    3    0    0 -0.28195813143E+02  0.64601609644E+01  0.81605670362E+02  0.86580731077E+02  0.00000000000E+00 0. -1.
         21    1    1    2  502  501  0.39978065706E+01  0.68704675740E+02  0.15251845297E+03  0.16732660704E+03  0.00000000000E+00 0. -1.
<scales pt_clust_5="13000.00000" pt_clust_6="13000.00000" pt_clust_7="13000.00000" pt_clust_8="13000.00000" pt_clust_9="68.82089"></scales>
<clustering>
<clus scale="   68.821">  1  9  2 -1</clus>
<clus scale="   73.249">  5  6 -1 -1</clus>
<clus scale="   74.802">  1  5  2 -1</clus>
<clus scale="  101.685">  7  8 -1 -1</clus>
<clus scale="   68.821">  1  5  2 -1</clus>
</clustering>
</event>
<event>
 9    2  0.5684583E-005  0.1453638E+03  0.7546771E-02  0.1208949E+00
          2   -1    0    0  502    0  0.00000000000E+00  0.00000000000E+00  0.27442702976E+03  0.27442702976E+03  0.00000000000E+00 0. -1.
         -1   -1    0    0    0  501 -0.00000000000E+00 -0.00000000000E+00 -0.18872128928E+03  0.18872128928E+03  0.00000000000E+00 0.  1.
         23    2    1    2    0    0 -0.38662414429E+02 -0.96567571465E+02 -0.97994777319E+02  0.17050548225E+03  0.93000349182E+02 0.  0.
         24    2    1    2    0    0  0.61950430491E+02  0.14133837450E+03  0.16255119088E+03  0.23792491901E+03  0.79818453283E+02 0.  0.
        -13    1    4    4    0    0 -0.15667153609E+02  0.31457033839E+02  0.14882711044E+02  0.38164116237E+02  0.00000000000E+00 0.  1.
         14    1    4    4    0    0  0.77617584100E+02  0.10988134066E+03  0.14766847983E+03  0.19976080277E+03  0.00000000000E+00 0. -1.
        -11    1    3    3    0    0 -0.16391395708E+02 -0.79782496802E+02 -0.14828229458E+02  0.82787686513E+02  0.00000000000E+00 0. -1.
         11    1    3    3    0    0 -0.22271018721E+02 -0.16785074663E+02 -0.83166547860E+02  0.87717795739E+02  0.00000000000E+00 0.  1.
         21    1    1    2  502  501 -0.23288016062E+02 -0.44770803036E+02  0.21149326923E+02  0.54717917778E+02  0.00000000000E+00 0.  1.
<scales pt_clust_5="13000.00000" pt_clust_6="13000.00000" pt_clust_7="13000.00000" pt_clust_8="13000.00000" pt_clust_9="50.46540"></scales>
<clustering>
<clus scale="   50.465">  1  9  2 -1</clus>
<clus scale="   79.818">  5  6 -1 -1</clus>
<clus scale="   93.000">  7  8 -1 -1</clus>
<clus scale="  137.305">  1  5  2 -1</clus>
<clus scale="   50.465">  1  5  2 -1</clus>
</clustering>
</event>
<event>
 9    2  0.5684583E-005  0.9813964E+02  0.7546771E-02  0.1289405E+00
          2   -1    0    0  502    0  0.00000000000E+00  0.00000000000E+00  0.80691638007E+03  0.80691638007E+03  0.00000000000E+00 0. -1.
         -1   -1    0    0    0  501 -0.00000000000E+00 -0.00000000000E+00 -0.16463274833E+03  0.16463274833E+03  0.00000000000E+00 0.  1.
         23    2    1    2    0    0  0.17511281670E+02  0.56153936067E+02 -0.16025182149E+02  0.10932468168E+03  0.90747837665E+02 0.  0.
         24    2    1    2    0    0 -0.15285636732E+02 -0.33142603808E+02  0.75632932644E+03  0.76151448799E+03  0.80859028636E+02 0.  0.
        -11    1    4    4    0    0  0.99388821325E+01 -0.31135011338E+02  0.11156188551E+03  0.11625069724E+03  0.00000000000E+00 0.  1.
         12    1    4    4    0    0 -0.25224518865E+02 -0.20075924693E+01  0.64476744092E+03  0.64526379075E+03  0.00000000000E+00 0. -1.
        -11    1    3    3    0    0  0.46905259302E+02  0.97304960243E+01  0.93397535013E+01  0.48805910488E+02  0.00000000000E+00 0. -1.
         11    1    3    3    0    0 -0.29393977633E+02  0.46423440043E+02 -0.25364935651E+02  0.60518771196E+02  0.00000000000E+00 0.  1.
         21    1    1    2  502  501 -0.22256449373E+01 -0.23011332259E+02 -0.98020512545E+02  0.10070995873E+03  0.00000000000E+00 0.  1.
<scales pt_clust_5="13000.00000" pt_clust_6="13000.00000" pt_clust_7="13000.00000" pt_clust_8="13000.00000" pt_clust_9="23.11871"></scales>
<clustering>
<clus scale="   23.119">  2  9  1 -1</clus>
<clus scale="   80.859">  5  6 -1 -1</clus>
<clus scale="   89.075">  1  5  2 -1</clus>
<clus scale="   90.748">  7  8 -1 -1</clus>
<clus scale="   89.075">  1  5  2 -1</clus>
</clustering>
</event>
<event>
 9    2  0.5684583E-005  0.1836191E+03  0.7546771E-02  0.1165177E+00
         -1   -1    0    0    0  501 -0.00000000000E+00  0.00000000000E+00  0.90422934479E+02  0.90422934479E+02  0.00000000000E+00 0.  1.
          2   -1    0    0  502    0  0.00000000000E+00 -0.00000000000E+00 -0.14370118609E+04  0.14370118609E+04  0.00000000000E+00 0. -1.
         23    2    1    2    0    0 -0.13671997614E+03  0.32075318504E+02 -0.25410047713E+03  0.30502909907E+03  0.93565596625E+02 0.  0.
         24    2    1    2    0    0  0.15978602824E+03  0.55060876537E+02 -0.11137312749E+04  0.11297989099E+04  0.86515600120E+02 0.  0.
        -13    1    4    4    0    0 -0.52448373066E+01  0.19498027968E+02 -0.89611449100E+02  0.91858005763E+02  0.00000000000E+00 0.  1.
         14    1    4    4    0    0  0.16503086554E+03  0.35562848569E+02 -0.10241198258E+04  0.10379409041E+04  0.00000000000E+00 0. -1.
        -13    1    3    3    0    0 -0.69636552254E+02 -0.31137151871E+02 -0.12404599176E+03  0.14562341744E+03  0.00000000000E+00 0.  1.
         13    1    3    3    0    0 -0.67083423882E+02  0.63212470375E+02 -0.13005448537E+03  0.15940568163E+03  0.00000000000E+00 0. -1.
         21    1    1    2  502  501 -0.23066052102E+02 -0.87136195041E+02  0.21242825661E+02  0.92606786403E+02  0.00000000000E+00 0.  1.
<scales pt_clust_5="13000.00000" pt_clust_6="13000.00000" pt_clust_7="13000.00000" pt_clust_8="13000.00000" pt_clust_9="90.13745"></scales>
<clustering>
<clus scale="   86.516">  5  6 -1 -1</clus>
<clus scale="   90.137">  1  9  2 -1</clus>
<clus scale="   93.566">  7  8 -1 -1</clus>
<clus scale="  180.129">  2  5  1 -1</clus>
<clus scale="  180.129">  2  5  1 -1</clus>
</clustering>
</event>
<event>
 9    2  0.5684583E-005  0.1047613E+03  0.7546771E-02  0.1273708E+00
          2   -1    0    0  502    0  0.00000000000E+00  0.00000000000E+00  0.21854933433E+03  0.21854933433E+03  0.00000000000E+00 0. -1.
         -1   -1    0    0    0  501 -0.00000000000E+00 -0.00000000000E+00 -0.43543356324E+03  0.43543356324E+03  0.00000000000E+00 0.  1.
         23    2    1    2    0    0 -0.42901409088E+02  0.51863356869E+02 -0.36558635773E+03  0.38198975307E+03  0.87934338025E+02 0.  0.
         24    2    1    2    0    0  0.22416514631E+02 -0.52081982754E+02  0.19659838294E+03  0.21989967219E+03  0.80559968943E+02 0.  0.
        -11    1    4    4    0    0 -0.62462820513E+01 -0.47386848158E+02  0.45348886721E+02  0.65886652250E+02  0.00000000000E+00 0.  1.
         12    1    4    4    0    0  0.28662796682E+02 -0.46951345952E+01  0.15124949622E+03  0.15401301994E+03  0.00000000000E+00 0. -1.
        -11    1    3    3    0    0 -0.59440437361E+02  0.30747734551E+02 -0.33359884401E+03  0.34024517263E+03  0.00000000000E+00 0.  1.
         11    1    3    3    0    0  0.16539028273E+02  0.21115622318E+02 -0.31987513726E+02  0.41744580444E+02  0.00000000000E+00 0. -1.
         21    1    1    2  502  501  0.20484894457E+02  0.21862588457E+00 -0.47896254128E+02  0.52093472313E+02  0.00000000000E+00 0. -1.
<scales pt_clust_5="13000.00000" pt_clust_6="13000.00000" pt_clust_7="13000.00000" pt_clust_8="13000.00000" pt_clust_9="20.48606"></scales>
<clustering>
<clus scale="   20.486">  2  9  1 -1</clus>
<clus scale="   80.560">  5  6 -1 -1</clus>
<clus scale="   87.934">  7  8 -1 -1</clus>
<clus scale="   98.653">  1  5  2 -1</clus>
<clus scale="   98.653">  1  5  2 -1</clus>
</clustering>
</event>
<event>
 9    2  0.5684583E-005  0.1096813E+03  0.7546771E-02  0.1263667E+00
         -1   -1    0    0    0  501 -0.00000000000E+00  0.00000000000E+00  0.33156561907E+02  0.33156561907E+02  0.00000000000E+00 0.  1.
          2   -1    0    0  502    0  0.00000000000E+00 -0.00000000000E+00 -0.86999278108E+03  0.86999278108E+03  0.00000000000E+00 0. -1.
         23    2    1    2    0    0  0.44491163016E+02  0.51122076889E+02 -0.10162956431E+03  0.14947226451E+03  0.86142087183E+02 0.  0.
         24    2    1    2    0    0 -0.23886400559E+02 -0.64217952032E+02 -0.71302571655E+03  0.72069144211E+03  0.79347191418E+02 0.  0.
        -13    1    4    4    0    0  0.10315499476E+02 -0.52502447795E+02 -0.22281402074E+03  0.22914843310E+03  0.00000000000E+00 0.  1.
         14    1    4    4    0    0 -0.34201900035E+02 -0.11715504236E+02 -0.49021169581E+03  0.49154300902E+03  0.00000000000E+00 0. -1.
        -13    1    3    3    0    0  0.41266964359E+02 -0.11099319605E+02 -0.21113258500E+02  0.47664734632E+02  0.00000000000E+00 0.  1.
         13    1    3    3    0    0  0.32241986572E+01  0.62221396494E+02 -0.80516305809E+02  0.10180752988E+03  0.00000000000E+00 0. -1.
         21    1    1    2  502  501 -0.20604762457E+02  0.13095875143E+02 -0.22180938323E+02  0.32985636367E+02  0.00000000000E+00 0.  1.
<scales pt_clust_5="13000.00000" pt_clust_6="13000.00000" pt_clust_7="13000.00000" pt_clust_8="13000.00000" pt_clust_9="24.41430"></scales>
<clustering>
<clus scale="   24.414">  1  9  2 -1</clus>
<clus scale="   79.347">  5  6 -1 -1</clus>
<clus scale="   86.142">  7  8 -1 -1</clus>
<clus scale="  104.429">  2  5  1 -1</clus>
<clus scale="  104.429">  2  5  1 -1</clus>
</clustering>
</event>
<event>
 9    2  0.5684583E-005  0.9973019E+02  0.7546771E-02  0.1286696E+00
          2   -1    0    0  502    0  0.00000000000E+00  0.00000000000E+00  0.57855796898E+03  0.57855796898E+03  0.00000000000E+00 0. -1.
         -1   -1    0    0    0  501 -0.00000000000E+00 -0.00000000000E+00 -0.33632028300E+02  0.33632028300E+02  0.00000000000E+00 0.  1.
         23    2    1    2    0    0 -0.13353540039E+01  0.43470108491E+02  0.18024403396E+03  0.20657462635E+03  0.91069923508E+02 0.  0.
         24    2    1    2    0    0  0.42004473978E+02 -0.21395336616E+02  0.34162985699E+03  0.35391749990E+03  0.79526733167E+02 0.  0.
        -11    1    4    4    0    0  0.38922134785E+02  0.23531937066E+02  0.13563782149E+03  0.14306048810E+03  0.00000000000E+00 0.  1.
         12    1    4    4    0    0  0.30823391933E+01 -0.44927273682E+02  0.20599203550E+03  0.21085701180E+03  0.00000000000E+00 0. -1.
        -11    1    3    3    0    0  0.29335667389E+02  0.99997864398E+01  0.13579212689E+02  0.33837436771E+02  0.00000000000E+00 0.  1.
         11    1    3    3    0    0 -0.30671021393E+02  0.33470322051E+02  0.16666482127E+03  0.17273718957E+03  0.00000000000E+00 0. -1.
         21    1    1    2  502  501 -0.40669119974E+02 -0.22074771875E+02  0.23052049730E+02  0.51697871035E+02  0.00000000000E+00 0.  1.
<scales pt_clust_5="13000.00000" pt_clust_6="13000.00000" pt_clust_7="13000.00000" pt_clust_8="13000.00000" pt_clust_9="46.27389"></scales>
<clustering>
<clus scale="   46.274">  2  9  1 -1</clus>
<clus scale="   79.527">  5  6 -1 -1</clus>
<clus scale="   89.313">  1  5  2 -1</clus>
<clus scale="   91.070">  7  8 -1 -1</clus>
<clus scale="   89.313">  1  5  2 -1</clus>
</clustering>
</event>
<event>
 9    2  0.5684583E-005  0.1349670E+03  0.7546771E-02  0.1222607E+00
         -1   -1    0    0    0  501 -0.00000000000E+00  0.00000000000E+00  0.65892772673E+02  0.65892772673E+02  0.00000000000E+00 0.  1.
          2   -1    0    0  502    0  0.00000000000E+00 -0.00000000000E+00 -0.47363330831E+03  0.47363330831E+03  0.00000000000E+00 0. -1.
         24    2    1    2    0    0 -0.13531657173E+02  0.84133431607E+02 -0.66712715463E+02  0.13505768114E+03  0.80798829012E+02 0.  0.
         23    2    1    2    0    0  0.52449599400E+02 -0.94007694718E+02 -0.33562757809E+03  0.36395581027E+03  0.90716886603E+02 0.  0.
        -13    1    3    3    0    0 -0.43056396000E+02  0.40441074049E+02 -0.14446354872E+02  0.60811437049E+02  0.00000000000E+00 0.  1.
         14    1    3    3    0    0  0.29524738828E+02  0.43692357558E+02 -0.52266360591E+02  0.74246244088E+02  0.00000000000E+00 0. -1.
        -13    1    4    4    0    0 -0.81096320461E+01 -0.35661083185E+02 -0.31026279739E+02  0.47959451835E+02  0.00000000000E+00 0.  1.
         13    1    4    4    0    0  0.60559231446E+02 -0.58346611534E+02 -0.30460129835E+03  0.31599635844E+03  0.00000000000E+00 0. -1.
         21    1    1    2  502  501 -0.38917942227E+02  0.98742631115E+01 -0.54002420844E+01  0.40512589571E+02  0.00000000000E+00 0.  1.
<scales pt_clust_5="13000.00000" pt_clust_6="13000.00000" pt_clust_7="13000.00000" pt_clust_8="13000.00000" pt_clust_9="40.15106"></scales>
<clustering>
<clus scale="   40.151">  1  9  2 -1</clus>
<clus scale="   80.799">  5  6 -1 -1</clus>
<clus scale="   90.717">  7  8 -1 -1</clus>
<clus scale="  128.511">  1  5  2 -1</clus>
<clus scale="  134.967">  2  5  1 -1</clus>
</clustering>
</event>
<event>
 9    2  0.5684583E-005  0.1014743E+03  0.7546771E-02  0.1283767E+00
         -1   -1    0    0    0  501 -0.00000000000E+00  0.00000000000E+00  0.15116626625E+02  0.15116626625E+02  0.00000000000E+00 0.  1.
          2   -1    0    0  502    0  0.00000000000E+00 -0.00000000000E+00 -0.12302881815E+04  0.12302881815E+04  0.00000000000E+00 0. -1.
         23    2    1    2    0    0 -0.39408588930E+02  0.12083435951E+02 -0.27028279034E+03  0.28838692562E+03  0.91734321862E+02 0.  0.
         24    2    1    2    0    0  0.14066722498E+02 -0.46234159965E+02 -0.81851798779E+03  0.82368350824E+03  0.78405071192E+02 0.  0.
        -13    1    4    4    0    0 -0.70969671084E+01 -0.41932730363E+02 -0.18613324583E+03  0.19093010769E+03  0.00000000000E+00 0.  1.
         14    1    4    4    0    0  0.21163689606E+02 -0.43014296018E+01 -0.63238474196E+03  0.63275340055E+03  0.00000000000E+00 0. -1.
        -11    1    3    3    0    0  0.11761161099E+02  0.40305015867E+02 -0.12076471080E+03  0.12785513125E+03  0.00000000000E+00 0.  1.
         11    1    3    3    0    0 -0.51169750029E+02 -0.28221579916E+02 -0.14951807954E+03  0.16053179436E+03  0.00000000000E+00 0. -1.
         21    1    1    2  502  501  0.25341866432E+02  0.34150724014E+02 -0.12637077673E+03  0.13333437425E+03  0.00000000000E+00 0.  1.
<scales pt_clust_5="13000.00000" pt_clust_6="13000.00000" pt_clust_7="13000.00000" pt_clust_8="13000.00000" pt_clust_9="42.52625"></scales>
<clustering>
<clus scale="   42.526">  1  9  2 -1</clus>
<clus scale="   78.405">  5  6 -1 -1</clus>
<clus scale="   89.606">  2  5  1 -1</clus>
<clus scale="   91.734">  7  8 -1 -1</clus>
<clus scale="   89.606">  2  5  1 -1</clus>
</clustering>
</event>
<event>
 9    2  0.5684583E-005  0.9083314E+02  0.7546771E-02  0.1301161E+00
         -1   -1    0    0    0  501 -0.00000000000E+00  0.00000000000E+00  0.48213938266E+02  0.48213938266E+02  0.00000000000E+00 0.  1.
          2   -1    0    0  502    0  0.00000000000E+00 -0.00000000000E+00 -0.43953612699E+03  0.43953612699E+03  0.00000000000E+00 0. -1.
         23    2    1    2    0    0 -0.12280221449E+02  0.73035001021E+00 -0.54435626118E+02  0.10008396955E+03  0.83079638417E+02 0.  0.
         24    2    1    2    0    0  0.41728638196E+02  0.12618633985E+02 -0.34238112862E+03  0.35486983254E+03  0.82506070333E+02 0.  0.
        -11    1    4    4    0    0 -0.17409508513E+02  0.25805583118E+02 -0.87064302083E+02  0.92461947870E+02  0.00000000000E+00 0.  1.
         12    1    4    4    0    0  0.59138146709E+02 -0.13186949133E+02 -0.25531682653E+03  0.26240788467E+03  0.00000000000E+00 0. -1.
        -11    1    3    3    0    0  0.17174447900E+01  0.31833296510E+02 -0.57596132745E+02  0.65830258168E+02  0.00000000000E+00 0. -1.
         11    1    3    3    0    0 -0.13997666239E+02 -0.31102946500E+02  0.31605066262E+01  0.34253711379E+02  0.00000000000E+00 0.  1.
         21    1    1    2  502  501 -0.29448416747E+02 -0.13348983995E+02  0.54945660089E+01  0.32796263175E+02  0.00000000000E+00 0. -1.
<scales pt_clust_5="13000.00000" pt_clust_6="13000.00000" pt_clust_7="13000.00000" pt_clust_8="13000.00000" pt_clust_9="32.33272"></scales>
<clustering>
<clus scale="   32.333">  1  9  2 -1</clus>
<clus scale="   82.506">  5  6 -1 -1</clus>
<clus scale="   83.080">  7  8 -1 -1</clus>
<clus scale="   90.309">  2  5  1 -1</clus>
<clus scale="   90.309">  2  5  1 -1</clus>
</clustering>
</event>
<event>
 9    2  0.5684583E-005  0.1954598E+03  0.7546771E-02  0.1189642E+00
         -1   -1    0    0    0  501 -0.00000000000E+00  0.00000000000E+00  0.14044160270E+03  0.14044160270E+03  0.00000000000E+00 0.  1.
          2   -1    0    0  502    0  0.00000000000E+00 -0.00000000000E+00 -0.50015338816E+03  0.50015338816E+03  0.00000000000E+00 0. -1.
         23    2    1    2    0    0 -0.10604357149E+03 -0.11099899815E+03 -0.15164720008E+03  0.23436674192E+03  0.91459716706E+02 0.  0.
         24    2    1    2    0    0 -0.30922476600E+02 -0.89567364100E+01 -0.20702538962E+03  0.22415640458E+03  0.79687885394E+02 0.  0.
        -11    1    4    4    0    0 -0.28052138067E+02 -0.37372055369E+02 -0.69849346848E+02  0.84038825716E+02  0.00000000000E+00 0.  1.
         12    1    4    4    0    0 -0.28703385331E+01  0.28415318959E+02 -0.13717604277E+03  0.14011757886E+03  0.00000000000E+00 0. -1.
        -11    1    3    3    0    0  0.12306564442E+02 -0.33266529570E+02 -0.43897522912E+02  0.56436743668E+02  0.00000000000E+00 0.  1.
         11    1    3    3    0    0 -0.11835013594E+03 -0.77732468578E+02 -0.10774967716E+03  0.17792999825E+03  0.00000000000E+00 0. -1.
         21    1    1    2  502  501  0.13696604810E+03  0.11995573456E+03 -0.10391957573E+01  0.18207184437E+03  0.00000000000E+00 0.  1.
<scales pt_clust_5="13000.00000" pt_clust_6="13000.00000" pt_clust_7="13000.00000" pt_clust_8="13000.00000" pt_clust_9="172.74153"></scales>
<clustering>
<clus scale="   79.688">  5  6 -1 -1</clus>
<clus scale="   85.945">  2  5  1 -1</clus>
<clus scale="   91.460">  7  8 -1 -1</clus>
<clus scale="  172.742">  1  9  2 -1</clus>
<clus scale="   85.945">  2  5  1 -1</clus>
</clustering>
</event>
<event>
 9    2  0.5684583E-005  0.2778144E+03  0.7546771E-02  0.1097702E+00
         -1   -1    0    0    0  501 -0.00000000000E+00  0.00000000000E+00  0.82843213667E+02  0.82843213667E+02  0.00000000000E+00 0.  1.
          2   -1    0    0  502    0  0.00000000000E+00 -0.00000000000E+00 -0.10794797232E+04  0.10794797232E+04  0.00000000000E+00 0. -1.
         24    2    1    2    0    0  0.25461865975E+03  0.33028388771E+02 -0.43762930475E+03  0.51269581745E+03  0.73593861783E+02 0.  0.
         23    2    1    2    0    0 -0.25709083956E+03 -0.78392732358E+02 -0.49934663241E+03  0.57463765858E+03  0.92845350368E+02 0.  0.
        -11    1    3    3    0    0  0.12080829018E+03  0.49877624013E+02 -0.18807573523E+03  0.22903035287E+03  0.00000000000E+00 0.  1.
         12    1    3    3    0    0  0.13381036957E+03 -0.16849235241E+02 -0.24955356952E+03  0.28366546458E+03  0.00000000000E+00 0. -1.
        -13    1    4    4    0    0 -0.16601219866E+03 -0.31132674324E+01 -0.30112003923E+03  0.34386482892E+03  0.00000000000E+00 0.  1.
         13    1    4    4    0    0 -0.91078640900E+02 -0.75279464926E+02 -0.19822659318E+03  0.23077282966E+03  0.00000000000E+00 0. -1.
         21    1    1    2  502  501  0.24721798042E+01  0.45364343587E+02 -0.59660572372E+02  0.74989460845E+02  0.00000000000E+00 0.  1.
<scales pt_clust_5="13000.00000" pt_clust_6="13000.00000" pt_clust_7="13000.00000" pt_clust_8="13000.00000" pt_clust_9="45.43166"></scales>
<clustering>
<clus scale="   45.432">  1  9  2 -1</clus>
<clus scale="   73.594">  5  6 -1 -1</clus>
<clus scale="   92.845">  7  8 -1 -1</clus>
<clus scale="  271.987">  1  5  2 -1</clus>
<clus scale="  277.814">  2  5  1 -1</clus>
</clustering>
</event>
<event>
 9    2  0.5684583E-005  0.1073723E+03  0.7546771E-02  0.1272106E+00
          2   -1    0    0  502    0  0.00000000000E+00  0.00000000000E+00  0.44586027634E+03  0.44586027634E+03  0.00000000000E+00 0. -1.
         -1   -1    0    0    0  501 -0.00000000000E+00 -0.00000000000E+00 -0.61662603134E+02  0.61662603134E+02  0.00000000000E+00 0.  1.
         23    2    1    2    0    0  0.52255243911E+02 -0.50381586521E+01  0.12423848024E+02  0.10854356137E+03  0.94187892829E+02 0.  0.
         24    2    1    2    0    0 -0.44659509898E+02  0.26636472689E+02  0.36181146780E+03  0.37401071965E+03  0.79199158309E+02 0.  0.
        -11    1    4    4    0    0  0.19917773604E+01  0.43345217354E+02  0.20556599598E+03  0.21009558240E+03  0.00000000000E+00 0.  1.
         12    1    4    4    0    0 -0.46651287259E+02 -0.16708744665E+02  0.15624547183E+03  0.16391513725E+03  0.00000000000E+00 0. -1.
        -13    1    3    3    0    0  0.21674987193E+02 -0.49102177364E+02  0.88480003792E+00  0.53680646073E+02  0.00000000000E+00 0. -1.
         13    1    3    3    0    0  0.30580256719E+02  0.44064018712E+02  0.11539047986E+02  0.54862915293E+02  0.00000000000E+00 0.  1.
         21    1    1    2  502  501 -0.75957340131E+01 -0.21598314037E+02  0.99623573796E+01  0.24968598459E+02  0.00000000000E+00 0.  1.
<scales pt_clust_5="13000.00000" pt_clust_6="13000.00000" pt_clust_7="13000.00000" pt_clust_8="13000.00000" pt_clust_9="22.89503"></scales>
<clustering>
<clus scale="   22.895">  2  9  1 -1</clus>
<clus scale="   79.199">  5  6 -1 -1</clus>
<clus scale="   94.188">  7  8 -1 -1</clus>
<clus scale="   94.498">  1  5  2 -1</clus>
<clus scale="   94.498">  1  5  2 -1</clus>
</clustering>
</event>
<event>
 9    2  0.5684583E-005  0.2442024E+03  0.7546771E-02  0.1117752E+00
          2   -1    0    0  502    0  0.00000000000E+00  0.00000000000E+00  0.12356422055E+04  0.12356422055E+04  0.00000000000E+00 0. -1.
         -1   -1    0    0    0  501 -0.00000000000E+00 -0.00000000000E+00 -0.10590097392E+03  0.10590097392E+03  0.00000000000E+00 0.  1.
         23    2    1    2    0    0 -0.21022747187E+03  0.10834949133E+03  0.31200612006E+03  0.40262040903E+03  0.93915774042E+02 0.  0.
         24    2    1    2    0    0  0.20287133174E+03 -0.89257212771E+02  0.86006036293E+03  0.89191155047E+03  0.81723672839E+02 0.  0.
        -13    1    4    4    0    0  0.78869877474E+02 -0.36235796939E+01  0.20350937542E+03  0.21828800651E+03  0.00000000000E+00 0.  1.
         14    1    4    4    0    0  0.12400145427E+03 -0.85633633077E+02  0.65655098751E+03  0.67362354396E+03  0.00000000000E+00 0. -1.
        -13    1    3    3    0    0  0.46899738451E+01  0.21349617960E+02  0.36385819448E+02  0.42446789026E+02  0.00000000000E+00 0. -1.
         13    1    3    3    0    0 -0.21491744571E+03  0.86999873368E+02  0.27562030061E+03  0.36017362000E+03  0.00000000000E+00 0.  1.
         21    1    1    2  502  501  0.73561401258E+01 -0.19092278557E+02 -0.42325251372E+02  0.47011219956E+02  0.00000000000E+00 0.  1.
<scales pt_clust_5="13000.00000" pt_clust_6="13000.00000" pt_clust_7="13000.00000" pt_clust_8="13000.00000" pt_clust_9="20.46040"></scales>
<clustering>
<clus scale="   20.460">  2  9  1 -1</clus>
<clus scale="   81.724">  5  6 -1 -1</clus>
<clus scale="   93.916">  7  8 -1 -1</clus>
<clus scale="  239.778">  1  5  2 -1</clus>
<clus scale="  239.778">  1  5  2 -1</clus>
</clustering>
</event>
<event>
 9    2  0.5684583E-005  0.1285046E+03  0.7546771E-02  0.1232676E+00
          2   -1    0    0  502    0  0.00000000000E+00  0.00000000000E+00  0.84874276352E+03  0.84874276352E+03  0.00000000000E+00 0. -1.
         -1   -1    0    0    0  501 -0.00000000000E+00 -0.00000000000E+00 -0.29641410007E+02  0.29641410007E+02  0.00000000000E+00 0.  1.
         23    2    1    2    0    0 -0.19920037623E+02  0.56614756288E+02  0.18537371392E+03  0.21525706385E+03  0.91488530402E+02 0.  0.
         24    2    1    2    0    0  0.19278625493E+02 -0.10477395104E+03  0.55514530176E+03  0.57095931016E+03  0.80367789407E+02 0.  0.
        -13    1    4    4    0    0 -0.13773862341E+02 -0.65324485674E+02  0.17422565867E+03  0.18657863717E+03  0.00000000000E+00 0.  1.
         14    1    4    4    0    0  0.33052487834E+02 -0.39449465370E+02  0.38091964309E+03  0.38438067298E+03  0.00000000000E+00 0. -1.
        -13    1    3    3    0    0 -0.43987680970E+02 -0.21715695135E+01  0.57050645277E+02  0.72072240966E+02  0.00000000000E+00 0.  1.
         13    1    3    3    0    0  0.24067643348E+02  0.58786325801E+02  0.12832306865E+03  0.14318482288E+03  0.00000000000E+00 0. -1.
         21    1    1    2  502  501  0.64141213003E+00  0.48159194757E+02  0.78582337834E+02  0.92167799522E+02  0.00000000000E+00 0. -1.
<scales pt_clust_5="13000.00000" pt_clust_6="13000.00000" pt_clust_7="13000.00000" pt_clust_8="13000.00000" pt_clust_9="48.16347"></scales>
<clustering>
<clus scale="   48.163">  2  9  1 -1</clus>
<clus scale="   80.368">  5  6 -1 -1</clus>
<clus scale="   91.489">  7  8 -1 -1</clus>
<clus scale="  120.840">  1  5  2 -1</clus>
<clus scale="  120.840">  1  5  2 -1</clus>
</clustering>
</event>
<event>
 9    2  0.5684583E-005  0.1086877E+03  0.7546771E-02  0.1267531E+00
         -1   -1    0    0    0  501 -0.00000000000E+00  0.00000000000E+00  0.26802528026E+02  0.26802528026E+02  0.00000000000E+00 0.  1.
          2   -1    0    0  502    0  0.00000000000E+00 -0.00000000000E+00 -0.59226602598E+03  0.59226602598E+03  0.00000000000E+00 0. -1.
         24    2    1    2    0    0  0.55950095876E+02 -0.43518893526E+02 -0.20144460950E+03  0.22827598625E+03  0.80657844509E+02 0.  0.
         23    2    1    2    0    0 -0.31458380178E+02  0.40989505613E+02 -0.34175017258E+03  0.35759410924E+03  0.91709308422E+02 0.  0.
        -11    1    3    3    0    0  0.58869887385E+02  0.12183570370E+01 -0.84148786388E+02  0.10270426615E+03  0.00000000000E+00 0.  1.
         12    1    3    3    0    0 -0.29197915089E+01 -0.44737250563E+02 -0.11729582311E+03  0.12557172010E+03  0.00000000000E+00 0. -1.
        -11    1    4    4    0    0 -0.51860015027E+02  0.19979311897E+02 -0.30771631986E+03  0.31269468747E+03  0.00000000000E+00 0. -1.
         11    1    4    4    0    0  0.20401634850E+02  0.21010193716E+02 -0.34033852720E+02  0.44899421773E+02  0.00000000000E+00 0.  1.
         21    1    1    2  502  501 -0.24491715698E+02  0.25293879133E+01 -0.22268715879E+02  0.33198458518E+02  0.00000000000E+00 0.  1.
<scales pt_clust_5="13000.00000" pt_clust_6="13000.00000" pt_clust_7="13000.00000" pt_clust_8="13000.00000" pt_clust_9="24.62198"></scales>
<clustering>
<clus scale="   24.622">  1  9  2 -1</clus>
<clus scale="   80.658">  5  6 -1 -1</clus>
<clus scale="   91.709">  7  8 -1 -1</clus>
<clus scale="   99.539">  1  5  2 -1</clus>
<clus scale="  108.688">  2  5  1 -1</clus>
</clustering>
</event>
<event>
 9    2  0.5684583E-005  0.1387346E+03  0.7546771E-02  0.1217604E+00
         -1   -1    0    0    0  501 -0.00000000000E+00  0.00000000000E+00  0.17686908663E+03  0.17686908663E+03  0.00000000000E+00 0.  1.
          2   -1    0    0  502    0  0.00000000000E+00 -0.00000000000E+00 -0.39500903968E+03  0.39500903968E+03  0.00000000000E+00 0. -1.
         23    2    1    2    0    0 -0.51423241393E+02 -0.94729694351E+02  0.98429429098E+02  0.17202900644E+03  0.91036046699E+02 0.  0.
         24    2    1    2    0    0  0.10968092641E+03  0.28524637469E+02 -0.26152764675E+03  0.29589403314E+03  0.79454441482E+02 0.  0.
        -11    1    4    4    0    0  0.73994413893E+02 -0.20215890059E+01 -0.82651822476E+02  0.11095307057E+03  0.00000000000E+00 0.  1.
         12    1    4    4    0    0  0.35686512519E+02  0.30546226475E+02 -0.17887582427E+03  0.18494096257E+03  0.00000000000E+00 0. -1.
        -11    1    3    3    0    0 -0.22775742447E+02 -0.12606153302E+02 -0.14257024983E+02  0.29680166887E+02  0.00000000000E+00 0. -1.
         11    1    3    3    0    0 -0.28647498947E+02 -0.82123541048E+02  0.11268645408E+03  0.14234883956E+03  0.00000000000E+00 0.  1.
         21    1    1    2  502  501 -0.58257685019E+02  0.66205056882E+02 -0.55041735403E+02  0.10395508673E+03  0.00000000000E+00 0. -1.
<scales pt_clust_5="13000.00000" pt_clust_6="13000.00000" pt_clust_7="13000.00000" pt_clust_8="13000.00000" pt_clust_9="88.18768"></scales>
<clustering>
<clus scale="   79.454">  5  6 -1 -1</clus>
<clus scale="   88.188">  2  9  1 -1</clus>
<clus scale="   91.036">  7  8 -1 -1</clus>
<clus scale="  131.426">  2  5  1 -1</clus>
<clus scale="   88.188">  2  5  1 -1</clus>
</clustering>
</event>
<event>
 9    2  0.7119171E-005  0.9223950E+02  0.7546771E-02  0.1303764E+00
         -1   -1    0    0    0  501 -0.00000000000E+00  0.00000000000E+00  0.35419075696E+03  0.35419075696E+03  0.00000000000E+00 0.  1.
          2   -1    0    0  502    0  0.00000000000E+00 -0.00000000000E+00 -0.72200091172E+02  0.72200091172E+02  0.00000000000E+00 0. -1.
         24    2    1    2    0    0  0.20384231694E+02  0.11779217492E+02  0.21181872452E+03  0.22748104164E+03  0.79537320692E+02 0.  0.
         23    2    1    2    0    0 -0.18122508844E+02  0.13004827246E+02 -0.28715415045E+02  0.96938862088E+02  0.89861098721E+02 0.  0.
        -13    1    3    3    0    0  0.44029325008E+02 -0.14018300991E+02  0.14293244941E+03  0.15021577586E+03  0.00000000000E+00 0.  1.
         14    1    3    3    0    0 -0.23645093313E+02  0.25797518483E+02  0.68886275113E+02  0.77265265784E+02  0.00000000000E+00 0. -1.
        -13    1    4    4    0    0  0.24803853169E+02 -0.24891072245E+02 -0.79371417220E+01  0.36024919545E+02  0.00000000000E+00 0.  1.
         13    1    4    4    0    0 -0.42926362013E+02  0.37895899491E+02 -0.20778273323E+02  0.60913942543E+02  0.00000000000E+00 0. -1.
         21    1    1    2  502  501 -0.22617228505E+01 -0.24784044738E+02  0.98887356310E+02  0.10197094440E+03  0.00000000000E+00 0.  1.
<scales pt_clust_5="13000.00000" pt_clust_6="13000.00000" pt_clust_7="13000.00000" pt_clust_8="13000.00000" pt_clust_9="24.88703"></scales>
<clustering>
<clus scale="   24.887">  1  9  2 -1</clus>
<clus scale="   79.537">  5  6 -1 -1</clus>
<clus scale="   82.215">  1  5  2 -1</clus>
<clus scale="   89.861">  7  8 -1 -1</clus>
<clus scale="   92.240">  2  5  1 -1</clus>
</clustering>
</event>
<event>
 9    2  0.5684583E-005  0.1822568E+03  0.7546771E-02  0.1166948E+00
          2   -1    0    0  502    0  0.00000000000E+00  0.00000000000E+00  0.30489971558E+04  0.30489971558E+04  0.00000000000E+00 0. -1.
         -1   -1    0    0    0  501 -0.00000000000E+00 -0.00000000000E+00 -0.38510932416E+02  0.38510932416E+02  0.00000000000E+00 0.  1.
         23    2    1    2    0    0  0.22826099115E+02  0.17739917131E+03  0.31679626132E+03  0.37519468136E+03  0.91758819478E+02 0.  0.
         24    2    1    2    0    0 -0.99593979352E+01 -0.15509116529E+03  0.26744442474E+04  0.26801638087E+04  0.80458371736E+02 0.  0.
        -13    1    4    4    0    0 -0.77603416081E+01 -0.30836668313E+02  0.19236670007E+03  0.19497710201E+03  0.00000000000E+00 0.  1.
         14    1    4    4    0    0 -0.21990563270E+01 -0.12425449698E+03  0.24820775474E+04  0.24851867067E+04  0.00000000000E+00 0. -1.
        -11    1    3    3    0    0 -0.35806391705E+02  0.68419231838E+02  0.11760880308E+03  0.14069512974E+03  0.00000000000E+00 0. -1.
         11    1    3    3    0    0  0.58632490820E+02  0.10897993947E+03  0.19918745825E+03  0.23449955162E+03  0.00000000000E+00 0.  1.
         21    1    1    2  502  501 -0.12866701179E+02 -0.22308006017E+02  0.19245714648E+02  0.32149598193E+02  0.00000000000E+00 0. -1.
<scales pt_clust_5="13000.00000" pt_clust_6="13000.00000" pt_clust_7="13000.00000" pt_clust_8="13000.00000" pt_clust_9="25.75265"></scales>
<clustering>
<clus scale="   25.753">  2  9  1 -1</clus>
<clus scale="   80.458">  5  6 -1 -1</clus>
<clus scale="   91.759">  7  8 -1 -1</clus>
<clus scale="  176.837">  1  5  2 -1</clus>
<clus scale="  176.837">  1  5  2 -1</clus>
</clustering>
</event>
<event>
 9    2  0.5684583E-005  0.9859757E+02  0.7546771E-02  0.1288190E+00
          2   -1    0    0  502    0  0.00000000000E+00  0.00000000000E+00  0.50519609366E+03  0.50519609366E+03  0.00000000000E+00 0. -1.
         -1   -1    0    0    0  501 -0.00000000000E+00 -0.00000000000E+00 -0.38958722452E+02  0.38958722452E+02  0.00000000000E+00 0.  1.
         23    2    1    2    0    0  0.35017138170E+02  0.15914117295E+02  0.73965919075E+02  0.12345924284E+03  0.91059147603E+02 0.  0.
         24    2    1    2    0    0 -0.14100615371E+02 -0.37133064947E+02  0.37592972774E+03  0.38671327463E+03  0.81524871701E+02 0.  0.
        -13    1    4    4    0    0  0.15733944691E+02 -0.53445111522E+02  0.20508940187E+03  0.21252199820E+03  0.00000000000E+00 0.  1.
         14    1    4    4    0    0 -0.29834560063E+02  0.16312046575E+02  0.17084032588E+03  0.17419127643E+03  0.00000000000E+00 0. -1.
        -13    1    3    3    0    0  0.55101721612E+02 -0.57959404973E+01  0.14855557445E+02  0.57362707727E+02  0.00000000000E+00 0.  1.
         13    1    3    3    0    0 -0.20084583442E+02  0.21710057792E+02  0.59110361630E+02  0.66096535109E+02  0.00000000000E+00 0. -1.
         21    1    1    2  502  501 -0.20916522799E+02  0.21218947652E+02  0.16341724391E+02  0.33982298650E+02  0.00000000000E+00 0.  1.
<scales pt_clust_5="13000.00000" pt_clust_6="13000.00000" pt_clust_7="13000.00000" pt_clust_8="13000.00000" pt_clust_9="29.79504"></scales>
<clustering>
<clus scale="   29.795">  2  9  1 -1</clus>
<clus scale="   81.525">  5  6 -1 -1</clus>
<clus scale="   89.867">  1  5  2 -1</clus>
<clus scale="   91.059">  7  8 -1 -1</clus>
<clus scale="   89.867">  1  5  2 -1</clus>
</clustering>
</event>
<event>
 9    2  0.5684583E-005  0.9464284E+02  0.7546771E-02  0.1294034E+00
         -1   -1    0    0    0  501 -0.00000000000E+00  0.00000000000E+00  0.46841220131E+02  0.46841220131E+02  0.00000000000E+00 0.  1.
          2   -1    0    0  502    0  0.00000000000E+00 -0.00000000000E+00 -0.59392058879E+03  0.59392058879E+03  0.00000000000E+00 0. -1.
         23    2    1    2    0    0 -0.24975040370E+02 -0.11564795693E+02 -0.24187477340E+02  0.96514787570E+02  0.89289265977E+02 0.  0.
         24    2    1    2    0    0  0.40775962537E+01  0.32986643656E+02 -0.49468876833E+03  0.50312506995E+03  0.85516741341E+02 0.  0.
        -13    1    4    4    0    0  0.44697101750E+02  0.13462114590E+02 -0.25117336373E+03  0.25547430024E+03  0.00000000000E+00 0.  1.
         14    1    4    4    0    0 -0.40619505497E+02  0.19524529066E+02 -0.24351540460E+03  0.24765076971E+03  0.00000000000E+00 0. -1.
        -13    1    3    3    0    0 -0.43632446513E+02 -0.27284866651E+02  0.12027944409E+02  0.52848138885E+02  0.00000000000E+00 0. -1.
         13    1    3    3    0    0  0.18657406143E+02  0.15720070958E+02 -0.36215421750E+02  0.43666648686E+02  0.00000000000E+00 0.  1.
         21    1    1    2  502  501  0.20897444116E+02 -0.21421847963E+02 -0.28203122990E+02  0.41121951402E+02  0.00000000000E+00 0.  1.
<scales pt_clust_5="13000.00000" pt_clust_6="13000.00000" pt_clust_7="13000.00000" pt_clust_8="13000.00000" pt_clust_9="29.92656"></scales>
<clustering>
<clus scale="   29.927">  1  9  2 -1</clus>
<clus scale="   85.517">  5  6 -1 -1</clus>
<clus scale="   89.289">  7  8 -1 -1</clus>
<clus scale="   91.092">  2  5  1 -1</clus>
<clus scale="   91.092">  2  5  1 -1</clus>
</clustering>
</event>
<event>
 9    2  0.5684583E-005  0.1340245E+03  0.7546771E-02  0.1224731E+00
         -1   -1    0    0    0  501 -0.00000000000E+00  0.00000000000E+00  0.67713592214E+02  0.67713592214E+02  0.00000000000E+00 0.  1.
          2   -1    0    0  502    0  0.00000000000E+00 -0.00000000000E+00 -0.57160188474E+03  0.57160188474E+03  0.00000000000E+00 0. -1.
         23    2    1    2    0    0  0.76364699212E+02  0.93171760488E+02 -0.82869782035E+02  0.17296368527E+03  0.92393135083E+02 0.  0.
         24    2    1    2    0    0 -0.67029938268E+02 -0.64017286755E+02 -0.41811681348E+03  0.43560214215E+03  0.79601073532E+02 0.  0.
        -13    1    4    4    0    0 -0.17061184541E+02 -0.24777626711E+02 -0.30598911416E+02  0.42910467059E+02  0.00000000000E+00 0.  1.
         14    1    4    4    0    0 -0.49968753727E+02 -0.39239660044E+02 -0.38751790206E+03  0.39269167509E+03  0.00000000000E+00 0. -1.
        -13    1    3    3    0    0  0.18320803643E+02  0.10803074612E+02  0.19834652040E+02  0.29082154129E+02  0.00000000000E+00 0. -1.
         13    1    3    3    0    0  0.58043895569E+02  0.82368685875E+02 -0.10270443408E+03  0.14388153114E+03  0.00000000000E+00 0.  1.
         21    1    1    2  502  501 -0.93347609444E+01 -0.29154473733E+02 -0.29016970127E+01  0.30749649528E+02  0.00000000000E+00 0.  1.
<scales pt_clust_5="13000.00000" pt_clust_6="13000.00000" pt_clust_7="13000.00000" pt_clust_8="13000.00000" pt_clust_9="30.61243"></scales>
<clustering>
<clus scale="   30.612">  1  9  2 -1</clus>
<clus scale="   79.601">  5  6 -1 -1</clus>
<clus scale="   92.393">  7  8 -1 -1</clus>
<clus scale="  125.548">  2  5  1 -1</clus>
<clus scale="  125.548">  2  5  1 -1</clus>
</clustering>
</event>
<event>
 9    2  0.5684583E-005  0.1629185E+03  0.7546771E-02  0.1190649E+00
          2   -1    0    0  502    0  0.00000000000E+00  0.00000000000E+00  0.15394459898E+03  0.15394459898E+03  0.00000000000E+00 0. -1.
         -1   -1    0    0    0  501 -0.00000000000E+00 -0.00000000000E+00 -0.33225717024E+03  0.33225717024E+03  0.00000000000E+00 0.  1.
         23    2    1    2    0    0  0.10073597381E+03 -0.13208928870E+03 -0.17069784716E+03  0.25982650585E+03  0.10381108567E+03 0.  0.
         24    2    1    2    0    0 -0.55733037486E+02  0.10272305713E+03  0.51012468485E+02  0.14684673046E+03  0.72825080666E+02 0.  0.
        -13    1    4    4    0    0 -0.41972822916E+02  0.92140126835E+01  0.12186997570E+02  0.44666976650E+02  0.00000000000E+00 0.  1.
         14    1    4    4    0    0 -0.13760214570E+02  0.93509044442E+02  0.38825470915E+02  0.10217975381E+03  0.00000000000E+00 0. -1.
        -11    1    3    3    0    0  0.38764493966E+02 -0.12368830071E+03 -0.90317694921E+02  0.15798344135E+03  0.00000000000E+00 0.  1.
         11    1    3    3    0    0  0.61971479839E+02 -0.84009879930E+01 -0.80380152239E+02  0.10184306450E+03  0.00000000000E+00 0. -1.
         21    1    1    2  502  501 -0.45002936320E+02  0.29366231579E+02 -0.58627192588E+02  0.79528532901E+02  0.00000000000E+00 0. -1.
<scales pt_clust_5="13000.00000" pt_clust_6="13000.00000" pt_clust_7="13000.00000" pt_clust_8="13000.00000" pt_clust_9="53.73676"></scales>
<clustering>
<clus scale="   53.737">  2  9  1 -1</clus>
<clus scale="   72.825">  5  6 -1 -1</clus>
<clus scale="  103.811">  7  8 -1 -1</clus>
<clus scale="  145.152">  1  5  2 -1</clus>
<clus scale="  145.152">  1  5  2 -1</clus>
</clustering>
</event>
<event>
 9    2  0.5684583E-005  0.1268482E+03  0.7546771E-02  0.1251797E+00
          2   -1    0    0  502    0  0.00000000000E+00  0.00000000000E+00  0.35060492448E+03  0.35060492448E+03  0.00000000000E+00 0. -1.
         -1   -1    0    0    0  501 -0.00000000000E+00 -0.00000000000E+00 -0.91831920285E+02  0.91831920285E+02  0.00000000000E+00 0.  1.
         23    2    1    2    0    0  0.35342088446E+02 -0.79075649489E+02  0.52063087491E+01  0.12643713709E+03  0.91963157992E+02 0.  0.
         24    2    1    2    0    0 -0.32587022532E+00 -0.20871468742E+01  0.18633970664E+03  0.20494565292E+03  0.85298136020E+02 0.  0.
        -11    1    4    4    0    0  0.13304000826E+02 -0.34646605624E+02  0.40661143641E+02  0.55051905702E+02  0.00000000000E+00 0.  1.
         12    1    4    4    0    0 -0.13629871051E+02  0.32559458750E+02  0.14567856300E+03  0.14989374722E+03  0.00000000000E+00 0. -1.
        -13    1    3    3    0    0 -0.10462546624E+02 -0.45055740298E+02 -0.33829317429E+02  0.57305386600E+02  0.00000000000E+00 0.  1.
         13    1    3    3    0    0  0.45804635070E+02 -0.34019909191E+02  0.39035626178E+02  0.69131750494E+02  0.00000000000E+00 0. -1.
         21    1    1    2  502  501 -0.35016218221E+02  0.81162796363E+02  0.67226988808E+02  0.11105405475E+03  0.00000000000E+00 0. -1.
<scales pt_clust_5="13000.00000" pt_clust_6="13000.00000" pt_clust_7="13000.00000" pt_clust_8="13000.00000" pt_clust_9="87.36847"></scales>
<clustering>
<clus scale="   85.298">  5  6 -1 -1</clus>
<clus scale="   85.324">  1  5  2 -1</clus>
<clus scale="   87.368">  1  9  2 -1</clus>
<clus scale="   91.963">  7  8 -1 -1</clus>
<clus scale="   85.324">  1  5  2 -1</clus>
</clustering>
</event>
<event>
 9    2  0.5684583E-005  0.1105163E+03  0.7546771E-02  0.1269141E+00
          2   -1    0    0  502    0  0.00000000000E+00  0.00000000000E+00  0.79134908561E+03  0.79134908561E+03  0.00000000000E+00 0. -1.
         -1   -1    0    0    0  501 -0.00000000000E+00 -0.00000000000E+00 -0.18151414166E+03  0.18151414166E+03  0.00000000000E+00 0.  1.
         23    2    1    2    0    0  0.74885611812E+01 -0.12390004513E+02 -0.10734963998E+03  0.14127950594E+03  0.90699298965E+02 0.  0.
         24    2    1    2    0    0  0.58958819158E+01 -0.13666415866E+02  0.76638170752E+03  0.77432608141E+03  0.10962858377E+03 0.  0.
        -13    1    4    4    0    0  0.22852362321E+02 -0.38144444093E+01  0.31091992837E+02  0.38774894821E+02  0.00000000000E+00 0.  1.
         14    1    4    4    0    0 -0.16956480405E+02 -0.98519714563E+01  0.73528971468E+03  0.73555118659E+03  0.00000000000E+00 0. -1.
        -11    1    3    3    0    0  0.19881066178E+01 -0.45028645290E+02 -0.22860610636E+02  0.50538490116E+02  0.00000000000E+00 0. -1.
         11    1    3    3    0    0  0.55004545634E+01  0.32638640777E+02 -0.84489029347E+02  0.90741015821E+02  0.00000000000E+00 0.  1.
         21    1    1    2  502  501 -0.13384443097E+02  0.26056420379E+02 -0.49197123585E+02  0.57257639918E+02  0.00000000000E+00 0.  1.
<scales pt_clust_5="13000.00000" pt_clust_6="13000.00000" pt_clust_7="13000.00000" pt_clust_8="13000.00000" pt_clust_9="29.29301"></scales>
<clustering>
<clus scale="   29.293">  2  9  1 -1</clus>
<clus scale="   90.699">  7  8 -1 -1</clus>
<clus scale="   91.770">  2  7  1 -1</clus>
<clus scale="  109.629">  5  6 -1 -1</clus>
<clus scale="  110.516">  1  5  2 -1</clus>
</clustering>
</event>
<event>
 9    2  0.5684583E-005  0.1809486E+03  0.7546771E-02  0.1168480E+00
         -1   -1    0    0    0  501 -0.00000000000E+00  0.00000000000E+00  0.35962044539E+03  0.35962044539E+03  0.00000000000E+00 0.  1.
          2   -1    0    0  502    0  0.00000000000E+00 -0.00000000000E+00 -0.13250656655E+03  0.13250656655E+03  0.00000000000E+00 0. -1.
         23    2    1    2    0    0  0.13861412185E+03  0.34221695748E+02  0.15765296772E+03  0.23278551897E+03  0.94602538957E+02 0.  0.
         24    2    1    2    0    0 -0.18069211862E+03 -0.65161525632E+01  0.45133062248E+02  0.20339509750E+03  0.81489081488E+02 0.  0.
        -13    1    4    4    0    0 -0.78695584594E+02 -0.34133795732E+02  0.46793656325E+02  0.97712626195E+02  0.00000000000E+00 0.  1.
         14    1    4    4    0    0 -0.10199653403E+03  0.27617643168E+02 -0.16605940773E+01  0.10568247130E+03  0.00000000000E+00 0. -1.
        -13    1    3    3    0    0  0.12801010738E+03  0.60210708834E+02  0.14289024819E+03  0.20107098268E+03  0.00000000000E+00 0. -1.
         13    1    3    3    0    0  0.10604014463E+02 -0.25989013086E+02  0.14762719529E+02  0.31714536285E+02  0.00000000000E+00 0.  1.
         21    1    1    2  502  501  0.42077996776E+02 -0.27705543185E+02  0.24327848869E+02  0.55946395473E+02  0.00000000000E+00 0.  1.
<scales pt_clust_5="13000.00000" pt_clust_6="13000.00000" pt_clust_7="13000.00000" pt_clust_8="13000.00000" pt_clust_9="50.38010"></scales>
<clustering>
<clus scale="   50.380">  2  9  1 -1</clus>
<clus scale="   81.489">  5  6 -1 -1</clus>
<clus scale="   94.603">  7  8 -1 -1</clus>
<clus scale="  174.451">  2  5  1 -1</clus>
<clus scale="   50.380">  2  5  1 -1</clus>
</clustering>
</event>
<event>
 9    2  0.5684583E-005  0.9319698E+02  0.7546771E-02  0.1301754E+00
          2   -1    0    0  502    0  0.00000000000E+00  0.00000000000E+00  0.44342129781E+03  0.44342129781E+03  0.00000000000E+00 0. -1.
         -1   -1    0    0    0  501 -0.00000000000E+00 -0.00000000000E+00 -0.35486967006E+02  0.35486967006E+02  0.00000000000E+00 0.  1.
         23    2    1    2    0    0 -0.37086144457E+02  0.49693512252E+01  0.94603472129E+02  0.13618780077E+03  0.90538519852E+02 0.  0.
         24    2    1    2    0    0  0.15180312675E+02 -0.11417812005E+02  0.30874409530E+03  0.31942912422E+03  0.79694671696E+02 0.  0.
        -13    1    4    4    0    0 -0.27514958188E+02  0.40884616587E+01  0.54815754929E+02  0.61469955517E+02  0.00000000000E+00 0.  1.
         14    1    4    4    0    0  0.42695270863E+02 -0.15506273664E+02  0.25392834037E+03  0.25795916871E+03  0.00000000000E+00 0. -1.
        -11    1    3    3    0    0 -0.51361633951E+02  0.30603794746E+02  0.33814124076E+02  0.68687733126E+02  0.00000000000E+00 0.  1.
         11    1    3    3    0    0  0.14275489495E+02 -0.25634443521E+02  0.60789348054E+02  0.67500067642E+02  0.00000000000E+00 0. -1.
         21    1    1    2  502  501  0.21905831782E+02  0.64484607800E+01  0.45867633757E+01  0.23291339823E+02  0.00000000000E+00 0.  1.
<scales pt_clust_5="13000.00000" pt_clust_6="13000.00000" pt_clust_7="13000.00000" pt_clust_8="13000.00000" pt_clust_9="22.83524"></scales>
<clustering>
<clus scale="   22.835">  2  9  1 -1</clus>
<clus scale="   79.695">  5  6 -1 -1</clus>
<clus scale="   82.702">  1  5  2 -1</clus>
<clus scale="   90.539">  7  8 -1 -1</clus>
<clus scale="   82.702">  1  5  2 -1</clus>
</clustering>
</event>
<event>
 9    2  0.5684583E-005  0.1286559E+03  0.7546771E-02  0.1251970E+00
         -1   -1    0    0    0  501 -0.00000000000E+00  0.00000000000E+00  0.74142684675E+02  0.74142684675E+02  0.00000000000E+00 0.  1.
          2   -1    0    0  502    0  0.00000000000E+00 -0.00000000000E+00 -0.55150879775E+03  0.55150879775E+03  0.00000000000E+00 0. -1.
         23    2    1    2    0    0  0.89849360220E+01 -0.82687184810E+02 -0.34939593155E+03  0.37021748734E+03  0.89808525999E+02 0.  0.
         24    2    1    2    0    0  0.77469010969E+01 -0.89686694215E+01 -0.13949148437E+03  0.16155380331E+03  0.80630674331E+02 0.  0.
        -11    1    4    4    0    0  0.40998080363E+02  0.74348612028E+01 -0.52755950828E+02  0.67225814256E+02  0.00000000000E+00 0.  1.
         12    1    4    4    0    0 -0.33251179266E+02 -0.16403530624E+02 -0.86735533544E+02  0.94327989053E+02  0.00000000000E+00 0. -1.
        -11    1    3    3    0    0  0.46655734389E+02 -0.24248416729E+02 -0.13778729339E+03  0.14747908829E+03  0.00000000000E+00 0. -1.
         11    1    3    3    0    0 -0.37670798367E+02 -0.58438768082E+02 -0.21160863816E+03  0.22273839904E+03  0.00000000000E+00 0.  1.
         21    1    1    2  502  501 -0.16731837119E+02  0.91655854232E+02  0.11521302848E+02  0.93880191775E+02  0.00000000000E+00 0.  1.
<scales pt_clust_5="13000.00000" pt_clust_6="13000.00000" pt_clust_7="13000.00000" pt_clust_8="13000.00000" pt_clust_9="92.12367"></scales>
<clustering>
<clus scale="   80.631">  5  6 -1 -1</clus>
<clus scale="   81.497">  2  5  1 -1</clus>
<clus scale="   89.809">  7  8 -1 -1</clus>
<clus scale="   92.124">  1  9  2 -1</clus>
<clus scale="   81.497">  2  5  1 -1</clus>
</clustering>
</event>
<event>
 9    2  0.5684583E-005  0.1812199E+03  0.7546771E-02  0.1167758E+00
          2   -1    0    0  502    0  0.00000000000E+00  0.00000000000E+00  0.67058123897E+03  0.67058123897E+03  0.00000000000E+00 0. -1.
         -1   -1    0    0    0  501 -0.00000000000E+00 -0.00000000000E+00 -0.32711197364E+03  0.32711197364E+03  0.00000000000E+00 0.  1.
         23    2    1    2    0    0  0.13671185316E+03 -0.31744491638E+02 -0.25418292052E+03  0.30452845516E+03  0.91819275583E+02 0.  0.
         24    2    1    2    0    0 -0.15683619581E+03  0.78149112643E+01  0.62621006565E+03  0.65081896094E+03  0.82265475438E+02 0.  0.
        -11    1    4    4    0    0 -0.26708313241E+02  0.28749986069E+02  0.82432058146E+02  0.91295892051E+02  0.00000000000E+00 0.  1.
         12    1    4    4    0    0 -0.13012788257E+03 -0.20935074805E+02  0.54377800750E+03  0.55952306889E+03  0.00000000000E+00 0. -1.
        -11    1    3    3    0    0  0.72558352422E+02 -0.57158354873E+02 -0.18520498676E+03  0.20696057392E+03  0.00000000000E+00 0.  1.
         11    1    3    3    0    0  0.64153500741E+02  0.25413863235E+02 -0.68977933768E+02  0.97567881236E+02  0.00000000000E+00 0. -1.
         21    1    1    2  502  501  0.20124342645E+02  0.23929580374E+02 -0.28557879794E+02  0.42345796510E+02  0.00000000000E+00 0.  1.
<scales pt_clust_5="13000.00000" pt_clust_6="13000.00000" pt_clust_7="13000.00000" pt_clust_8="13000.00000" pt_clust_9="31.26682"></scales>
<clustering>
<clus scale="   31.267">  2  9  1 -1</clus>
<clus scale="   82.265">  5  6 -1 -1</clus>
<clus scale="   91.819">  7  8 -1 -1</clus>
<clus scale="  176.571">  1  5  2 -1</clus>
<clus scale="  176.571">  1  5  2 -1</clus>
</clustering>
</event>
<event>
 9    2  0.5684583E-005  0.8835997E+02  0.7546771E-02  0.1311984E+00
          4   -1    0    0  502    0  0.00000000000E+00  0.00000000000E+00  0.40837918798E+03  0.40837918798E+03  0.00000000000E+00 0. -1.
         -3   -1    0    0    0  501 -0.00000000000E+00 -0.00000000000E+00 -0.14773381716E+03  0.14773381716E+03  0.00000000000E+00 0.  1.
         23    2    1    2    0    0 -0.11702838399E+02 -0.31769847260E+02  0.26427670068E+02  0.97332068020E+02  0.87343174308E+02 0.  0.
         24    2    1    2    0    0  0.87819951202E+01  0.68791050028E+01  0.34038141587E+03  0.34969924855E+03  0.79407875162E+02 0.  0.
        -13    1    4    4    0    0 -0.25958010020E+02 -0.10818792904E+01  0.43364544835E+02  0.50551681433E+02  0.00000000000E+00 0.  1.
         14    1    4    4    0    0  0.34740005140E+02  0.79609842932E+01  0.29701687104E+03  0.29914756711E+03  0.00000000000E+00 0. -1.
        -11    1    3    3    0    0 -0.33894223492E+02 -0.52998154735E+02  0.19333257189E+02  0.65813354457E+02  0.00000000000E+00 0.  1.
         11    1    3    3    0    0  0.22191385093E+02  0.21228307474E+02  0.70944128790E+01  0.31518713563E+02  0.00000000000E+00 0. -1.
         21    1    1    2  502  501  0.29208432790E+01  0.24890742257E+02 -0.10616371512E+03  0.10908168858E+03  0.00000000000E+00 0.  1.
<scales pt_clust_5="13000.00000" pt_clust_6="13000.00000" pt_clust_7="13000.00000" pt_clust_8="13000.00000" pt_clust_9="25.06153"></scales>
<clustering>
<clus scale="   25.062">  2  9  1 -1</clus>
<clus scale="   79.408">  5  6 -1 -1</clus>
<clus scale="   80.525">  1  5  2 -1</clus>
<clus scale="   87.343">  7  8 -1 -1</clus>
<clus scale="   80.525">  1  5  2 -1</clus>
</clustering>
</event>
<event>
 9    2  0.5684583E-005  0.9951242E+02  0.7546771E-02  0.1286657E+00
          4   -1    0    0  502    0  0.00000000000E+00  0.00000000000E+00  0.33959504667E+02  0.33959504667E+02  0.00000000000E+00 0. -1.
         -3   -1    0    0    0  501 -0.00000000000E+00 -0.00000000000E+00 -0.40383851534E+03  0.40383851534E+03  0.00000000000E+00 0.  1.
         23    2    1    2    0    0 -0.60876883624E+01 -0.44533648240E+02 -0.27304335507E+03  0.29133928691E+03  0.91135067772E+02 0.  0.
         24    2    1    2    0    0 -0.10494209714E+02  0.30918686375E+02 -0.86443657752E+02  0.12261926687E+03  0.80603256993E+02 0.  0.
        -13    1    4    4    0    0  0.12248089395E+02 -0.24128122063E+02 -0.32206672357E+02  0.42064851271E+02  0.00000000000E+00 0.  1.
         14    1    4    4    0    0 -0.22742299110E+02  0.55046808438E+02 -0.54236985395E+02  0.80554415601E+02  0.00000000000E+00 0. -1.
        -11    1    3    3    0    0  0.41154595888E+02 -0.21065461753E+02 -0.16087351714E+03  0.16738501414E+03  0.00000000000E+00 0. -1.
         11    1    3    3    0    0 -0.47242284251E+02 -0.23468186487E+02 -0.11216983793E+03  0.12395427277E+03  0.00000000000E+00 0.  1.
         21    1    1    2  502  501  0.16581898077E+02  0.13614961865E+02 -0.10391997854E+02  0.23839466223E+02  0.00000000000E+00 0. -1.
<scales pt_clust_5="13000.00000" pt_clust_6="13000.00000" pt_clust_7="13000.00000" pt_clust_8="13000.00000" pt_clust_9="21.45522"></scales>
<clustering>
<clus scale="   21.455">  1  9  2 -1</clus>
<clus scale="   80.603">  5  6 -1 -1</clus>
<clus scale="   89.967">  1  5  2 -1</clus>
<clus scale="   91.135">  7  8 -1 -1</clus>
<clus scale="   21.455">  1  5  2 -1</clus>
</clustering>
</event>
<event>
 9    2  0.5684583E-005  0.1626760E+03  0.7546771E-02  0.1189015E+00
          2   -1    0    0  502    0  0.00000000000E+00  0.00000000000E+00  0.93586033241E+03  0.93586033241E+03  0.00000000000E+00 0. -1.
         -1   -1    0    0    0  501 -0.00000000000E+00 -0.00000000000E+00 -0.55045925975E+02  0.55045925975E+02  0.00000000000E+00 0.  1.
         23    2    1    2    0    0  0.69999015224E+02  0.13010307495E+03  0.16292953846E+03  0.24227295598E+03  0.10160451985E+03 0.  0.
         24    2    1    2    0    0 -0.27475439821E+02 -0.12053913530E+03  0.65835448546E+03  0.67485261489E+03  0.81919719073E+02 0.  0.
        -11    1    4    4    0    0 -0.19369287373E+01 -0.28760784548E+02  0.40581298149E+02  0.49777265696E+02  0.00000000000E+00 0.  1.
         12    1    4    4    0    0 -0.25538511084E+02 -0.91778350747E+02  0.61777318731E+03  0.62507534919E+03  0.00000000000E+00 0. -1.
        -13    1    3    3    0    0  0.82030915174E+01  0.76681302911E+02  0.23399925434E+02  0.80590752800E+02  0.00000000000E+00 0.  1.
         13    1    3    3    0    0  0.61795923707E+02  0.53421772044E+02  0.13952961302E+03  0.16168220318E+03  0.00000000000E+00 0. -1.
         21    1    1    2  502  501 -0.42523575403E+02 -0.95639396592E+01  0.59530382519E+02  0.73780687512E+02  0.00000000000E+00 0. -1.
<scales pt_clust_5="13000.00000" pt_clust_6="13000.00000" pt_clust_7="13000.00000" pt_clust_8="13000.00000" pt_clust_9="43.58582"></scales>
<clustering>
<clus scale="   43.586">  2  9  1 -1</clus>
<clus scale="   81.920">  5  6 -1 -1</clus>
<clus scale="  101.605">  7  8 -1 -1</clus>
<clus scale="  151.165">  1  5  2 -1</clus>
<clus scale="  151.165">  1  5  2 -1</clus>
</clustering>
</event>
<event>
 9    2  0.5684583E-005  0.2348830E+03  0.7546771E-02  0.1123862E+00
          2   -1    0    0  502    0  0.00000000000E+00  0.00000000000E+00  0.77719144529E+03  0.77719144529E+03  0.00000000000E+00 0. -1.
         -1   -1    0    0    0  501 -0.00000000000E+00 -0.00000000000E+00 -0.10709478876E+03  0.10709478876E+03  0.00000000000E+00 0.  1.
         23    2    1    2    0    0  0.16502950316E+03  0.84952194176E+02  0.19161312264E+03  0.28156900528E+03  0.90077209990E+02 0.  0.
         24    2    1    2    0    0 -0.17617025365E+03 -0.17136727008E+03  0.43324746626E+03  0.50454399677E+03  0.80365279434E+02 0.  0.
        -11    1    4    4    0    0 -0.33049640103E+02 -0.83581634826E+02  0.13257598643E+03  0.16017041103E+03  0.00000000000E+00 0.  1.
         12    1    4    4    0    0 -0.14312061354E+03 -0.87785635250E+02  0.30067147983E+03  0.34437358575E+03  0.00000000000E+00 0. -1.
        -13    1    3    3    0    0  0.42272554864E+02  0.23597315680E+02  0.11412246185E+03  0.12396668303E+03  0.00000000000E+00 0. -1.
         13    1    3    3    0    0  0.12275694830E+03  0.61354878496E+02  0.77490660787E+02  0.15760232225E+03  0.00000000000E+00 0.  1.
         21    1    1    2  502  501  0.11140750484E+02  0.86415075900E+02  0.45236067627E+02  0.98173231986E+02  0.00000000000E+00 0. -1.
<scales pt_clust_5="13000.00000" pt_clust_6="13000.00000" pt_clust_7="13000.00000" pt_clust_8="13000.00000" pt_clust_9="87.13026"></scales>
<clustering>
<clus scale="   80.365">  5  6 -1 -1</clus>
<clus scale="   87.130">  2  9  1 -1</clus>
<clus scale="   90.077">  7  8 -1 -1</clus>
<clus scale="  231.332">  1  5  2 -1</clus>
<clus scale="  231.332">  1  5  2 -1</clus>
</clustering>
</event>
<event>
 9    2  0.5684583E-005  0.2236690E+03  0.7546771E-02  0.1132020E+00
         -1   -1    0    0    0  501 -0.00000000000E+00  0.00000000000E+00  0.35697193425E+02  0.35697193425E+02  0.00000000000E+00 0.  1.
          2   -1    0    0  502    0  0.00000000000E+00 -0.00000000000E+00 -0.21144640358E+04  0.21144640358E+04  0.00000000000E+00 0. -1.
         23    2    1    2    0    0 -0.14888353191E+03  0.14947832096E+03 -0.47609108964E+03  0.52883437483E+03  0.92157451468E+02 0.  0.
         24    2    1    2    0    0  0.12788638731E+03 -0.15627958312E+03 -0.15303186452E+04  0.15456784026E+04  0.80425942607E+02 0.  0.
        -11    1    4    4    0    0  0.59812736113E+02 -0.25111583640E+02 -0.33167963869E+03  0.33796381131E+03  0.00000000000E+00 0.  1.
         12    1    4    4    0    0  0.68073651200E+02 -0.13116799948E+03 -0.11986390065E+04  0.12077145913E+04  0.00000000000E+00 0. -1.
        -11    1    3    3    0    0 -0.64501540190E+02  0.79983790094E+02 -0.12891128944E+03  0.16485137522E+03  0.00000000000E+00 0.  1.
         11    1    3    3    0    0 -0.84381991719E+02  0.69494530865E+02 -0.34717980019E+03  0.36398299961E+03  0.00000000000E+00 0. -1.
         21    1    1    2  502  501  0.20997144596E+02  0.68012621620E+01 -0.72357107529E+02  0.75648451790E+02  0.00000000000E+00 0. -1.
<scales pt_clust_5="13000.00000" pt_clust_6="13000.00000" pt_clust_7="13000.00000" pt_clust_8="13000.00000" pt_clust_9="22.07119"></scales>
<clustering>
<clus scale="   22.071">  1  9  2 -1</clus>
<clus scale="   80.426">  5  6 -1 -1</clus>
<clus scale="   92.157">  7  8 -1 -1</clus>
<clus scale="  219.096">  2  5  1 -1</clus>
<clus scale="  219.096">  2  5  1 -1</clus>
</clustering>
</event>
<event>
 9    2  0.5684583E-005  0.1206156E+03  0.7546771E-02  0.1246824E+00
         -1   -1    0    0    0  501 -0.00000000000E+00  0.00000000000E+00  0.58595894031E+03  0.58595894031E+03  0.00000000000E+00 0.  1.
          2   -1    0    0  502    0  0.00000000000E+00 -0.00000000000E+00 -0.64338638933E+02  0.64338638933E+02  0.00000000000E+00 0. -1.
         23    2    1    2    0    0  0.21643820534E+01  0.18148300448E+02  0.21116109750E+03  0.23126446245E+03  0.92521333419E+02 0.  0.
         24    2    1    2    0    0 -0.14186547476E+01 -0.99314787529E+02  0.33537004695E+02  0.13045997332E+03  0.77650720219E+02 0.  0.
        -11    1    4    4    0    0 -0.34047996720E+02 -0.55597030772E+02  0.38448429646E+02  0.75687367860E+02  0.00000000000E+00 0.  1.
         12    1    4    4    0    0  0.32629341973E+02 -0.43717756757E+02 -0.49114249513E+01  0.54772605457E+02  0.00000000000E+00 0. -1.
        -11    1    3    3    0    0  0.38675670971E+02  0.31497469924E+02  0.15600698826E+03  0.16378668604E+03  0.00000000000E+00 0. -1.
         11    1    3    3    0    0 -0.36511288918E+02 -0.13349169476E+02  0.55154109238E+02  0.67477776415E+02  0.00000000000E+00 0.  1.
         21    1    1    2  502  501 -0.74572730577E+00  0.81166487081E+02  0.27692219918E+03  0.28857314347E+03  0.00000000000E+00 0. -1.
<scales pt_clust_5="13000.00000" pt_clust_6="13000.00000" pt_clust_7="13000.00000" pt_clust_8="13000.00000" pt_clust_9="81.16991"></scales>
<clustering>
<clus scale="   77.651">  5  6 -1 -1</clus>
<clus scale="   81.170">  1  9  2 -1</clus>
<clus scale="   92.521">  7  8 -1 -1</clus>
<clus scale="  109.625">  2  5  1 -1</clus>
<clus scale="  109.625">  2  5  1 -1</clus>
</clustering>
</event>
<event>
 9    2  0.5684583E-005  0.1275997E+03  0.7546771E-02  0.1233885E+00
          2   -1    0    0  502    0  0.00000000000E+00  0.00000000000E+00  0.91181847155E+03  0.91181847155E+03  0.00000000000E+00 0. -1.
         -1   -1    0    0    0  501 -0.00000000000E+00 -0.00000000000E+00 -0.40867860345E+02  0.40867860345E+02  0.00000000000E+00 0.  1.
         23    2    1    2    0    0 -0.10993969623E+02 -0.73053582123E+02  0.70744812231E+02  0.13579509769E+03  0.89318457614E+02 0.  0.
         24    2    1    2    0    0  0.63635306617E+01  0.93495672108E+02  0.77259539148E+03  0.78222634404E+03  0.78692306814E+02 0.  0.
        -13    1    4    4    0    0 -0.64780134844E+00  0.34944489430E+02  0.82261058864E+02  0.89377954740E+02  0.00000000000E+00 0.  1.
         14    1    4    4    0    0  0.70113320101E+01  0.58551182678E+02  0.69033433262E+03  0.69284838930E+03  0.00000000000E+00 0. -1.
        -13    1    3    3    0    0 -0.29756569809E+02 -0.15311232506E+02  0.67087557997E+02  0.74970845838E+02  0.00000000000E+00 0. -1.
         13    1    3    3    0    0  0.18762600186E+02 -0.57742349617E+02  0.36572542335E+01  0.60824251854E+02  0.00000000000E+00 0.  1.
         21    1    1    2  502  501  0.46304389608E+01 -0.20442089985E+02  0.27610407499E+02  0.34664890165E+02  0.00000000000E+00 0. -1.
<scales pt_clust_5="13000.00000" pt_clust_6="13000.00000" pt_clust_7="13000.00000" pt_clust_8="13000.00000" pt_clust_9="20.95996"></scales>
<clustering>
<clus scale="   20.960">  2  9  1 -1</clus>
<clus scale="   78.692">  5  6 -1 -1</clus>
<clus scale="   89.318">  7  8 -1 -1</clus>
<clus scale="  120.401">  1  5  2 -1</clus>
<clus scale="  120.401">  1  5  2 -1</clus>
</clustering>
</event>
<event>
 9    2  0.5684583E-005  0.9501273E+02  0.7546771E-02  0.1296026E+00
          2   -1    0    0  502    0  0.00000000000E+00  0.00000000000E+00  0.12894615809E+04  0.12894615809E+04  0.00000000000E+00 0. -1.
         -1   -1    0    0    0  501 -0.00000000000E+00 -0.00000000000E+00 -0.47931885452E+02  0.47931885452E+02  0.00000000000E+00 0.  1.
         23    2    1    2    0    0 -0.20279018532E+02  0.25089083340E+02  0.50934397258E+02  0.10901385348E+03  0.90824042697E+02 0.  0.
         24    2    1    2    0    0 -0.19145832460E+02 -0.21888085009E+02  0.11852684816E+04  0.11884679574E+04  0.82152669709E+02 0.  0.
        -11    1    4    4    0    0 -0.59145996435E+01 -0.24104216135E+02  0.97261195134E+02  0.10037796473E+03  0.00000000000E+00 0.  1.
         12    1    4    4    0    0 -0.13231232817E+02  0.22161311254E+01  0.10880072864E+04  0.10880899926E+04  0.00000000000E+00 0. -1.
        -11    1    3    3    0    0 -0.14711825385E+02  0.47050488774E+02 -0.41310914292E+01  0.49469710090E+02  0.00000000000E+00 0. -1.
         11    1    3    3    0    0 -0.55671931475E+01 -0.21961405434E+02  0.55065488687E+02  0.59544143394E+02  0.00000000000E+00 0.  1.
         21    1    1    2  502  501  0.39424850992E+02 -0.32009983307E+01  0.53268165799E+01  0.39911655453E+02  0.00000000000E+00 0.  1.
<scales pt_clust_5="13000.00000" pt_clust_6="13000.00000" pt_clust_7="13000.00000" pt_clust_8="13000.00000" pt_clust_9="39.55459"></scales>
<clustering>
<clus scale="   39.555">  2  9  1 -1</clus>
<clus scale="   82.153">  5  6 -1 -1</clus>
<clus scale="   86.761">  1  5  2 -1</clus>
<clus scale="   90.824">  7  8 -1 -1</clus>
<clus scale="   86.761">  1  5  2 -1</clus>
</clustering>
</event>
<event>
 9    2  0.5684583E-005  0.9895053E+02  0.7546771E-02  0.1291802E+00
         -1   -1    0    0    0  501 -0.00000000000E+00  0.00000000000E+00  0.85469169041E+02  0.85469169041E+02  0.00000000000E+00 0.  1.
          2   -1    0    0  502    0  0.00000000000E+00 -0.00000000000E+00 -0.19746551473E+03  0.19746551473E+03  0.00000000000E+00 0. -1.
         23    2    1    2    0    0 -0.14789286536E+02  0.16691918606E+02 -0.18516160803E+01  0.93841961670E+02  0.91134747188E+02 0.  0.
         24    2    1    2    0    0  0.61403687240E+02 -0.35752525398E+02 -0.63271735809E+02  0.12029383670E+03  0.73611403449E+02 0.  0.
        -11    1    4    4    0    0  0.48490277180E+02 -0.34146644774E+02 -0.79694569387E+02  0.99340448560E+02  0.00000000000E+00 0.  1.
         12    1    4    4    0    0  0.12913410061E+02 -0.16058806236E+01  0.16422833578E+02  0.20953388144E+02  0.00000000000E+00 0. -1.
        -13    1    3    3    0    0 -0.40682162388E+02  0.41243450422E+02 -0.41928252002E+01  0.58083046773E+02  0.00000000000E+00 0. -1.
         13    1    3    3    0    0  0.25892875852E+02 -0.24551531817E+02  0.23412091198E+01  0.35758914897E+02  0.00000000000E+00 0.  1.
         21    1    1    2  502  501 -0.46614400704E+02  0.19060606792E+02 -0.46872993805E+02  0.68798885402E+02  0.00000000000E+00 0. -1.
<scales pt_clust_5="13000.00000" pt_clust_6="13000.00000" pt_clust_7="13000.00000" pt_clust_8="13000.00000" pt_clust_9="50.36079"></scales>
<clustering>
<clus scale="   50.361">  2  9  1 -1</clus>
<clus scale="   73.611">  5  6 -1 -1</clus>
<clus scale="   83.092">  2  5  1 -1</clus>
<clus scale="   91.135">  7  8 -1 -1</clus>
<clus scale="   50.361">  2  5  1 -1</clus>
</clustering>
</event>
<event>
 9    2  0.5684583E-005  0.9344482E+02  0.7546771E-02  0.1302711E+00
         -3   -1    0    0    0  501 -0.00000000000E+00  0.00000000000E+00  0.14678494177E+03  0.14678494177E+03  0.00000000000E+00 0.  1.
          4   -1    0    0  502    0  0.00000000000E+00 -0.00000000000E+00 -0.11625915659E+03  0.11625915659E+03  0.00000000000E+00 0. -1.
         23    2    1    2    0    0 -0.11104152197E+02 -0.41690171890E+02  0.87653447057E+02  0.13330866473E+03  0.90701161424E+02 0.  0.
         24    2    1    2    0    0  0.25464558993E+01  0.18850863344E+02 -0.66289452346E+02  0.10368151673E+03  0.77419157407E+02 0.  0.
        -11    1    4    4    0    0 -0.26098595109E+02 -0.17316680861E+02 -0.15107395836E+02  0.34774092536E+02  0.00000000000E+00 0.  1.
         12    1    4    4    0    0  0.28645051009E+02  0.36167544205E+02 -0.51182056510E+02  0.68907424198E+02  0.00000000000E+00 0. -1.
        -13    1    3    3    0    0  0.44190042358E+01 -0.66048670703E+02  0.39295554139E+02  0.76981134541E+02  0.00000000000E+00 0.  1.
         13    1    3    3    0    0 -0.15523156433E+02  0.24358498813E+02  0.48357892918E+02  0.56327530192E+02  0.00000000000E+00 0. -1.
         21    1    1    2  502  501  0.85576962978E+01  0.22839308546E+02  0.91617904654E+01  0.26053916890E+02  0.00000000000E+00 0. -1.
<scales pt_clust_5="13000.00000" pt_clust_6="13000.00000" pt_clust_7="13000.00000" pt_clust_8="13000.00000" pt_clust_9="24.38992"></scales>
<clustering>
<clus scale="   24.390">  1  9  2 -1</clus>
<clus scale="   77.419">  5  6 -1 -1</clus>
<clus scale="   80.616">  2  5  1 -1</clus>
<clus scale="   90.701">  7  8 -1 -1</clus>
<clus scale="   80.616">  2  5  1 -1</clus>
</clustering>
</event>
<event>
 9    2  0.5684583E-005  0.1833392E+03  0.7546771E-02  0.1165981E+00
          2   -1    0    0  502    0  0.00000000000E+00  0.00000000000E+00  0.79517215781E+02  0.79517215781E+02  0.00000000000E+00 0. -1.
         -1   -1    0    0    0  501 -0.00000000000E+00 -0.00000000000E+00 -0.52946353876E+03  0.52946353876E+03  0.00000000000E+00 0.  1.
         23    2    1    2    0    0  0.15546786378E+03 -0.86098228888E+02 -0.26443346676E+03  0.33093674418E+03  0.89503679369E+02 0.  0.
         24    2    1    2    0    0 -0.13499024179E+03  0.65991587663E+02 -0.12202536814E+03  0.20837141053E+03  0.77144016218E+02 0.  0.
        -13    1    4    4    0    0 -0.64808000462E+02  0.73720521184E+02 -0.66769623894E+02  0.11871383594E+03  0.00000000000E+00 0.  1.
         14    1    4    4    0    0 -0.70182241324E+02 -0.77289335213E+01 -0.55255744245E+02  0.89657574597E+02  0.00000000000E+00 0. -1.
        -13    1    3    3    0    0  0.76776825670E+02 -0.57577455073E+02 -0.68597296482E+02  0.11796369517E+03  0.00000000000E+00 0.  1.
         13    1    3    3    0    0  0.78691038111E+02 -0.28520773816E+02 -0.19583617027E+03  0.21297304901E+03  0.00000000000E+00 0. -1.
         21    1    1    2  502  501 -0.20477621994E+02  0.20106641226E+02 -0.63487488083E+02  0.69672599830E+02  0.00000000000E+00 0. -1.
<scales pt_clust_5="13000.00000" pt_clust_6="13000.00000" pt_clust_7="13000.00000" pt_clust_8="13000.00000" pt_clust_9="28.69861"></scales>
<clustering>
<clus scale="   28.699">  2  9  1 -1</clus>
<clus scale="   77.144">  5  6 -1 -1</clus>
<clus scale="   89.504">  7  8 -1 -1</clus>
<clus scale="  177.633">  1  5  2 -1</clus>
<clus scale="  177.633">  1  5  2 -1</clus>
</clustering>
</event>
<event>
 9    2  0.5684583E-005  0.1342572E+03  0.7546771E-02  0.1221515E+00
         -1   -1    0    0    0  501 -0.00000000000E+00  0.00000000000E+00  0.67901625205E+02  0.67901625205E+02  0.00000000000E+00 0.  1.
          2   -1    0    0  502    0  0.00000000000E+00 -0.00000000000E+00 -0.68644172159E+03  0.68644172159E+03  0.00000000000E+00 0. -1.
         23    2    1    2    0    0  0.87873540470E+02 -0.48551663773E+02 -0.77900709816E+02  0.15128778883E+03  0.82100251466E+02 0.  0.
         24    2    1    2    0    0 -0.14797488461E+03 -0.23557242148E+02 -0.38987617195E+03  0.42545653554E+03  0.80983480095E+02 0.  0.
        -13    1    4    4    0    0 -0.45159227374E+02  0.25214139582E+02 -0.79176348609E+02  0.94572738307E+02  0.00000000000E+00 0.  1.
         14    1    4    4    0    0 -0.10281565724E+03 -0.48771381730E+02 -0.31069982334E+03  0.33088379724E+03  0.00000000000E+00 0. -1.
        -13    1    3    3    0    0  0.10107956911E+03 -0.30310021951E+02 -0.72787770153E+02  0.12819452487E+03  0.00000000000E+00 0.  1.
         13    1    3    3    0    0 -0.13206028638E+02 -0.18241641821E+02 -0.51129396629E+01  0.23093263969E+02  0.00000000000E+00 0. -1.
         21    1    1    2  502  501  0.60101344144E+02  0.72108905920E+02 -0.15076321462E+03  0.17759902241E+03  0.00000000000E+00 0.  1.
<scales pt_clust_5="13000.00000" pt_clust_6="13000.00000" pt_clust_7="13000.00000" pt_clust_8="13000.00000" pt_clust_9="93.87154"></scales>
<clustering>
<clus scale="   80.983">  5  6 -1 -1</clus>
<clus scale="   82.100">  7  8 -1 -1</clus>
<clus scale="   93.872">  2  9  1 -1</clus>
<clus scale="  133.577">  2  5  1 -1</clus>
<clus scale="   93.872">  2  5  1 -1</clus>
</clustering>
</event>
<event>
 9    2  0.5684583E-005  0.9367128E+02  0.7546771E-02  0.1301619E+00
          2   -1    0    0  502    0  0.00000000000E+00  0.00000000000E+00  0.16649753495E+03  0.16649753495E+03  0.00000000000E+00 0. -1.
         -1   -1    0    0    0  501 -0.00000000000E+00 -0.00000000000E+00 -0.15805392970E+03  0.15805392970E+03  0.00000000000E+00 0.  1.
         24    2    1    2    0    0 -0.69293860635E+01 -0.93422252381E+01 -0.11024021960E+03  0.13735243689E+03  0.81101740656E+02 0.  0.
         23    2    1    2    0    0  0.34912265972E+01 -0.10850852778E+02  0.13257415116E+03  0.16244983575E+03  0.93188593232E+02 0.  0.
        -13    1    3    3    0    0  0.18659607082E+02  0.28396221693E+02 -0.63719348662E+02  0.72212753283E+02  0.00000000000E+00 0.  1.
         14    1    3    3    0    0 -0.25588993145E+02 -0.37738446931E+02 -0.46520870940E+02  0.65139683604E+02  0.00000000000E+00 0. -1.
        -13    1    4    4    0    0 -0.26243431997E+02 -0.32505663746E+02  0.24828736815E+02  0.48598375183E+02  0.00000000000E+00 0.  1.
         13    1    4    4    0    0  0.29734658595E+02  0.21654810968E+02  0.10774541435E+03  0.11385146056E+03  0.00000000000E+00 0. -1.
         21    1    1    2  502  501  0.34381594663E+01  0.20193078016E+02 -0.13890326308E+02  0.24749192011E+02  0.00000000000E+00 0.  1.
<scales pt_clust_5="13000.00000" pt_clust_6="13000.00000" pt_clust_7="13000.00000" pt_clust_8="13000.00000" pt_clust_9="20.48368"></scales>
<clustering>
<clus scale="   20.484">  2  9  1 -1</clus>
<clus scale="   81.102">  5  6 -1 -1</clus>
<clus scale="   81.656">  2  5  1 -1</clus>
<clus scale="   93.189">  7  8 -1 -1</clus>
<clus scale="   93.671">  1  5  2 -1</clus>
</clustering>
</event>
<event>
 9    2  0.5684583E-005  0.1396774E+03  0.7546771E-02  0.1216941E+00
         -1   -1    0    0    0  501 -0.00000000000E+00  0.00000000000E+00  0.35259452573E+03  0.35259452573E+03  0.00000000000E+00 0.  1.
          2   -1    0    0  502    0  0.00000000000E+00 -0.00000000000E+00 -0.11796374513E+03  0.11796374513E+03  0.00000000000E+00 0. -1.
         23    2    1    2    0    0 -0.20227330307E+02  0.85637147300E+02  0.23271486971E+03  0.26566466398E+03  0.93159203617E+02 0.  0.
         24    2    1    2    0    0  0.58914510055E+02 -0.90482823578E+02 -0.47535616609E+02  0.14192034248E+03  0.78890353697E+02 0.  0.
        -11    1    4    4    0    0  0.44189369268E+02 -0.41508454805E+01 -0.53316389561E+01  0.44702978071E+02  0.00000000000E+00 0.  1.
         12    1    4    4    0    0  0.14725140787E+02 -0.86331978098E+02 -0.42203977653E+02  0.97217364412E+02  0.00000000000E+00 0. -1.
        -13    1    3    3    0    0  0.31286866407E+02  0.44695675243E+01  0.48808866636E+02  0.58147661223E+02  0.00000000000E+00 0. -1.
         13    1    3    3    0    0 -0.51514196714E+02  0.81167579776E+02  0.18390600307E+03  0.20751700276E+03  0.00000000000E+00 0.  1.
         21    1    1    2  502  501 -0.38687179748E+02  0.48456762780E+01  0.49451527509E+02  0.62973264394E+02  0.00000000000E+00 0.  1.
<scales pt_clust_5="13000.00000" pt_clust_6="13000.00000" pt_clust_7="13000.00000" pt_clust_8="13000.00000" pt_clust_9="38.98947"></scales>
<clustering>
<clus scale="   38.989">  1  9  2 -1</clus>
<clus scale="   78.890">  5  6 -1 -1</clus>
<clus scale="   93.159">  7  8 -1 -1</clus>
<clus scale="  130.594">  2  5  1 -1</clus>
<clus scale="  130.594">  2  5  1 -1</clus>
</clustering>
</event>
<event>
 9    2  0.5684583E-005  0.9691615E+02  0.7546771E-02  0.1291988E+00
         -1   -1    0    0    0  501 -0.00000000000E+00  0.00000000000E+00  0.51212213818E+02  0.51212213818E+02  0.00000000000E+00 0.  1.
          2   -1    0    0  502    0  0.00000000000E+00 -0.00000000000E+00 -0.51163452109E+03  0.51163452109E+03  0.00000000000E+00 0. -1.
         23    2    1    2    0    0  0.41431153585E+01  0.14209128866E+02 -0.11754119761E+03  0.14899080449E+03  0.90350771665E+02 0.  0.
         24    2    1    2    0    0  0.94820399946E+01 -0.41892828690E+02 -0.36473197582E+03  0.37604730115E+03  0.80853202403E+02 0.  0.
        -11    1    4    4    0    0  0.18734717353E+02 -0.38588382149E+02 -0.76957120931E+02  0.88104774747E+02  0.00000000000E+00 0.  1.
         12    1    4    4    0    0 -0.92526773585E+01 -0.33044465402E+01 -0.28777485489E+03  0.28794252640E+03  0.00000000000E+00 0. -1.
        -11    1    3    3    0    0  0.29071638123E+01 -0.25839599789E+02 -0.10321320170E+03  0.10643825216E+03  0.00000000000E+00 0. -1.
         11    1    3    3    0    0  0.12359515462E+01  0.40048728655E+02 -0.14327995911E+02  0.42552552331E+02  0.00000000000E+00 0.  1.
         21    1    1    2  502  501 -0.13625155353E+02  0.27683699823E+02  0.21850866163E+02  0.37808629258E+02  0.00000000000E+00 0.  1.
<scales pt_clust_5="13000.00000" pt_clust_6="13000.00000" pt_clust_7="13000.00000" pt_clust_8="13000.00000" pt_clust_9="30.85502"></scales>
<clustering>
<clus scale="   30.855">  1  9  2 -1</clus>
<clus scale="   80.853">  5  6 -1 -1</clus>
<clus scale="   88.129">  2  5  1 -1</clus>
<clus scale="   90.351">  7  8 -1 -1</clus>
<clus scale="   88.129">  2  5  1 -1</clus>
</clustering>
</event>
<event>
 9    2  0.5684583E-005  0.1336038E+03  0.7546771E-02  0.1224263E+00
         -1   -1    0    0    0  501 -0.00000000000E+00  0.00000000000E+00  0.13986527118E+03  0.13986527118E+03  0.00000000000E+00 0.  1.
          2   -1    0    0  502    0  0.00000000000E+00 -0.00000000000E+00 -0.34226485419E+03  0.34226485419E+03  0.00000000000E+00 0. -1.
         24    2    1    2    0    0 -0.10150833111E+03 -0.34705637070E+02  0.33977644215E+02  0.13769612705E+03  0.79355658695E+02 0.  0.
         23    2    1    2    0    0  0.85655786205E+02  0.50656399559E+02 -0.27174795769E+03  0.30251957863E+03  0.88137156870E+02 0.  0.
        -11    1    3    3    0    0 -0.10247213515E+03 -0.51540237605E+02  0.37085678512E+02  0.12054991549E+03  0.00000000000E+00 0.  1.
         12    1    3    3    0    0  0.96380403673E+00  0.16834600535E+02 -0.31080342972E+01  0.17146211552E+02  0.00000000000E+00 0. -1.
        -13    1    4    4    0    0  0.30344451698E+02  0.17777059654E+02 -0.21139034411E+03  0.21429579366E+03  0.00000000000E+00 0. -1.
         13    1    4    4    0    0  0.55311334507E+02  0.32879339905E+02 -0.60357613583E+02  0.88223784973E+02  0.00000000000E+00 0.  1.
         21    1    1    2  502  501  0.15852544909E+02 -0.15950762489E+02  0.35370730462E+02  0.41914419685E+02  0.00000000000E+00 0.  1.
<scales pt_clust_5="13000.00000" pt_clust_6="13000.00000" pt_clust_7="13000.00000" pt_clust_8="13000.00000" pt_clust_9="22.48844"></scales>
<clustering>
<clus scale="   22.488">  1  9  2 -1</clus>
<clus scale="   79.356">  5  6 -1 -1</clus>
<clus scale="   88.137">  7  8 -1 -1</clus>
<clus scale="  127.981">  1  5  2 -1</clus>
<clus scale="  133.604">  2  5  1 -1</clus>
</clustering>
</event>
<event>
 9    2  0.5684583E-005  0.1252048E+03  0.7546771E-02  0.1253587E+00
          2   -1    0    0  502    0  0.00000000000E+00  0.00000000000E+00  0.93319729598E+02  0.93319729598E+02  0.00000000000E+00 0. -1.
         -1   -1    0    0    0  501 -0.00000000000E+00 -0.00000000000E+00 -0.73396780115E+03  0.73396780115E+03  0.00000000000E+00 0.  1.
         24    2    1    2    0    0  0.52609918561E+00  0.11274070379E+02 -0.48830520707E+03  0.49575565981E+03  0.84878251265E+02 0.  0.
         23    2    1    2    0    0  0.68197414207E+02  0.50407124719E+02  0.29436952780E+02  0.12764123092E+03  0.90741303251E+02 0.  0.
        -11    1    3    3    0    0 -0.30617177363E+02  0.13419177240E+02 -0.86424431820E+02  0.92664277275E+02  0.00000000000E+00 0.  1.
         12    1    3    3    0    0  0.31143276549E+02 -0.21451068615E+01 -0.40188077525E+03  0.40309138253E+03  0.00000000000E+00 0. -1.
        -11    1    4    4    0    0  0.72866881040E+02  0.26482157966E+01  0.31908188833E+02  0.79591003977E+02  0.00000000000E+00 0.  1.
         11    1    4    4    0    0 -0.46694668330E+01  0.47758908923E+02 -0.24712360535E+01  0.48050226947E+02  0.00000000000E+00 0. -1.
         21    1    1    2  502  501 -0.68723513393E+02 -0.61681195098E+02 -0.18177981726E+03  0.20389064001E+03  0.00000000000E+00 0.  1.
<scales pt_clust_5="13000.00000" pt_clust_6="13000.00000" pt_clust_7="13000.00000" pt_clust_8="13000.00000" pt_clust_9="86.26848"></scales>
<clustering>
<clus scale="   84.878">  5  6 -1 -1</clus>
<clus scale="   85.625">  2  5  1 -1</clus>
<clus scale="   86.268">  2  9  1 -1</clus>
<clus scale="   90.741">  7  8 -1 -1</clus>
<clus scale="  125.205">  1  5  2 -1</clus>
</clustering>
</event>
<event>
 9    2  0.5684583E-005  0.1215213E+03  0.7546771E-02  0.1244879E+00
          2   -1    0    0  502    0  0.00000000000E+00  0.00000000000E+00  0.11088956918E+04  0.11088956918E+04  0.00000000000E+00 0. -1.
         -1   -1    0    0    0  501 -0.00000000000E+00 -0.00000000000E+00 -0.19094140162E+02  0.19094140162E+02  0.00000000000E+00 0.  1.
         23    2    1    2    0    0 -0.52853692146E+02 -0.18977414814E+02  0.39803376174E+03  0.41282704804E+03  0.94030000841E+02 0.  0.
         24    2    1    2    0    0  0.93664101023E+02  0.15253339835E+02  0.62121739143E+03  0.63357407802E+03  0.80619084127E+02 0.  0.
        -13    1    4    4    0    0  0.57668009472E+02 -0.79781418947E+01  0.15807829301E+03  0.16845770029E+03  0.00000000000E+00 0.  1.
         14    1    4    4    0    0  0.35996091552E+02  0.23231481730E+02  0.46313909842E+03  0.46511637773E+03  0.00000000000E+00 0. -1.
        -11    1    3    3    0    0 -0.56168098342E+02  0.24340793801E+02  0.16985751597E+03  0.18055166919E+03  0.00000000000E+00 0. -1.
         11    1    3    3    0    0  0.33144061961E+01 -0.43318208616E+02  0.22817624577E+03  0.23227537885E+03  0.00000000000E+00 0.  1.
         21    1    1    2  502  501 -0.40810408878E+02  0.37240749790E+01  0.70550398445E+02  0.81588705885E+02  0.00000000000E+00 0. -1.
<scales pt_clust_5="13000.00000" pt_clust_6="13000.00000" pt_clust_7="13000.00000" pt_clust_8="13000.00000" pt_clust_9="40.97997"></scales>
<clustering>
<clus scale="   40.980">  2  9  1 -1</clus>
<clus scale="   80.619">  5  6 -1 -1</clus>
<clus scale="   94.030">  7  8 -1 -1</clus>
<clus scale="  111.468">  1  5  2 -1</clus>
<clus scale="  111.468">  1  5  2 -1</clus>
</clustering>
</event>
<event>
 9    2  0.5684583E-005  0.1216189E+03  0.7546771E-02  0.1244266E+00
         -1   -1    0    0    0  501 -0.00000000000E+00  0.00000000000E+00  0.33021245288E+02  0.33021245288E+02  0.00000000000E+00 0.  1.
          2   -1    0    0  502    0  0.00000000000E+00 -0.00000000000E+00 -0.10421048378E+04  0.10421048378E+04  0.00000000000E+00 0. -1.
         23    2    1    2    0    0 -0.78378705770E+02 -0.37664535659E+02 -0.12380173236E+03  0.17781584199E+03  0.93433216597E+02 0.  0.
         24    2    1    2    0    0  0.59529931644E+02  0.48662754408E+02 -0.83540138471E+03  0.84286486543E+03  0.81325465691E+02 0.  0.
        -11    1    4    4    0    0  0.34954201230E+02  0.53495027704E+02 -0.29309096428E+03  0.29997637826E+03  0.00000000000E+00 0.  1.
         12    1    4    4    0    0  0.24575730413E+02 -0.48322732954E+01 -0.54231042043E+03  0.54288848717E+03  0.00000000000E+00 0. -1.
        -13    1    3    3    0    0  0.50742416327E+01  0.23323155374E+02 -0.17921713521E+02  0.29848037126E+02  0.00000000000E+00 0. -1.
         13    1    3    3    0    0 -0.83452947403E+02 -0.60987691033E+02 -0.10588001884E+03  0.14796780487E+03  0.00000000000E+00 0.  1.
         21    1    1    2  502  501  0.18848774126E+02 -0.10998218750E+02 -0.49880475485E+02  0.54445375711E+02  0.00000000000E+00 0. -1.
<scales pt_clust_5="13000.00000" pt_clust_6="13000.00000" pt_clust_7="13000.00000" pt_clust_8="13000.00000" pt_clust_9="21.82286"></scales>
<clustering>
<clus scale="   21.823">  1  9  2 -1</clus>
<clus scale="   81.325">  5  6 -1 -1</clus>
<clus scale="   93.433">  7  8 -1 -1</clus>
<clus scale="  112.584">  2  5  1 -1</clus>
<clus scale="  112.584">  2  5  1 -1</clus>
</clustering>
</event>
<event>
 9    2  0.5684583E-005  0.1425010E+03  0.7546771E-02  0.1212340E+00
          2   -1    0    0  502    0  0.00000000000E+00  0.00000000000E+00  0.37232906361E+03  0.37232906361E+03  0.00000000000E+00 0. -1.
         -1   -1    0    0    0  501 -0.00000000000E+00 -0.00000000000E+00 -0.81467446459E+02  0.81467446459E+02  0.00000000000E+00 0.  1.
         23    2    1    2    0    0  0.21976218351E+02  0.10615311219E+03  0.11075967994E+03  0.17988977575E+03  0.91330100836E+02 0.  0.
         24    2    1    2    0    0 -0.20739272109E+01 -0.11066899756E+03  0.20206722864E+03  0.24392393190E+03  0.80098635877E+02 0.  0.
        -13    1    4    4    0    0 -0.40914392829E+02 -0.60916726365E+02  0.11393056521E+03  0.13551755894E+03  0.00000000000E+00 0.  1.
         14    1    4    4    0    0  0.38840465618E+02 -0.49752271200E+02  0.88136663422E+02  0.10840637296E+03  0.00000000000E+00 0. -1.
        -13    1    3    3    0    0 -0.16826870130E+02  0.36556197880E+02 -0.37134228734E+01  0.40413966290E+02  0.00000000000E+00 0.  1.
         13    1    3    3    0    0  0.38803088481E+02  0.69596914312E+02  0.11447310281E+03  0.13947580946E+03  0.00000000000E+00 0. -1.
         21    1    1    2  502  501 -0.19902291140E+02  0.45158853733E+01 -0.21965291425E+02  0.29982802416E+02  0.00000000000E+00 0. -1.
<scales pt_clust_5="13000.00000" pt_clust_6="13000.00000" pt_clust_7="13000.00000" pt_clust_8="13000.00000" pt_clust_9="20.40819"></scales>
<clustering>
<clus scale="   20.408">  2  9  1 -1</clus>
<clus scale="   80.099">  5  6 -1 -1</clus>
<clus scale="   91.330">  7  8 -1 -1</clus>
<clus scale="  135.577">  1  5  2 -1</clus>
<clus scale="  135.577">  1  5  2 -1</clus>
</clustering>
</event>
<event>
 9    2  0.5684583E-005  0.1918535E+03  0.7546771E-02  0.1166960E+00
         -1   -1    0    0    0  501 -0.00000000000E+00  0.00000000000E+00  0.59673479631E+02  0.59673479631E+02  0.00000000000E+00 0.  1.
          2   -1    0    0  502    0  0.00000000000E+00 -0.00000000000E+00 -0.15394294917E+04  0.15394294917E+04  0.00000000000E+00 0. -1.
         24    2    1    2    0    0  0.79102887363E+02 -0.10163960695E+03 -0.20684192322E+03  0.25642686312E+03  0.79895421893E+02 0.  0.
         23    2    1    2    0    0 -0.76916989521E+02 -0.13035078840E+03 -0.75169943801E+03  0.77215964575E+03  0.90944610136E+02 0.  0.
        -13    1    3    3    0    0  0.91416029441E+02 -0.68653540866E+02 -0.17451485081E+03  0.20862797575E+03  0.00000000000E+00 0.  1.
         14    1    3    3    0    0 -0.12313142077E+02 -0.32986066085E+02 -0.32327072412E+02  0.47798887375E+02  0.00000000000E+00 0. -1.
        -13    1    4    4    0    0 -0.50363048748E+02 -0.32527641575E+02 -0.14271081110E+03  0.15479295769E+03  0.00000000000E+00 0. -1.
         13    1    4    4    0    0 -0.26553940773E+02 -0.97823146821E+02 -0.60898862691E+03  0.61736668806E+03  0.00000000000E+00 0.  1.
         21    1    1    2  502  501 -0.21858978422E+01  0.23199039535E+03 -0.52121465084E+03  0.57051646245E+03  0.00000000000E+00 0. -1.
<scales pt_clust_5="13000.00000" pt_clust_6="13000.00000" pt_clust_7="13000.00000" pt_clust_8="13000.00000" pt_clust_9="168.92852"></scales>
<clustering>
<clus scale="   79.895">  5  6 -1 -1</clus>
<clus scale="   90.945">  7  8 -1 -1</clus>
<clus scale="  151.562">  1  5  2 -1</clus>
<clus scale="  168.929">  1  9  2 -1</clus>
<clus scale="  191.854">  2  5  1 -1</clus>
</clustering>
</event>
<event>
 9    2  0.5684583E-005  0.1588579E+03  0.7546771E-02  0.1210905E+00
          2   -1    0    0  502    0  0.00000000000E+00  0.00000000000E+00  0.16910384469E+04  0.16910384469E+04  0.00000000000E+00 0. -1.
         -1   -1    0    0    0  501 -0.00000000000E+00 -0.00000000000E+00 -0.33042699444E+02  0.33042699444E+02  0.00000000000E+00 0.  1.
         23    2    1    2    0    0  0.24423986412E+01  0.48639341542E+01  0.18656880789E+03  0.21210516794E+03  0.10075246410E+03 0.  0.
         24    2    1    2    0    0  0.13560140145E+03 -0.17649981318E+02  0.11640240161E+04  0.11747577536E+04  0.80028793610E+02 0.  0.
        -11    1    4    4    0    0  0.12580373182E+02 -0.25463261241E+02  0.11235837145E+03  0.11589239447E+03  0.00000000000E+00 0.  1.
         12    1    4    4    0    0  0.12302102827E+03  0.78132799236E+01  0.10516656446E+04  0.10588653592E+04  0.00000000000E+00 0. -1.
        -11    1    3    3    0    0 -0.82459070687E+01  0.51808186915E+02  0.89187127235E+02  0.10347186516E+03  0.00000000000E+00 0.  1.
         11    1    3    3    0    0  0.10688305710E+02 -0.46944252761E+02  0.97381680658E+02  0.10863330279E+03  0.00000000000E+00 0. -1.
         21    1    1    2  502  501 -0.13804380009E+03  0.12786047163E+02  0.30740292347E+03  0.33721822475E+03  0.00000000000E+00 0.  1.
<scales pt_clust_5="13000.00000" pt_clust_6="13000.00000" pt_clust_7="13000.00000" pt_clust_8="13000.00000" pt_clust_9="137.22692"></scales>
<clustering>
<clus scale="   80.029">  5  6 -1 -1</clus>
<clus scale="  100.752">  7  8 -1 -1</clus>
<clus scale="  100.899">  2  7  1 -1</clus>
<clus scale="  137.227">  2  9  1 -1</clus>
<clus scale="  158.858">  1  5  2 -1</clus>
</clustering>
</event>
<event>
 9    2  0.5684583E-005  0.2028643E+03  0.7546771E-02  0.1148145E+00
         -1   -1    0    0    0  501 -0.00000000000E+00  0.00000000000E+00  0.13418843835E+03  0.13418843835E+03  0.00000000000E+00 0.  1.
          2   -1    0    0  502    0  0.00000000000E+00 -0.00000000000E+00 -0.80824379884E+03  0.80824379884E+03  0.00000000000E+00 0. -1.
         24    2    1    2    0    0  0.45208981343E+02  0.10270939840E+03  0.27974848538E+02  0.14231156598E+03  0.82927179781E+02 0.  0.
         23    2    1    2    0    0 -0.80251801517E+02 -0.17690405636E+03 -0.68286330777E+03  0.71585788809E+03  0.91732339049E+02 0.  0.
        -11    1    3    3    0    0  0.42974152724E+02  0.10298116803E+03  0.48493549502E+02  0.12166972965E+03  0.00000000000E+00 0.  1.
         12    1    3    3    0    0  0.22348286184E+01 -0.27176962455E+00 -0.20518700963E+02  0.20641836326E+02  0.00000000000E+00 0. -1.
        -13    1    4    4    0    0 -0.79655979916E+02 -0.68071757949E+02 -0.29706254147E+03  0.31499998874E+03  0.00000000000E+00 0. -1.
         13    1    4    4    0    0 -0.59582160148E+00 -0.10883229841E+03 -0.38580076631E+03  0.40085789934E+03  0.00000000000E+00 0.  1.
         21    1    1    2  502  501  0.35042820175E+02  0.74194657957E+02 -0.19166901259E+02  0.84262783119E+02  0.00000000000E+00 0.  1.
<scales pt_clust_5="13000.00000" pt_clust_6="13000.00000" pt_clust_7="13000.00000" pt_clust_8="13000.00000" pt_clust_9="82.05392"></scales>
<clustering>
<clus scale="   82.054">  1  9  2 -1</clus>
<clus scale="   82.927">  5  6 -1 -1</clus>
<clus scale="   91.732">  7  8 -1 -1</clus>
<clus scale="  199.038">  1  5  2 -1</clus>
<clus scale="  202.864">  2  5  1 -1</clus>
</clustering>
</event>
<event>
 9    2  0.5684583E-005  0.1012751E+03  0.7546771E-02  0.1281470E+00
         -1   -1    0    0    0  501 -0.00000000000E+00  0.00000000000E+00  0.18538145550E+03  0.18538145550E+03  0.00000000000E+00 0.  1.
          2   -1    0    0  502    0  0.00000000000E+00 -0.00000000000E+00 -0.17751823521E+03  0.17751823521E+03  0.00000000000E+00 0. -1.
         23    2    1    2    0    0  0.27013404537E+02 -0.27585655910E+01  0.11221283540E+03  0.14738885576E+03  0.91621071085E+02 0.  0.
         24    2    1    2    0    0 -0.35732196082E+02  0.27991208315E+02 -0.14102654708E+03  0.17014674206E+03  0.83672751080E+02 0.  0.
        -13    1    4    4    0    0  0.56409881307E+01 -0.24283571939E+02 -0.19950189017E+02  0.31929964845E+02  0.00000000000E+00 0.  1.
         14    1    4    4    0    0 -0.41373184213E+02  0.52274780254E+02 -0.12107635806E+03  0.13821677721E+03  0.00000000000E+00 0. -1.
        -11    1    3    3    0    0  0.19146250418E+02 -0.33948247414E+02  0.10815992586E+03  0.11496796062E+03  0.00000000000E+00 0.  1.
         11    1    3    3    0    0  0.78671541194E+01  0.31189681823E+02  0.40529095387E+01  0.32420895144E+02  0.00000000000E+00 0. -1.
         21    1    1    2  502  501  0.87187915451E+01 -0.25232642724E+02  0.36676931970E+02  0.45364092889E+02  0.00000000000E+00 0.  1.
<scales pt_clust_5="13000.00000" pt_clust_6="13000.00000" pt_clust_7="13000.00000" pt_clust_8="13000.00000" pt_clust_9="26.69651"></scales>
<clustering>
<clus scale="   26.697">  1  9  2 -1</clus>
<clus scale="   83.673">  5  6 -1 -1</clus>
<clus scale="   91.621">  7  8 -1 -1</clus>
<clus scale="   94.145">  2  5  1 -1</clus>
<clus scale="   94.145">  2  5  1 -1</clus>
</clustering>
</event>
<event>
 9    2  0.5684583E-005  0.1719829E+03  0.7546771E-02  0.1177301E+00
          2   -1    0    0  502    0  0.00000000000E+00  0.00000000000E+00  0.95928087951E+03  0.95928087951E+03  0.00000000000E+00 0. -1.
         -1   -1    0    0    0  501 -0.00000000000E+00 -0.00000000000E+00 -0.72086691422E+02  0.72086691422E+02  0.00000000000E+00 0.  1.
         23    2    1    2    0    0 -0.88113411419E+02  0.13676224660E+03  0.15143446596E+03  0.24020364707E+03  0.91090664821E+02 0.  0.
         24    2    1    2    0    0  0.67632122183E+02 -0.12556152306E+03  0.74742224704E+03  0.76506883038E+03  0.79690023417E+02 0.  0.
        -13    1    4    4    0    0 -0.22401958819E+01 -0.46077486453E+02  0.11595178866E+03  0.12479170857E+03  0.00000000000E+00 0.  1.
         14    1    4    4    0    0  0.69872318065E+02 -0.79484036604E+02  0.63147045838E+03  0.64027712181E+03  0.00000000000E+00 0. -1.
        -11    1    3    3    0    0 -0.10436065107E+03  0.12043062775E+03  0.11286157958E+03  0.19527523585E+03  0.00000000000E+00 0.  1.
         11    1    3    3    0    0  0.16247239655E+02  0.16331618853E+02  0.38572886374E+02  0.44928411212E+02  0.00000000000E+00 0. -1.
         21    1    1    2  502  501  0.20481289236E+02 -0.11200723542E+02 -0.11662524907E+02  0.26095093482E+02  0.00000000000E+00 0.  1.
<scales pt_clust_5="13000.00000" pt_clust_6="13000.00000" pt_clust_7="13000.00000" pt_clust_8="13000.00000" pt_clust_9="23.34394"></scales>
<clustering>
<clus scale="   23.344">  2  9  1 -1</clus>
<clus scale="   79.690">  5  6 -1 -1</clus>
<clus scale="   91.091">  7  8 -1 -1</clus>
<clus scale="  166.226">  1  5  2 -1</clus>
<clus scale="  166.226">  1  5  2 -1</clus>
</clustering>
</event>
<event>
 9    2  0.5684583E-005  0.1057324E+03  0.7546771E-02  0.1273249E+00
         -1   -1    0    0    0  501 -0.00000000000E+00  0.00000000000E+00  0.39666555209E+03  0.39666555209E+03  0.00000000000E+00 0.  1.
          2   -1    0    0  502    0  0.00000000000E+00 -0.00000000000E+00 -0.26083547367E+03  0.26083547367E+03  0.00000000000E+00 0. -1.
         23    2    1    2    0    0 -0.69272443781E+02 -0.38118972479E+02  0.20298068075E+03  0.23597639386E+03  0.90730227450E+02 0.  0.
         24    2    1    2    0    0  0.50466977848E+02  0.17037328850E+02 -0.23362440711E+03  0.25267082256E+03  0.80156063683E+02 0.  0.
        -13    1    4    4    0    0 -0.17701170196E+02  0.12612592839E+02 -0.24897928930E+02  0.33050201050E+02  0.00000000000E+00 0.  1.
         14    1    4    4    0    0  0.68168148044E+02  0.44247360109E+01 -0.20872647818E+03  0.21962062151E+03  0.00000000000E+00 0. -1.
        -13    1    3    3    0    0 -0.29960685503E+02 -0.87328527435E+00  0.16988744663E+03  0.17251130347E+03  0.00000000000E+00 0.  1.
         13    1    3    3    0    0 -0.39311758277E+02 -0.37245687205E+02  0.33093234124E+02  0.63465090396E+02  0.00000000000E+00 0. -1.
         21    1    1    2  502  501  0.18805465932E+02  0.21081643629E+02  0.16647380479E+03  0.16885380934E+03  0.00000000000E+00 0. -1.
<scales pt_clust_5="13000.00000" pt_clust_6="13000.00000" pt_clust_7="13000.00000" pt_clust_8="13000.00000" pt_clust_9="28.25033"></scales>
<clustering>
<clus scale="   28.250">  1  9  2 -1</clus>
<clus scale="   80.156">  5  6 -1 -1</clus>
<clus scale="   90.730">  7  8 -1 -1</clus>
<clus scale="   96.811">  2  5  1 -1</clus>
<clus scale="   96.811">  2  5  1 -1</clus>
</clustering>
</event>
