<event>
 9    2  0.1488992E-004  0.1383511E+03  0.7546771E-02  0.1217916E+00
          2   -1    0    0  502    0 -0.00000000000E+00  0.00000000000E+00  0.49416092156E+03  0.49416092156E+03  0.00000000000E+00 0. -1.
         21   -1    0    0  501  502  0.00000000000E+00 -0.00000000000E+00 -0.76414352993E+02  0.76414352993E+02  0.00000000000E+00 0. -1.
         23    2    1    2    0    0 -0.11996906526E+03 -0.45788957874E+02  0.29947546673E+03  0.33838248344E+03  0.91257573103E+02 0.  0.
         24    2    1    2    0    0  0.49252334970E+02  0.74750333163E+01  0.73180154561E+01  0.95154839669E+02  0.80741696409E+02 0.  0.
        -11    1    4    4    0    0  0.58009634978E+02 -0.68519573924E+01 -0.21133079620E+02  0.62118226991E+02  0.00000000000E+00 0.  1.
         12    1    4    4    0    0 -0.87573000071E+01  0.14326990709E+02  0.28451095076E+02  0.33036612677E+02  0.00000000000E+00 0. -1.
        -13    1    3    3    0    0 -0.17689333836E+02  0.17266435220E+02  0.13443593414E+02  0.28138452706E+02  0.00000000000E+00 0.  1.
         13    1    3    3    0    0 -0.10227973142E+03 -0.63055393095E+02  0.28603187331E+03  0.31024403074E+03  0.00000000000E+00 0. -1.
          1    1    1    2  501    0  0.70716730285E+02  0.38313924558E+02  0.11095308639E+03  0.13703795145E+03  0.00000000000E+00 0. -1.
<scales pt_clust_5="13000.00000" pt_clust_6="13000.00000" pt_clust_7="13000.00000" pt_clust_8="13000.00000" pt_clust_9="80.42897"></scales>
<clustering>
<clus scale="   80.429">  2  9  1 -1</clus>
<clus scale="   80.742">  5  6 -1 -1</clus>
<clus scale="   91.258">  7  8 -1 -1</clus>
<clus scale="  131.652">  2  5  1 -1</clus>
<clus scale="   80.429">  2  5  1 -1</clus>
</clustering>
</event>
<event>
 9    2  0.1488992E-004  0.1047064E+03  0.7546771E-02  0.1276800E+00
         21   -1    0    0  501  502  0.00000000000E+00  0.00000000000E+00  0.28167983746E+02  0.28167983746E+02  0.00000000000E+00 0.  1.
          2   -1    0    0  502    0 -0.00000000000E+00 -0.00000000000E+00 -0.62233913260E+03  0.62233913260E+03  0.00000000000E+00 0. -1.
         24    2    1    2    0    0 -0.96860463255E+01 -0.50733512136E+02 -0.44367443903E+03  0.45370914661E+03  0.79606991686E+02 0.  0.
         23    2    1    2    0    0  0.24831759379E+02  0.30543493239E+02 -0.11174978698E+03  0.15055563505E+03  0.92894903534E+02 0.  0.
        -13    1    3    3    0    0  0.24687684259E+02 -0.16141828918E+02 -0.59066587869E+02  0.66021982683E+02  0.00000000000E+00 0.  1.
         14    1    3    3    0    0 -0.34373730584E+02 -0.34591683218E+02 -0.38460785116E+03  0.38768716393E+03  0.00000000000E+00 0. -1.
        -11    1    4    4    0    0  0.37938125089E+02  0.53290352709E+02 -0.46602871403E+02  0.80318059303E+02  0.00000000000E+00 0.  1.
         11    1    4    4    0    0 -0.13106365711E+02 -0.22746859470E+02 -0.65146915576E+02  0.70237575748E+02  0.00000000000E+00 0. -1.
          1    1    1    2  501    0 -0.15145713053E+02  0.20190018897E+02 -0.38746922847E+02  0.46242334685E+02  0.00000000000E+00 0. -1.
<scales pt_clust_5="13000.00000" pt_clust_6="13000.00000" pt_clust_7="13000.00000" pt_clust_8="13000.00000" pt_clust_9="25.23944"></scales>
<clustering>
<clus scale="   25.239">  1  9  2 -1</clus>
<clus scale="   79.607">  5  6 -1 -1</clus>
<clus scale="   92.895">  7  8 -1 -1</clus>
<clus scale="   93.120">  2  5  1 -1</clus>
<clus scale="   25.239">  1  5  2 -1</clus>
</clustering>
</event>
<event>
 9    2  0.1488992E-004  0.1264712E+03  0.7546771E-02  0.1235652E+00
         -1   -1    0    0    0  501 -0.00000000000E+00  0.00000000000E+00  0.34298395912E+03  0.34298395912E+03  0.00000000000E+00 0.  1.
         21   -1    0    0  501  502  0.00000000000E+00 -0.00000000000E+00 -0.11606195648E+03  0.11606195648E+03  0.00000000000E+00 0.  1.
         24    2    1    2    0    0 -0.75821378970E+02 -0.61014731993E+02  0.19906607078E+03  0.23554550868E+03  0.79891846219E+02 0.  0.
         23    2    1    2    0    0  0.77845632695E+02  0.16643287896E+02  0.87723442803E+02  0.14895484019E+03  0.90306148383E+02 0.  0.
        -11    1    3    3    0    0 -0.83461296020E+02 -0.39362076040E+02  0.18930068519E+03  0.21059418410E+03  0.00000000000E+00 0.  1.
         12    1    3    3    0    0  0.76399170493E+01 -0.21652655953E+02  0.97653855898E+01  0.24951324575E+02  0.00000000000E+00 0. -1.
        -11    1    4    4    0    0  0.55874079820E+02  0.50467598666E+02  0.75932157016E+02  0.10693261327E+03  0.00000000000E+00 0. -1.
         11    1    4    4    0    0  0.21971552875E+02 -0.33824310769E+02  0.11791285788E+02  0.42022226920E+02  0.00000000000E+00 0.  1.
         -2    1    1    2    0  502 -0.20242537244E+01  0.44371444097E+02 -0.59867510942E+02  0.74545566741E+02  0.00000000000E+00 0.  1.
<scales pt_clust_5="13000.00000" pt_clust_6="13000.00000" pt_clust_7="13000.00000" pt_clust_8="13000.00000" pt_clust_9="44.41759"></scales>
<clustering>
<clus scale="   44.418">  2  9  1 -1</clus>
<clus scale="   79.892">  5  6 -1 -1</clus>
<clus scale="   90.306">  7  8 -1 -1</clus>
<clus scale="  119.258">  1  5  2 -1</clus>
<clus scale="   44.418">  2  5  1 -1</clus>
</clustering>
</event>
<event>
 9    2  0.1488992E-004  0.1004432E+03  0.7546771E-02  0.1287325E+00
         21   -1    0    0  501  502  0.00000000000E+00  0.00000000000E+00  0.34824119166E+03  0.34824119166E+03  0.00000000000E+00 0.  1.
         -3   -1    0    0    0  501 -0.00000000000E+00 -0.00000000000E+00 -0.69957760064E+02  0.69957760064E+02  0.00000000000E+00 0.  1.
         24    2    1    2    0    0  0.10830286653E+01  0.46850340978E+02  0.10498448845E+01  0.92319601868E+02  0.79534139299E+02 0.  0.
         23    2    1    2    0    0  0.26326371724E+02  0.26066268187E+01  0.10141278415E+03  0.14118982252E+03  0.94605184018E+02 0.  0.
        -13    1    3    3    0    0  0.31893909266E+00  0.51782609169E+02 -0.30686599008E+02  0.60193086755E+02  0.00000000000E+00 0.  1.
         14    1    3    3    0    0  0.76408957261E+00 -0.49322681913E+01  0.31736443892E+02  0.32126515113E+02  0.00000000000E+00 0. -1.
        -13    1    4    4    0    0  0.86809045020E+01  0.42091580738E+02  0.84406175336E+02  0.94717800369E+02  0.00000000000E+00 0.  1.
         13    1    4    4    0    0  0.17645467222E+02 -0.39484953919E+02  0.17006608811E+02  0.46472022150E+02  0.00000000000E+00 0. -1.
         -4    1    1    2    0  502 -0.27409400389E+02 -0.49456967796E+02  0.17582080257E+03  0.18468952734E+03  0.00000000000E+00 0.  1.
<scales pt_clust_5="13000.00000" pt_clust_6="13000.00000" pt_clust_7="13000.00000" pt_clust_8="13000.00000" pt_clust_9="56.54438"></scales>
<clustering>
<clus scale="   56.544">  1  9  2 -1</clus>
<clus scale="   79.534">  5  6 -1 -1</clus>
<clus scale="   86.397">  2  5  1 -1</clus>
<clus scale="   94.605">  7  8 -1 -1</clus>
<clus scale="   56.544">  1  5  2 -1</clus>
</clustering>
</event>
<event>
 9    2  0.1488992E-004  0.1289011E+03  0.7546771E-02  0.1243988E+00
          2   -1    0    0  502    0 -0.00000000000E+00  0.00000000000E+00  0.43608048229E+03  0.43608048229E+03  0.00000000000E+00 0. -1.
         21   -1    0    0  501  502  0.00000000000E+00 -0.00000000000E+00 -0.63041884000E+02  0.63041884000E+02  0.00000000000E+00 0.  1.
         23    2    1    2    0    0 -0.48731830017E+01 -0.23789375330E+02  0.15695441957E+03  0.18351354291E+03  0.91939373068E+02 0.  0.
         24    2    1    2    0    0 -0.66911837157E+02 -0.58312589443E+02  0.12319188195E+03  0.17235101193E+03  0.81554150706E+02 0.  0.
        -11    1    4    4    0    0 -0.29612541164E+02 -0.27336241160E+02  0.36685904268E+00  0.40302695450E+02  0.00000000000E+00 0.  1.
         12    1    4    4    0    0 -0.37299295992E+02 -0.30976348282E+02  0.12282502290E+03  0.13204831648E+03  0.00000000000E+00 0. -1.
        -11    1    3    3    0    0  0.18676867847E+02 -0.43637660635E+02  0.14110742604E+03  0.14887705163E+03  0.00000000000E+00 0. -1.
         11    1    3    3    0    0 -0.23550050848E+02  0.19848285305E+02  0.15846993522E+02  0.34636491280E+02  0.00000000000E+00 0.  1.
          1    1    1    2  501    0  0.71785020159E+02  0.82101964773E+02  0.92892296774E+02  0.14325781144E+03  0.00000000000E+00 0. -1.
<scales pt_clust_5="13000.00000" pt_clust_6="13000.00000" pt_clust_7="13000.00000" pt_clust_8="13000.00000" pt_clust_9="99.82201"></scales>
<clustering>
<clus scale="   81.554">  5  6 -1 -1</clus>
<clus scale="   91.939">  7  8 -1 -1</clus>
<clus scale="   95.092">  1  7  2 -1</clus>
<clus scale="   99.822">  2  9  1 -1</clus>
<clus scale="   99.822">  2  5  1 -1</clus>
</clustering>
</event>
<event>
 9    2  0.1488992E-004  0.1286268E+03  0.7546771E-02  0.1250316E+00
         21   -1    0    0  501  502  0.00000000000E+00  0.00000000000E+00  0.83952005137E+02  0.83952005137E+02  0.00000000000E+00 0. -1.
          2   -1    0    0  502    0 -0.00000000000E+00 -0.00000000000E+00 -0.71523410510E+03  0.71523410510E+03  0.00000000000E+00 0. -1.
         24    2    1    2    0    0 -0.20484903535E+02  0.16163014507E+02 -0.54329456221E+02  0.10027900759E+03  0.80145587776E+02 0.  0.
         23    2    1    2    0    0 -0.60660304846E+02 -0.57775531723E+02 -0.59343186992E+03  0.60623719745E+03  0.91348074292E+02 0.  0.
        -13    1    3    3    0    0 -0.11981073870E+02  0.46133790361E+02 -0.14719067327E+02  0.49885104862E+02  0.00000000000E+00 0.  1.
         14    1    3    3    0    0 -0.85038296651E+01 -0.29970775853E+02 -0.39610388894E+02  0.50393902732E+02  0.00000000000E+00 0. -1.
        -13    1    4    4    0    0  0.24400008828E+02 -0.14298375204E+02 -0.12399222333E+03  0.12717655212E+03  0.00000000000E+00 0.  1.
         13    1    4    4    0    0 -0.85060313673E+02 -0.43477156519E+02 -0.46943964660E+03  0.47906064532E+03  0.00000000000E+00 0. -1.
          1    1    1    2  501    0  0.81145208381E+02  0.41612517216E+02  0.16479226187E+02  0.92669905190E+02  0.00000000000E+00 0. -1.
<scales pt_clust_5="13000.00000" pt_clust_6="13000.00000" pt_clust_7="13000.00000" pt_clust_8="13000.00000" pt_clust_9="90.55592"></scales>
<clustering>
<clus scale="   80.146">  5  6 -1 -1</clus>
<clus scale="   84.286">  2  5  1 -1</clus>
<clus scale="   90.556">  1  9  2 -1</clus>
<clus scale="   91.348">  7  8 -1 -1</clus>
<clus scale="   90.556">  1  5  2 -1</clus>
</clustering>
</event>
<event>
 9    2  0.1488992E-004  0.1365403E+03  0.7546771E-02  0.1220244E+00
          4   -1    0    0  502    0 -0.00000000000E+00  0.00000000000E+00  0.10269257251E+03  0.10269257251E+03  0.00000000000E+00 0. -1.
         21   -1    0    0  501  502  0.00000000000E+00 -0.00000000000E+00 -0.36107531666E+03  0.36107531666E+03  0.00000000000E+00 0. -1.
         23    2    1    2    0    0 -0.55950189416E+02 -0.83346799455E+02 -0.42927091152E+02  0.14193737009E+03  0.90699334049E+02 0.  0.
         24    2    1    2    0    0  0.10416638547E+03  0.53038437494E+02 -0.22283277603E+03  0.26440386750E+03  0.81186497414E+02 0.  0.
        -11    1    4    4    0    0  0.42759640394E+02  0.65832369961E+01 -0.15777820571E+03  0.16360222508E+03  0.00000000000E+00 0.  1.
         12    1    4    4    0    0  0.61406745080E+02  0.46455200498E+02 -0.65054570326E+02  0.10080164242E+03  0.00000000000E+00 0. -1.
        -11    1    3    3    0    0 -0.38667124095E+02 -0.12623926266E+02 -0.54722459857E+02  0.68183998218E+02  0.00000000000E+00 0. -1.
         11    1    3    3    0    0 -0.17283065321E+02 -0.70722873189E+02  0.11795368704E+02  0.73753371868E+02  0.00000000000E+00 0.  1.
          3    1    1    2  501    0 -0.48216196058E+02  0.30308361961E+02  0.73771230379E+01  0.57426651577E+02  0.00000000000E+00 0. -1.
<scales pt_clust_5="13000.00000" pt_clust_6="13000.00000" pt_clust_7="13000.00000" pt_clust_8="13000.00000" pt_clust_9="56.95087"></scales>
<clustering>
<clus scale="   56.951">  2  9  1 -1</clus>
<clus scale="   81.186">  5  6 -1 -1</clus>
<clus scale="   90.699">  7  8 -1 -1</clus>
<clus scale="  130.415">  2  5  1 -1</clus>
<clus scale="   56.951">  2  5  1 -1</clus>
</clustering>
</event>
<event>
 9    2  0.1488992E-004  0.1959101E+03  0.7546771E-02  0.1171969E+00
          2   -1    0    0  502    0 -0.00000000000E+00  0.00000000000E+00  0.10027078181E+04  0.10027078181E+04  0.00000000000E+00 0. -1.
         21   -1    0    0  501  502  0.00000000000E+00 -0.00000000000E+00 -0.17504019635E+03  0.17504019635E+03  0.00000000000E+00 0. -1.
         23    2    1    2    0    0 -0.65252201937E+02  0.62330855983E+02  0.39009466217E+03  0.41022232866E+03  0.89249806812E+02 0.  0.
         24    2    1    2    0    0 -0.20885224166E+02 -0.21584712469E+03  0.52291377294E+03  0.57189860347E+03  0.81258998824E+02 0.  0.
        -13    1    4    4    0    0 -0.34463408500E+02 -0.56004513922E+02  0.10103692251E+03  0.12055161474E+03  0.00000000000E+00 0.  1.
         14    1    4    4    0    0  0.13578184334E+02 -0.15984261077E+03  0.42187685043E+03  0.45134698873E+03  0.00000000000E+00 0. -1.
        -13    1    3    3    0    0 -0.22461880138E+02 -0.43044459836E+01  0.16184023956E+02  0.28017618492E+02  0.00000000000E+00 0. -1.
         13    1    3    3    0    0 -0.42790321799E+02  0.66635301967E+02  0.37391063821E+03  0.38220471017E+03  0.00000000000E+00 0.  1.
          1    1    1    2  501    0  0.86137426104E+02  0.15351626871E+03 -0.85340813325E+02  0.19562708236E+03  0.00000000000E+00 0. -1.
<scales pt_clust_5="13000.00000" pt_clust_6="13000.00000" pt_clust_7="13000.00000" pt_clust_8="13000.00000" pt_clust_9="178.26312"></scales>
<clustering>
<clus scale="   81.259">  5  6 -1 -1</clus>
<clus scale="   89.250">  7  8 -1 -1</clus>
<clus scale="  126.919">  1  7  2 -1</clus>
<clus scale="  178.263">  2  9  1 -1</clus>
<clus scale="  178.263">  2  5  1 -1</clus>
</clustering>
</event>
<event>
 9    2  0.1488992E-004  0.1122658E+03  0.7546771E-02  0.1259638E+00
          2   -1    0    0  502    0 -0.00000000000E+00  0.00000000000E+00  0.14586992705E+03  0.14586992705E+03  0.00000000000E+00 0. -1.
         21   -1    0    0  501  502  0.00000000000E+00 -0.00000000000E+00 -0.10909892390E+03  0.10909892390E+03  0.00000000000E+00 0. -1.
         23    2    1    2    0    0 -0.49611155638E+02  0.24451147798E+02  0.38977318557E+02  0.11469112760E+03  0.92605064637E+02 0.  0.
         24    2    1    2    0    0  0.59890257758E+02 -0.48493525725E+02 -0.27624263295E+01  0.11412423149E+03  0.84132301784E+02 0.  0.
        -11    1    4    4    0    0 -0.82223667752E+01 -0.18587979237E+02 -0.28852607421E+02  0.35292963073E+02  0.00000000000E+00 0.  1.
         12    1    4    4    0    0  0.68112624533E+02 -0.29905546488E+02  0.26090181091E+02  0.78831268422E+02  0.00000000000E+00 0. -1.
        -13    1    3    3    0    0 -0.33898443131E+02 -0.44092361458E+01  0.64556503597E+02  0.73048531585E+02  0.00000000000E+00 0.  1.
         13    1    3    3    0    0 -0.15712712507E+02  0.28860383943E+02 -0.25579185040E+02  0.41642596017E+02  0.00000000000E+00 0. -1.
          1    1    1    2  501    0 -0.10279102120E+02  0.24042377927E+02  0.55611091996E+00  0.26153491854E+02  0.00000000000E+00 0. -1.
<scales pt_clust_5="13000.00000" pt_clust_6="13000.00000" pt_clust_7="13000.00000" pt_clust_8="13000.00000" pt_clust_9="26.14758"></scales>
<clustering>
<clus scale="   26.148">  2  9  1 -1</clus>
<clus scale="   84.132">  5  6 -1 -1</clus>
<clus scale="   92.605">  7  8 -1 -1</clus>
<clus scale="  105.386">  2  5  1 -1</clus>
<clus scale="   26.148">  2  5  1 -1</clus>
</clustering>
</event>
<event>
 9    2  0.1627329E-004  0.3940537E+03  0.7546771E-02  0.1045858E+00
         -3   -1    0    0    0  501 -0.00000000000E+00  0.00000000000E+00  0.10700030832E+04  0.10700030832E+04  0.00000000000E+00 0.  1.
         21   -1    0    0  501  502  0.00000000000E+00 -0.00000000000E+00 -0.11494247135E+03  0.11494247135E+03  0.00000000000E+00 0.  1.
         24    2    1    2    0    0  0.18557914113E+03 -0.22327311334E+03  0.47663941779E+03  0.56363544885E+03  0.78799009174E+02 0.  0.
         23    2    1    2    0    0  0.19326308184E+02  0.17664095747E+01  0.13726446106E+03  0.16585497130E+03  0.91047860181E+02 0.  0.
        -11    1    3    3    0    0  0.13122274923E+03 -0.19246150601E+03  0.41477044737E+03  0.47570512423E+03  0.00000000000E+00 0.  1.
         12    1    3    3    0    0  0.54356391895E+02 -0.30811607338E+02  0.61868970419E+02  0.87930324618E+02  0.00000000000E+00 0. -1.
        -11    1    4    4    0    0  0.35704086389E+02  0.15442327079E+02  0.14919531785E+02  0.41663409356E+02  0.00000000000E+00 0. -1.
         11    1    4    4    0    0 -0.16377778205E+02 -0.13675917505E+02  0.12234492927E+03  0.12419156194E+03  0.00000000000E+00 0.  1.
         -4    1    1    2    0  502 -0.20490544931E+03  0.22150670377E+03  0.34115673299E+03  0.45545513438E+03  0.00000000000E+00 0.  1.
<scales pt_clust_5="13000.00000" pt_clust_6="13000.00000" pt_clust_7="13000.00000" pt_clust_8="13000.00000" pt_clust_9="301.74735"></scales>
<clustering>
<clus scale="   78.799">  5  6 -1 -1</clus>
<clus scale="   91.048">  7  8 -1 -1</clus>
<clus scale="   92.888">  5  7 -1 -1</clus>
<clus scale="  301.747">  2  9  1 -1</clus>
<clus scale="  301.747">  2  5  1 -1</clus>
</clustering>
</event>
<event>
 9    2  0.1488992E-004  0.8899284E+02  0.7546771E-02  0.1311729E+00
         21   -1    0    0  501  502  0.00000000000E+00  0.00000000000E+00  0.69709801364E+02  0.69709801364E+02  0.00000000000E+00 0. -1.
         -3   -1    0    0    0  501 -0.00000000000E+00 -0.00000000000E+00 -0.39709865209E+03  0.39709865209E+03  0.00000000000E+00 0.  1.
         23    2    1    2    0    0 -0.14006633733E+02  0.31405846520E+01 -0.24087739738E+03  0.25708761608E+03  0.88690882900E+02 0.  0.
         24    2    1    2    0    0 -0.55823439214E+02 -0.24335137938E+02 -0.41914055521E+01  0.99711572110E+02  0.78843987900E+02 0.  0.
        -13    1    4    4    0    0  0.10642003771E+02 -0.25218900376E+02 -0.16712762055E+02  0.32071195737E+02  0.00000000000E+00 0.  1.
         14    1    4    4    0    0 -0.66465442985E+02  0.88376243872E+00  0.12521356503E+02  0.67640376373E+02  0.00000000000E+00 0. -1.
        -11    1    3    3    0    0  0.32843713328E+02 -0.61270525313E+01 -0.48658129084E+02  0.59024264535E+02  0.00000000000E+00 0. -1.
         11    1    3    3    0    0 -0.46850347061E+02  0.92676371833E+01 -0.19221926830E+03  0.19806335154E+03  0.00000000000E+00 0.  1.
         -4    1    1    2    0  502  0.69830072946E+02  0.21194553286E+02 -0.82320047793E+02  0.11000926527E+03  0.00000000000E+00 0.  1.
<scales pt_clust_5="13000.00000" pt_clust_6="13000.00000" pt_clust_7="13000.00000" pt_clust_8="13000.00000" pt_clust_9="72.97570"></scales>
<clustering>
<clus scale="   72.976">  1  9  2 -1</clus>
<clus scale="   78.844">  5  6 -1 -1</clus>
<clus scale="   79.184">  1  5  2 -1</clus>
<clus scale="   88.691">  7  8 -1 -1</clus>
<clus scale="   72.976">  1  5  2 -1</clus>
</clustering>
</event>
<event>
 9    2  0.1488992E-004  0.1353337E+03  0.7546771E-02  0.1222785E+00
         -1   -1    0    0    0  501 -0.00000000000E+00  0.00000000000E+00  0.75567043619E+02  0.75567043619E+02  0.00000000000E+00 0.  1.
         21   -1    0    0  501  502  0.00000000000E+00 -0.00000000000E+00 -0.82271079675E+03  0.82271079675E+03  0.00000000000E+00 0. -1.
         23    2    1    2    0    0 -0.33550715603E+02  0.95090903629E+02 -0.11326133369E+02  0.13839770948E+03  0.94115430312E+02 0.  0.
         24    2    1    2    0    0 -0.31328651407E+02 -0.84614626009E+02 -0.53139966494E+03  0.54515755426E+03  0.81670286768E+02 0.  0.
        -11    1    4    4    0    0 -0.38033969938E+02 -0.18850495518E+01 -0.19365834741E+03  0.19736689642E+03  0.00000000000E+00 0.  1.
         12    1    4    4    0    0  0.67053185312E+01 -0.82729576457E+02 -0.33774131753E+03  0.34779065784E+03  0.00000000000E+00 0. -1.
        -13    1    3    3    0    0  0.42144916163E+01  0.97407921456E+02  0.39861177648E+01  0.97580501314E+02  0.00000000000E+00 0.  1.
         13    1    3    3    0    0 -0.37765207220E+02 -0.23170178270E+01 -0.15312251133E+02  0.40817208169E+02  0.00000000000E+00 0. -1.
         -2    1    1    2    0  502  0.64879367010E+02 -0.10476277620E+02 -0.20441795483E+03  0.21472257662E+03  0.00000000000E+00 0.  1.
<scales pt_clust_5="13000.00000" pt_clust_6="13000.00000" pt_clust_7="13000.00000" pt_clust_8="13000.00000" pt_clust_9="65.71974"></scales>
<clustering>
<clus scale="   65.720">  2  9  1 -1</clus>
<clus scale="   81.670">  5  6 -1 -1</clus>
<clus scale="   94.115">  7  8 -1 -1</clus>
<clus scale="  126.994">  2  5  1 -1</clus>
<clus scale="   65.720">  2  5  1 -1</clus>
</clustering>
</event>
<event>
 9    2  0.1488992E-004  0.9044979E+02  0.7546771E-02  0.1306604E+00
          2   -1    0    0  502    0 -0.00000000000E+00  0.00000000000E+00  0.84620424013E+03  0.84620424013E+03  0.00000000000E+00 0. -1.
         21   -1    0    0  501  502  0.00000000000E+00 -0.00000000000E+00 -0.35037486769E+02  0.35037486769E+02  0.00000000000E+00 0.  1.
         24    2    1    2    0    0 -0.30128482336E+02 -0.33323144420E+02  0.54843748802E+03  0.55597097855E+03  0.79384465188E+02 0.  0.
         23    2    1    2    0    0  0.74009366945E+02 -0.36869621544E+02  0.16561707428E+03  0.19766458048E+03  0.69321826965E+02 0.  0.
        -13    1    3    3    0    0 -0.50086742524E+02 -0.45459688130E+02  0.39035692847E+03  0.39617394743E+03  0.00000000000E+00 0.  1.
         14    1    3    3    0    0  0.19958260188E+02  0.12136543710E+02  0.15808055956E+03  0.15979703112E+03  0.00000000000E+00 0. -1.
        -11    1    4    4    0    0  0.28834333968E+02  0.77908495596E+00  0.11949935631E+03  0.12293137088E+03  0.00000000000E+00 0.  1.
         11    1    4    4    0    0  0.45175032977E+02 -0.37648706500E+02  0.46117717974E+02  0.74733209597E+02  0.00000000000E+00 0. -1.
          1    1    1    2  501    0 -0.43880884609E+02  0.70192765964E+02  0.97112191054E+02  0.12760616787E+03  0.00000000000E+00 0. -1.
<scales pt_clust_5="13000.00000" pt_clust_6="13000.00000" pt_clust_7="13000.00000" pt_clust_8="13000.00000" pt_clust_9="82.78017"></scales>
<clustering>
<clus scale="   69.322">  7  8 -1 -1</clus>
<clus scale="   79.384">  5  6 -1 -1</clus>
<clus scale="   82.780">  2  9  1 -1</clus>
<clus scale="   82.780">  2  7  1 -1</clus>
<clus scale="   82.780">  2  5  1 -1</clus>
</clustering>
</event>
<event>
 9    2  0.1488992E-004  0.1295609E+03  0.7546771E-02  0.1245056E+00
         21   -1    0    0  501  502  0.00000000000E+00  0.00000000000E+00  0.26078758651E+03  0.26078758651E+03  0.00000000000E+00 0.  1.
         -1   -1    0    0    0  501 -0.00000000000E+00 -0.00000000000E+00 -0.56282290611E+03  0.56282290611E+03  0.00000000000E+00 0.  1.
         24    2    1    2    0    0 -0.40302700341E+02 -0.25509598282E+02 -0.34253428525E+03  0.35458405388E+03  0.78262810019E+02 0.  0.
         23    2    1    2    0    0 -0.47869292551E+02 -0.85911258762E+01 -0.19211062247E+03  0.21794003886E+03  0.90697809554E+02 0.  0.
        -11    1    3    3    0    0 -0.58238903555E+02 -0.12483209922E+02 -0.30683298974E+03  0.31256052855E+03  0.00000000000E+00 0.  1.
         12    1    3    3    0    0  0.17936203213E+02 -0.13026388360E+02 -0.35701295513E+02  0.42023525325E+02  0.00000000000E+00 0. -1.
        -11    1    4    4    0    0 -0.22648253500E+02  0.40971779804E+02 -0.98450728474E+02  0.10901456813E+03  0.00000000000E+00 0.  1.
         11    1    4    4    0    0 -0.25221039051E+02 -0.49562905680E+02 -0.93659893998E+02  0.10892547073E+03  0.00000000000E+00 0. -1.
         -2    1    1    2    0  502  0.88171992893E+02  0.34100724158E+02  0.23260958813E+03  0.25108639989E+03  0.00000000000E+00 0.  1.
<scales pt_clust_5="13000.00000" pt_clust_6="13000.00000" pt_clust_7="13000.00000" pt_clust_8="13000.00000" pt_clust_9="92.51992"></scales>
<clustering>
<clus scale="   78.263">  5  6 -1 -1</clus>
<clus scale="   90.698">  7  8 -1 -1</clus>
<clus scale="   91.652">  2  5  1 -1</clus>
<clus scale="   92.520">  1  9  2 -1</clus>
<clus scale="   92.520">  1  5  2 -1</clus>
</clustering>
</event>
<event>
 9    2  0.1488992E-004  0.1166785E+03  0.7546771E-02  0.1250418E+00
         21   -1    0    0  501  502  0.00000000000E+00  0.00000000000E+00  0.15860381289E+02  0.15860381289E+02  0.00000000000E+00 0. -1.
          2   -1    0    0  502    0 -0.00000000000E+00 -0.00000000000E+00 -0.16393041324E+04  0.16393041324E+04  0.00000000000E+00 0. -1.
         24    2    1    2    0    0 -0.36967725953E+02 -0.95440865222E+02 -0.91975554327E+03  0.92895970003E+03  0.80872080358E+02 0.  0.
         23    2    1    2    0    0  0.34693365075E+02  0.23284162831E+02 -0.26960382546E+03  0.28615820994E+03  0.86339542483E+02 0.  0.
        -13    1    3    3    0    0 -0.21382391251E+02  0.51302710443E+01 -0.76899205699E+02  0.79981336409E+02  0.00000000000E+00 0.  1.
         14    1    3    3    0    0 -0.15585334702E+02 -0.10057113627E+03 -0.84285633757E+03  0.84897836362E+03  0.00000000000E+00 0. -1.
        -13    1    4    4    0    0  0.56979619185E+01  0.53629058443E+02 -0.15424089054E+03  0.16339765909E+03  0.00000000000E+00 0.  1.
         13    1    4    4    0    0  0.28995403157E+02 -0.30344895612E+02 -0.11536293492E+03  0.12276055086E+03  0.00000000000E+00 0. -1.
          1    1    1    2  501    0  0.22743608785E+01  0.72156702391E+02 -0.43408438241E+03  0.44004660375E+03  0.00000000000E+00 0. -1.
<scales pt_clust_5="13000.00000" pt_clust_6="13000.00000" pt_clust_7="13000.00000" pt_clust_8="13000.00000" pt_clust_9="72.19257"></scales>
<clustering>
<clus scale="   72.193">  1  9  2 -1</clus>
<clus scale="   80.872">  5  6 -1 -1</clus>
<clus scale="   86.340">  7  8 -1 -1</clus>
<clus scale="  112.693">  2  5  1 -1</clus>
<clus scale="   72.193">  1  5  2 -1</clus>
</clustering>
</event>
<event>
 9    2  0.1488992E-004  0.1013434E+03  0.7546771E-02  0.1277972E+00
          2   -1    0    0  502    0 -0.00000000000E+00  0.00000000000E+00  0.15618398442E+02  0.15618398442E+02  0.00000000000E+00 0. -1.
         21   -1    0    0  501  502  0.00000000000E+00 -0.00000000000E+00 -0.18579628996E+04  0.18579628996E+04  0.00000000000E+00 0. -1.
         23    2    1    2    0    0  0.23579830108E+02 -0.46945169327E+02 -0.30776288233E+03  0.32534341825E+03  0.91490386090E+02 0.  0.
         24    2    1    2    0    0 -0.46070735946E+02 -0.31327518784E+02 -0.11539659318E+04  0.11590068998E+04  0.92497005148E+02 0.  0.
        -13    1    4    4    0    0 -0.88825880589E+00 -0.27114242181E+02 -0.88259310242E+02  0.92334592527E+02  0.00000000000E+00 0.  1.
         14    1    4    4    0    0 -0.45182477141E+02 -0.42132766029E+01 -0.10657066216E+04  0.10666723073E+04  0.00000000000E+00 0. -1.
        -11    1    3    3    0    0 -0.27475245622E+02 -0.27787798281E+02 -0.20810195540E+03  0.21173916666E+03  0.00000000000E+00 0.  1.
         11    1    3    3    0    0  0.51055075729E+02 -0.19157371046E+02 -0.99660926924E+02  0.11360425159E+03  0.00000000000E+00 0. -1.
          1    1    1    2  501    0  0.22490905838E+02  0.78272688111E+02 -0.38061568706E+03  0.38923097999E+03  0.00000000000E+00 0. -1.
<scales pt_clust_5="13000.00000" pt_clust_6="13000.00000" pt_clust_7="13000.00000" pt_clust_8="13000.00000" pt_clust_9="81.43992"></scales>
<clustering>
<clus scale="   81.440">  2  9  1 -1</clus>
<clus scale="   91.490">  7  8 -1 -1</clus>
<clus scale="   92.497">  5  6 -1 -1</clus>
<clus scale="  100.426">  1  7  2 -1</clus>
<clus scale="   81.440">  2  5  1 -1</clus>
</clustering>
</event>
<event>
 9    2  0.1488992E-004  0.1071779E+03  0.7546771E-02  0.1269858E+00
         -3   -1    0    0    0  501 -0.00000000000E+00  0.00000000000E+00  0.97258970703E+02  0.97258970703E+02  0.00000000000E+00 0.  1.
         21   -1    0    0  501  502  0.00000000000E+00 -0.00000000000E+00 -0.26788833525E+03  0.26788833525E+03  0.00000000000E+00 0.  1.
         23    2    1    2    0    0  0.72927322608E+02 -0.52572656131E+02 -0.16152459173E+02  0.12873147460E+03  0.90711697480E+02 0.  0.
         24    2    1    2    0    0 -0.29433736146E+02 -0.24936040485E+02 -0.71776118624E+02  0.11501274143E+03  0.81166301797E+02 0.  0.
        -13    1    4    4    0    0 -0.24034676489E+02  0.25784609649E+02 -0.45735022201E+02  0.57742566833E+02  0.00000000000E+00 0.  1.
         14    1    4    4    0    0 -0.53990596564E+01 -0.50720650134E+02 -0.26041096423E+02  0.57270174595E+02  0.00000000000E+00 0. -1.
        -13    1    3    3    0    0  0.37343552305E+02 -0.21768186176E+02  0.37597138113E+02  0.57288215389E+02  0.00000000000E+00 0.  1.
         13    1    3    3    0    0  0.35583770303E+02 -0.30804469955E+02 -0.53749597286E+02  0.71443259211E+02  0.00000000000E+00 0. -1.
         -4    1    1    2    0  502 -0.43493586462E+02  0.77508696615E+02 -0.82700786745E+02  0.12140308992E+03  0.00000000000E+00 0.  1.
<scales pt_clust_5="13000.00000" pt_clust_6="13000.00000" pt_clust_7="13000.00000" pt_clust_8="13000.00000" pt_clust_9="88.87795"></scales>
<clustering>
<clus scale="   81.166">  5  6 -1 -1</clus>
<clus scale="   88.878">  2  9  1 -1</clus>
<clus scale="   90.712">  7  8 -1 -1</clus>
<clus scale="   99.229">  2  5  1 -1</clus>
<clus scale="   88.878">  2  5  1 -1</clus>
</clustering>
</event>
<event>
 9    2  0.1488992E-004  0.1467766E+03  0.7546771E-02  0.1207850E+00
         -1   -1    0    0    0  501 -0.00000000000E+00  0.00000000000E+00  0.88204269131E+02  0.88204269131E+02  0.00000000000E+00 0.  1.
         21   -1    0    0  501  502  0.00000000000E+00 -0.00000000000E+00 -0.66873493030E+03  0.66873493030E+03  0.00000000000E+00 0. -1.
         24    2    1    2    0    0 -0.47503451704E+02 -0.10226812564E+03 -0.58780741498E+02  0.14661465369E+03  0.72974883763E+02 0.  0.
         23    2    1    2    0    0  0.15242393629E+03  0.56583003550E+02 -0.41042738276E+03  0.45067447311E+03  0.90676080347E+02 0.  0.
        -13    1    3    3    0    0 -0.32662238653E+02 -0.72995631671E+02 -0.75326338543E+02  0.10986009901E+03  0.00000000000E+00 0.  1.
         14    1    3    3    0    0 -0.14841213051E+02 -0.29272493971E+02  0.16545597045E+02  0.36754554680E+02  0.00000000000E+00 0. -1.
        -13    1    4    4    0    0  0.58690910093E+02  0.70064661488E+02 -0.19551519066E+03  0.21582370003E+03  0.00000000000E+00 0.  1.
         13    1    4    4    0    0  0.93733026200E+02 -0.13481657938E+02 -0.21491219210E+03  0.23485077307E+03  0.00000000000E+00 0. -1.
         -2    1    1    2    0  502 -0.10492048459E+03  0.45685122092E+02 -0.11132253692E+03  0.15965007263E+03  0.00000000000E+00 0.  1.
<scales pt_clust_5="13000.00000" pt_clust_6="13000.00000" pt_clust_7="13000.00000" pt_clust_8="13000.00000" pt_clust_9="114.43536"></scales>
<clustering>
<clus scale="   72.975">  5  6 -1 -1</clus>
<clus scale="   90.676">  7  8 -1 -1</clus>
<clus scale="  114.435">  2  9  1 -1</clus>
<clus scale="  136.552">  1  5  2 -1</clus>
<clus scale="  114.435">  2  5  1 -1</clus>
</clustering>
</event>
<event>
 9    2  0.1488992E-004  0.2754016E+03  0.7546771E-02  0.1098720E+00
         21   -1    0    0  501  502  0.00000000000E+00  0.00000000000E+00  0.72044449048E+02  0.72044449048E+02  0.00000000000E+00 0. -1.
          2   -1    0    0  502    0 -0.00000000000E+00 -0.00000000000E+00 -0.15975531301E+04  0.15975531301E+04  0.00000000000E+00 0. -1.
         23    2    1    2    0    0  0.22295726182E+02 -0.21355945030E+03 -0.38560854924E+03  0.45064516553E+03  0.91007547779E+02 0.  0.
         24    2    1    2    0    0 -0.79712965674E+02  0.29747064959E+03 -0.72410740981E+03  0.79090870506E+03  0.79762739113E+02 0.  0.
        -13    1    4    4    0    0 -0.56704703282E+02  0.10275714772E+03 -0.33938714410E+03  0.35910734936E+03  0.00000000000E+00 0.  1.
         14    1    4    4    0    0 -0.23008262391E+02  0.19471350186E+03 -0.38472026571E+03  0.43180135571E+03  0.00000000000E+00 0. -1.
        -13    1    3    3    0    0  0.49114563964E+02 -0.61098347006E+02 -0.12707618164E+03  0.14931042945E+03  0.00000000000E+00 0.  1.
         13    1    3    3    0    0 -0.26818837782E+02 -0.15246110329E+03 -0.25853236760E+03  0.30133473609E+03  0.00000000000E+00 0. -1.
          1    1    1    2  501    0  0.57417239492E+02 -0.83911199288E+02 -0.41579272203E+03  0.42804370858E+03  0.00000000000E+00 0. -1.
<scales pt_clust_5="13000.00000" pt_clust_6="13000.00000" pt_clust_7="13000.00000" pt_clust_8="13000.00000" pt_clust_9="101.67516"></scales>
<clustering>
<clus scale="   79.763">  5  6 -1 -1</clus>
<clus scale="   91.008">  7  8 -1 -1</clus>
<clus scale="  101.675">  1  9  2 -1</clus>
<clus scale="  271.893">  1  5  2 -1</clus>
<clus scale="  101.675">  1  5  2 -1</clus>
</clustering>
</event>
<event>
 9    2  0.1488992E-004  0.1321611E+03  0.7546771E-02  0.1236332E+00
          2   -1    0    0  502    0 -0.00000000000E+00  0.00000000000E+00  0.10326171253E+03  0.10326171253E+03  0.00000000000E+00 0. -1.
         21   -1    0    0  501  502  0.00000000000E+00 -0.00000000000E+00 -0.27184178938E+03  0.27184178938E+03  0.00000000000E+00 0.  1.
         24    2    1    2    0    0 -0.66404531892E+02  0.15317272578E+02 -0.50453196707E+02  0.11475209163E+03  0.77319704996E+02 0.  0.
         23    2    1    2    0    0  0.32548734962E+01  0.71801165571E+02 -0.40041215666E+02  0.12740453135E+03  0.97275968655E+02 0.  0.
        -11    1    3    3    0    0 -0.65415799163E+02  0.40976448772E+02 -0.40884727896E+02  0.87349053282E+02  0.00000000000E+00 0.  1.
         12    1    3    3    0    0 -0.98873272902E+00 -0.25659176194E+02 -0.95684688113E+01  0.27403038349E+02  0.00000000000E+00 0. -1.
        -11    1    4    4    0    0  0.21325168505E+02  0.20540027020E+02 -0.62059843551E+02  0.68761033321E+02  0.00000000000E+00 0.  1.
         11    1    4    4    0    0 -0.18070295009E+02  0.51261138551E+02  0.22018627885E+02  0.58643498030E+02  0.00000000000E+00 0. -1.
          1    1    1    2  501    0  0.63149658396E+02 -0.87118438149E+02 -0.78085664468E+02  0.13294687893E+03  0.00000000000E+00 0. -1.
<scales pt_clust_5="13000.00000" pt_clust_6="13000.00000" pt_clust_7="13000.00000" pt_clust_8="13000.00000" pt_clust_9="89.46475"></scales>
<clustering>
<clus scale="   77.320">  5  6 -1 -1</clus>
<clus scale="   97.276">  7  8 -1 -1</clus>
<clus scale="  103.066">  1  5  2 -1</clus>
<clus scale="   89.465">  2  9  1 -1</clus>
<clus scale="   89.465">  2  5  1 -1</clus>
</clustering>
</event>
<event>
 9    2  0.1488992E-004  0.1140514E+03  0.7546771E-02  0.1261705E+00
         21   -1    0    0  501  502  0.00000000000E+00  0.00000000000E+00  0.56608114518E+02  0.56608114518E+02  0.00000000000E+00 0. -1.
          2   -1    0    0  502    0 -0.00000000000E+00 -0.00000000000E+00 -0.55359223727E+03  0.55359223727E+03  0.00000000000E+00 0. -1.
         24    2    1    2    0    0  0.31408015372E+02 -0.36523548446E+02 -0.21713944473E+03  0.23762307997E+03  0.83634661819E+02 0.  0.
         23    2    1    2    0    0  0.24376404634E+02 -0.48472327238E+02 -0.45150079615E+02  0.11680832350E+03  0.93069216928E+02 0.  0.
        -13    1    3    3    0    0 -0.19365544897E+02  0.12169944428E+02 -0.30191554029E+02  0.37876929802E+02  0.00000000000E+00 0.  1.
         14    1    3    3    0    0  0.50773560269E+02 -0.48693492874E+02 -0.18694789070E+03  0.19974615017E+03  0.00000000000E+00 0. -1.
        -13    1    4    4    0    0 -0.22243784598E+02 -0.47465193798E+01  0.16426024167E+02  0.28055831291E+02  0.00000000000E+00 0. -1.
         13    1    4    4    0    0  0.46620189233E+02 -0.43725807858E+02 -0.61576103782E+02  0.88752492212E+02  0.00000000000E+00 0.  1.
          1    1    1    2  501    0 -0.55784420006E+02  0.84995875684E+02 -0.23469459840E+03  0.25576894831E+03  0.00000000000E+00 0. -1.
<scales pt_clust_5="13000.00000" pt_clust_6="13000.00000" pt_clust_7="13000.00000" pt_clust_8="13000.00000" pt_clust_9="65.92310"></scales>
<clustering>
<clus scale="   83.635">  5  6 -1 -1</clus>
<clus scale="   93.069">  7  8 -1 -1</clus>
<clus scale="   96.515">  2  5  1 -1</clus>
<clus scale="   65.923">  1  9  2 -1</clus>
<clus scale="   65.923">  1  5  2 -1</clus>
</clustering>
</event>
<event>
 9    2  0.1488992E-004  0.1712293E+03  0.7546771E-02  0.1195295E+00
          2   -1    0    0  502    0 -0.00000000000E+00  0.00000000000E+00  0.35585866313E+03  0.35585866313E+03  0.00000000000E+00 0. -1.
         21   -1    0    0  501  502  0.00000000000E+00 -0.00000000000E+00 -0.15703843877E+03  0.15703843877E+03  0.00000000000E+00 0. -1.
         24    2    1    2    0    0  0.61295123963E+02  0.50976643877E+02 -0.18040194109E+02  0.11432009523E+03  0.79924496421E+02 0.  0.
         23    2    1    2    0    0 -0.86023097763E+02 -0.17092806078E+03  0.14424247259E+03  0.25619308493E+03  0.90623565118E+02 0.  0.
        -13    1    3    3    0    0  0.19367728325E+02  0.39191788849E+02 -0.45289086227E+02  0.62946060599E+02  0.00000000000E+00 0.  1.
         14    1    3    3    0    0  0.41927395637E+02  0.11784855029E+02  0.27248892118E+02  0.51374034635E+02  0.00000000000E+00 0. -1.
        -13    1    4    4    0    0 -0.45881867199E+02 -0.62867083315E+02  0.87836133111E+01  0.78323481568E+02  0.00000000000E+00 0.  1.
         13    1    4    4    0    0 -0.40141230565E+02 -0.10806097747E+03  0.13545885928E+03  0.17786960336E+03  0.00000000000E+00 0. -1.
          1    1    1    2  501    0  0.24727973800E+02  0.11995141691E+03  0.72617945882E+02  0.14238392174E+03  0.00000000000E+00 0. -1.
<scales pt_clust_5="13000.00000" pt_clust_6="13000.00000" pt_clust_7="13000.00000" pt_clust_8="13000.00000" pt_clust_9="145.28193"></scales>
<clustering>
<clus scale="   79.924">  5  6 -1 -1</clus>
<clus scale="   90.624">  7  8 -1 -1</clus>
<clus scale="  112.888">  1  5  2 -1</clus>
<clus scale="  145.282">  2  9  1 -1</clus>
<clus scale="  145.282">  2  5  1 -1</clus>
</clustering>
</event>
<event>
 9    2  0.1488992E-004  0.1537926E+03  0.7546771E-02  0.1198323E+00
          2   -1    0    0  502    0 -0.00000000000E+00  0.00000000000E+00  0.23205453044E+03  0.23205453044E+03  0.00000000000E+00 0. -1.
         21   -1    0    0  501  502  0.00000000000E+00 -0.00000000000E+00 -0.29669425919E+03  0.29669425919E+03  0.00000000000E+00 0.  1.
         23    2    1    2    0    0  0.54920493932E+02  0.11052438129E+03  0.17476087548E+03  0.23360505977E+03  0.93797978857E+02 0.  0.
         24    2    1    2    0    0 -0.21905791385E+02 -0.11170167152E+03 -0.20108534891E+03  0.24455306484E+03  0.80085934213E+02 0.  0.
        -11    1    4    4    0    0 -0.42162549001E+02 -0.44382836199E+02 -0.13426743477E+03  0.14756442907E+03  0.00000000000E+00 0.  1.
         12    1    4    4    0    0  0.20256757616E+02 -0.67318835320E+02 -0.66817914146E+02  0.96988635771E+02  0.00000000000E+00 0. -1.
        -13    1    3    3    0    0 -0.72952645166E+00  0.92418695319E+02  0.13194303399E+03  0.16109224584E+03  0.00000000000E+00 0. -1.
         13    1    3    3    0    0  0.55650020384E+02  0.18105685973E+02  0.42817841492E+02  0.72512813925E+02  0.00000000000E+00 0.  1.
          1    1    1    2  501    0 -0.33014702547E+02  0.11772902256E+01 -0.38315255318E+02  0.50590665015E+02  0.00000000000E+00 0. -1.
<scales pt_clust_5="13000.00000" pt_clust_6="13000.00000" pt_clust_7="13000.00000" pt_clust_8="13000.00000" pt_clust_9="33.03569"></scales>
<clustering>
<clus scale="   33.036">  2  9  1 -1</clus>
<clus scale="   80.086">  5  6 -1 -1</clus>
<clus scale="   93.798">  7  8 -1 -1</clus>
<clus scale="  145.835">  2  5  1 -1</clus>
<clus scale="   33.036">  2  5  1 -1</clus>
</clustering>
</event>
<event>
 9    2  0.1488992E-004  0.1333895E+03  0.7546771E-02  0.1224946E+00
         21   -1    0    0  501  502  0.00000000000E+00  0.00000000000E+00  0.32426797991E+02  0.32426797991E+02  0.00000000000E+00 0.  1.
          2   -1    0    0  502    0 -0.00000000000E+00 -0.00000000000E+00 -0.12963710413E+04  0.12963710413E+04  0.00000000000E+00 0. -1.
         24    2    1    2    0    0  0.29915003517E+02 -0.12131581107E+03 -0.50119112975E+03  0.52269788029E+03  0.80050559466E+02 0.  0.
         23    2    1    2    0    0 -0.50618256992E+02  0.37962180514E+02 -0.14336999610E+03  0.18079051670E+03  0.90149431821E+02 0.  0.
        -13    1    3    3    0    0  0.50343583554E+02 -0.75476843330E+02 -0.23678435435E+03  0.25357062280E+03  0.00000000000E+00 0.  1.
         14    1    3    3    0    0 -0.20428580037E+02 -0.45838967740E+02 -0.26440677540E+03  0.26912725749E+03  0.00000000000E+00 0. -1.
        -11    1    4    4    0    0 -0.76159691882E+02  0.19759766771E+02 -0.99116199017E+02  0.12654946842E+03  0.00000000000E+00 0.  1.
         11    1    4    4    0    0  0.25541434890E+02  0.18202413744E+02 -0.44253797081E+02  0.54241048279E+02  0.00000000000E+00 0. -1.
          1    1    1    2  501    0  0.20703253474E+02  0.83353630556E+02 -0.61938311743E+03  0.62530944227E+03  0.00000000000E+00 0. -1.
<scales pt_clust_5="13000.00000" pt_clust_6="13000.00000" pt_clust_7="13000.00000" pt_clust_8="13000.00000" pt_clust_9="85.88632"></scales>
<clustering>
<clus scale="   80.051">  5  6 -1 -1</clus>
<clus scale="   85.886">  1  9  2 -1</clus>
<clus scale="   90.149">  7  8 -1 -1</clus>
<clus scale="  126.783">  2  5  1 -1</clus>
<clus scale="   85.886">  1  5  2 -1</clus>
</clustering>
</event>
<event>
 9    2  0.1488992E-004  0.1493969E+03  0.7546771E-02  0.1218970E+00
         21   -1    0    0  501  502  0.00000000000E+00  0.00000000000E+00  0.14350824727E+03  0.14350824727E+03  0.00000000000E+00 0.  1.
         -1   -1    0    0    0  501 -0.00000000000E+00 -0.00000000000E+00 -0.31470867061E+03  0.31470867061E+03  0.00000000000E+00 0.  1.
         24    2    1    2    0    0  0.51038606037E+02 -0.50091149680E+02 -0.82849677502E+02  0.13161169225E+03  0.73099287903E+02 0.  0.
         23    2    1    2    0    0 -0.26232975126E+02 -0.10121845806E+03  0.16256939164E+02  0.14099088221E+03  0.93170787045E+02 0.  0.
        -13    1    3    3    0    0  0.69540328366E+02 -0.40567754069E+02 -0.58138023025E+02  0.99305738307E+02  0.00000000000E+00 0.  1.
         14    1    3    3    0    0 -0.18501722329E+02 -0.95233956106E+01 -0.24711654477E+02  0.32305953942E+02  0.00000000000E+00 0. -1.
        -13    1    4    4    0    0 -0.14417909516E+01 -0.11200514074E+03  0.19709313081E+02  0.11373516315E+03  0.00000000000E+00 0.  1.
         13    1    4    4    0    0 -0.24791184174E+02  0.10786682679E+02 -0.34523739171E+01  0.27255719063E+02  0.00000000000E+00 0. -1.
         -2    1    1    2    0  502 -0.24805630911E+02  0.15130960774E+03 -0.10460768500E+03  0.18561434342E+03  0.00000000000E+00 0.  1.
<scales pt_clust_5="13000.00000" pt_clust_6="13000.00000" pt_clust_7="13000.00000" pt_clust_8="13000.00000" pt_clust_9="116.78464"></scales>
<clustering>
<clus scale="   73.099">  5  6 -1 -1</clus>
<clus scale="   93.171">  7  8 -1 -1</clus>
<clus scale="  102.262">  2  5  1 -1</clus>
<clus scale="  116.785">  1  9  2 -1</clus>
<clus scale="  116.785">  1  5  2 -1</clus>
</clustering>
</event>
<event>
 9    2  0.1488992E-004  0.1028134E+03  0.7546771E-02  0.1277827E+00
         21   -1    0    0  501  502  0.00000000000E+00  0.00000000000E+00  0.86776850346E+02  0.86776850346E+02  0.00000000000E+00 0.  1.
          2   -1    0    0  502    0 -0.00000000000E+00 -0.00000000000E+00 -0.29981104272E+03  0.29981104272E+03  0.00000000000E+00 0. -1.
         24    2    1    2    0    0 -0.17531879289E+02 -0.44782435198E+02 -0.19241251037E+03  0.21461052917E+03  0.81989461457E+02 0.  0.
         23    2    1    2    0    0  0.32325382084E+02  0.60979769645E+02  0.29962296805E+02  0.11684171046E+03  0.89391182114E+02 0.  0.
        -11    1    3    3    0    0  0.23166701135E+02 -0.23171346594E+02 -0.14436795306E+03  0.14803956638E+03  0.00000000000E+00 0.  1.
         12    1    3    3    0    0 -0.40698580424E+02 -0.21611088604E+02 -0.48044557312E+02  0.66570962788E+02  0.00000000000E+00 0. -1.
        -11    1    4    4    0    0 -0.21035930585E+02  0.51786574033E+02  0.20741077040E+01  0.55934439735E+02  0.00000000000E+00 0. -1.
         11    1    4    4    0    0  0.53361312669E+02  0.91931956112E+01  0.27888189101E+02  0.60907270721E+02  0.00000000000E+00 0.  1.
          1    1    1    2  501    0 -0.14793502795E+02 -0.16197334447E+02 -0.50583978809E+02  0.55135653440E+02  0.00000000000E+00 0. -1.
<scales pt_clust_5="13000.00000" pt_clust_6="13000.00000" pt_clust_7="13000.00000" pt_clust_8="13000.00000" pt_clust_9="21.93631"></scales>
<clustering>
<clus scale="   21.936">  1  9  2 -1</clus>
<clus scale="   81.989">  5  6 -1 -1</clus>
<clus scale="   89.391">  7  8 -1 -1</clus>
<clus scale="   96.447">  2  5  1 -1</clus>
<clus scale="   21.936">  1  5  2 -1</clus>
</clustering>
</event>
<event>
 9    2  0.1488992E-004  0.1283790E+03  0.7546771E-02  0.1232389E+00
          2   -1    0    0  502    0 -0.00000000000E+00  0.00000000000E+00  0.21714967191E+03  0.21714967191E+03  0.00000000000E+00 0. -1.
         21   -1    0    0  501  502  0.00000000000E+00 -0.00000000000E+00 -0.24504028457E+03  0.24504028457E+03  0.00000000000E+00 0.  1.
         24    2    1    2    0    0  0.84716578476E+02 -0.44654498849E+02  0.14676124077E+03  0.19270412523E+03  0.80156691257E+02 0.  0.
         23    2    1    2    0    0 -0.76431910218E+02  0.23070981238E+02 -0.31035297314E+02  0.12402037435E+03  0.89686991814E+02 0.  0.
        -13    1    3    3    0    0  0.36548742898E+02  0.15909366781E+02  0.21031946454E+02  0.45069516643E+02  0.00000000000E+00 0.  1.
         14    1    3    3    0    0  0.48167835578E+02 -0.60563865630E+02  0.12572929431E+03  0.14763460859E+03  0.00000000000E+00 0. -1.
        -13    1    4    4    0    0 -0.33828182929E+02  0.38305275669E+02  0.20836151395E+02  0.55188633878E+02  0.00000000000E+00 0. -1.
         13    1    4    4    0    0 -0.42603727289E+02 -0.15234294432E+02 -0.51871448709E+02  0.68831740476E+02  0.00000000000E+00 0.  1.
          1    1    1    2  501    0 -0.82846682572E+01  0.21583517611E+02 -0.14361655611E+03  0.14546545689E+03  0.00000000000E+00 0. -1.
<scales pt_clust_5="13000.00000" pt_clust_6="13000.00000" pt_clust_7="13000.00000" pt_clust_8="13000.00000" pt_clust_9="23.11891"></scales>
<clustering>
<clus scale="   23.119">  2  9  1 -1</clus>
<clus scale="   80.157">  5  6 -1 -1</clus>
<clus scale="   89.687">  7  8 -1 -1</clus>
<clus scale="  121.912">  1  5  2 -1</clus>
<clus scale="   23.119">  2  5  1 -1</clus>
</clustering>
</event>
<event>
 9    2  0.1488992E-004  0.1049666E+03  0.7546771E-02  0.1277039E+00
         21   -1    0    0  501  502  0.00000000000E+00  0.00000000000E+00  0.19434664136E+03  0.19434664136E+03  0.00000000000E+00 0.  1.
          2   -1    0    0  502    0 -0.00000000000E+00 -0.00000000000E+00 -0.26491265842E+03  0.26491265842E+03  0.00000000000E+00 0. -1.
         24    2    1    2    0    0 -0.30041639342E+02  0.31932775334E+02 -0.13599002171E+03  0.16317039495E+03  0.78797776291E+02 0.  0.
         23    2    1    2    0    0  0.15050219407E+02 -0.10707351121E+03  0.13197319138E+03  0.19460162920E+03  0.93603551955E+02 0.  0.
        -13    1    3    3    0    0 -0.38225880064E+02  0.54229347236E+02 -0.97163528900E+02  0.11765539238E+03  0.00000000000E+00 0.  1.
         14    1    3    3    0    0  0.81842407220E+01 -0.22296571902E+02 -0.38826492805E+02  0.45515002563E+02  0.00000000000E+00 0. -1.
        -11    1    4    4    0    0  0.32764524548E+02 -0.11782097902E+03  0.11248804937E+03  0.16615913582E+03  0.00000000000E+00 0.  1.
         11    1    4    4    0    0 -0.17714305140E+02  0.10747467804E+02  0.19485142011E+02  0.28442493386E+02  0.00000000000E+00 0. -1.
          1    1    1    2  501    0  0.14991419934E+02  0.75140735879E+02 -0.66549186731E+02  0.10148727563E+03  0.00000000000E+00 0. -1.
<scales pt_clust_5="13000.00000" pt_clust_6="13000.00000" pt_clust_7="13000.00000" pt_clust_8="13000.00000" pt_clust_9="76.62166"></scales>
<clustering>
<clus scale="   76.622">  1  9  2 -1</clus>
<clus scale="   78.798">  5  6 -1 -1</clus>
<clus scale="   92.008">  2  5  1 -1</clus>
<clus scale="   93.604">  7  8 -1 -1</clus>
<clus scale="   76.622">  1  5  2 -1</clus>
</clustering>
</event>
<event>
 9    2  0.1488992E-004  0.1140614E+03  0.7546771E-02  0.1258124E+00
         -3   -1    0    0    0  501 -0.00000000000E+00  0.00000000000E+00  0.26083174815E+03  0.26083174815E+03  0.00000000000E+00 0.  1.
         21   -1    0    0  501  502  0.00000000000E+00 -0.00000000000E+00 -0.10567957935E+03  0.10567957935E+03  0.00000000000E+00 0. -1.
         24    2    1    2    0    0 -0.62522390070E+02  0.12921317231E+02  0.81368657408E+02  0.13262089443E+03  0.83014658530E+02 0.  0.
         23    2    1    2    0    0  0.54149393999E+02  0.57770169630E+02  0.98428153981E+02  0.15855948467E+03  0.95830367394E+02 0.  0.
        -11    1    3    3    0    0  0.17777306399E+02 -0.97474944126E+01  0.23723048608E+02  0.31206238245E+02  0.00000000000E+00 0.  1.
         12    1    3    3    0    0 -0.80299696469E+02  0.22668811644E+02  0.57645608799E+02  0.10141465618E+03  0.00000000000E+00 0. -1.
        -11    1    4    4    0    0 -0.17962842192E+01  0.56515805374E+02  0.83145053710E+02  0.10055030010E+03  0.00000000000E+00 0.  1.
         11    1    4    4    0    0  0.55945678218E+02  0.12543642556E+01  0.15283100271E+02  0.58009184573E+02  0.00000000000E+00 0. -1.
         -4    1    1    2    0  502  0.83729960710E+01 -0.70691486861E+02 -0.24644642586E+02  0.75330948394E+02  0.00000000000E+00 0.  1.
<scales pt_clust_5="13000.00000" pt_clust_6="13000.00000" pt_clust_7="13000.00000" pt_clust_8="13000.00000" pt_clust_9="71.18563"></scales>
<clustering>
<clus scale="   71.186">  2  9  1 -1</clus>
<clus scale="   83.015">  5  6 -1 -1</clus>
<clus scale="   95.830">  7  8 -1 -1</clus>
<clus scale="  103.528">  1  5  2 -1</clus>
<clus scale="   71.186">  2  5  1 -1</clus>
</clustering>
</event>
<event>
 9    2  0.1488992E-004  0.9682645E+02  0.7546771E-02  0.1290467E+00
         21   -1    0    0  501  502  0.00000000000E+00  0.00000000000E+00  0.13184619040E+03  0.13184619040E+03  0.00000000000E+00 0. -1.
         -1   -1    0    0    0  501 -0.00000000000E+00 -0.00000000000E+00 -0.17055165968E+03  0.17055165968E+03  0.00000000000E+00 0.  1.
         23    2    1    2    0    0 -0.39559660645E+02  0.73405293353E+01 -0.11861899298E+03  0.15433192880E+03  0.90161125930E+02 0.  0.
         24    2    1    2    0    0  0.70712851821E+01 -0.77417662399E+01  0.78887468319E+02  0.11555887096E+03  0.83789509976E+02 0.  0.
        -13    1    4    4    0    0  0.15278512061E+02  0.36132787037E+02  0.43666344329E+02  0.58700603548E+02  0.00000000000E+00 0.  1.
         14    1    4    4    0    0 -0.82072268789E+01 -0.43874553277E+02  0.35221123991E+02  0.56858267416E+02  0.00000000000E+00 0. -1.
        -11    1    3    3    0    0  0.40442664111E+01 -0.36602376700E+02 -0.43944031829E+02  0.57333829492E+02  0.00000000000E+00 0. -1.
         11    1    3    3    0    0 -0.43603927056E+02  0.43942906035E+02 -0.74674961155E+02  0.96998099307E+02  0.00000000000E+00 0.  1.
         -2    1    1    2    0  502  0.32488375463E+02  0.40123690464E+00  0.10260553852E+01  0.32507050327E+02  0.00000000000E+00 0.  1.
<scales pt_clust_5="13000.00000" pt_clust_6="13000.00000" pt_clust_7="13000.00000" pt_clust_8="13000.00000" pt_clust_9="32.49085"></scales>
<clustering>
<clus scale="   32.491">  1  9  2 -1</clus>
<clus scale="   83.790">  5  6 -1 -1</clus>
<clus scale="   90.161">  7  8 -1 -1</clus>
<clus scale="   90.923">  1  5  2 -1</clus>
<clus scale="   32.491">  1  5  2 -1</clus>
</clustering>
</event>
<event>
 9    2  0.1488992E-004  0.1467372E+03  0.7546771E-02  0.1207265E+00
         21   -1    0    0  501  502  0.00000000000E+00  0.00000000000E+00  0.21364226657E+02  0.21364226657E+02  0.00000000000E+00 0. -1.
          2   -1    0    0  502    0 -0.00000000000E+00 -0.00000000000E+00 -0.20943913393E+04  0.20943913393E+04  0.00000000000E+00 0. -1.
         23    2    1    2    0    0 -0.98955573239E+02 -0.56263493050E+02 -0.75273443835E+03  0.76699291871E+03  0.93333898194E+02 0.  0.
         24    2    1    2    0    0  0.13135048175E+03 -0.41926288823E+02 -0.58645875960E+03  0.60768041314E+03  0.79566607593E+02 0.  0.
        -11    1    4    4    0    0  0.85674457849E+02 -0.64758503902E+02 -0.36932494001E+03  0.38462278647E+03  0.00000000000E+00 0.  1.
         12    1    4    4    0    0  0.45676023902E+02  0.22832215078E+02 -0.21713381959E+03  0.22305762667E+03  0.00000000000E+00 0. -1.
        -11    1    3    3    0    0 -0.59307281567E+02 -0.78032206756E+02 -0.59016990489E+03  0.59825320357E+03  0.00000000000E+00 0. -1.
         11    1    3    3    0    0 -0.39648291673E+02  0.21768713706E+02 -0.16256453345E+03  0.16873971514E+03  0.00000000000E+00 0.  1.
          1    1    1    2  501    0 -0.32394908512E+02  0.98189781874E+02 -0.73383391467E+03  0.74108223409E+03  0.00000000000E+00 0. -1.
<scales pt_clust_5="13000.00000" pt_clust_6="13000.00000" pt_clust_7="13000.00000" pt_clust_8="13000.00000" pt_clust_9="103.39572"></scales>
<clustering>
<clus scale="   79.567">  5  6 -1 -1</clus>
<clus scale="   93.334">  7  8 -1 -1</clus>
<clus scale="  103.396">  1  9  2 -1</clus>
<clus scale="  138.389">  1  5  2 -1</clus>
<clus scale="  103.396">  1  5  2 -1</clus>
</clustering>
</event>
<event>
 9    2  0.1488992E-004  0.1340543E+03  0.7546771E-02  0.1224235E+00
         21   -1    0    0  501  502  0.00000000000E+00  0.00000000000E+00  0.17329537831E+03  0.17329537831E+03  0.00000000000E+00 0. -1.
          2   -1    0    0  502    0 -0.00000000000E+00 -0.00000000000E+00 -0.41414772121E+03  0.41414772121E+03  0.00000000000E+00 0. -1.
         23    2    1    2    0    0  0.29955565927E+02  0.90023993596E+02 -0.35833807188E+03  0.38214026761E+03  0.92862021395E+02 0.  0.
         24    2    1    2    0    0 -0.47659943602E+02 -0.10739783388E+03  0.95821365417E+02  0.17236895932E+03  0.81997311667E+02 0.  0.
        -13    1    4    4    0    0  0.20178902393E+02 -0.26940581000E+02  0.43027270983E+02  0.54629012939E+02  0.00000000000E+00 0.  1.
         14    1    4    4    0    0 -0.67838845995E+02 -0.80457252881E+02  0.52794094434E+02  0.11773994638E+03  0.00000000000E+00 0. -1.
        -11    1    3    3    0    0  0.62832837771E+02  0.51286344369E+02 -0.19885379476E+03  0.21475820429E+03  0.00000000000E+00 0.  1.
         11    1    3    3    0    0 -0.32877271844E+02  0.38737649227E+02 -0.15948427712E+03  0.16738206332E+03  0.00000000000E+00 0. -1.
          1    1    1    2  501    0  0.17704377675E+02  0.17373840285E+02  0.21664363566E+02  0.32933872591E+02  0.00000000000E+00 0. -1.
<scales pt_clust_5="13000.00000" pt_clust_6="13000.00000" pt_clust_7="13000.00000" pt_clust_8="13000.00000" pt_clust_9="24.80515"></scales>
<clustering>
<clus scale="   24.805">  1  9  2 -1</clus>
<clus scale="   81.997">  5  6 -1 -1</clus>
<clus scale="   92.862">  7  8 -1 -1</clus>
<clus scale="  126.771">  1  5  2 -1</clus>
<clus scale="   24.805">  1  5  2 -1</clus>
</clustering>
</event>
<event>
 9    2  0.1488992E-004  0.9632645E+02  0.7546771E-02  0.1294663E+00
          2   -1    0    0  502    0 -0.00000000000E+00  0.00000000000E+00  0.26899536568E+03  0.26899536568E+03  0.00000000000E+00 0. -1.
         21   -1    0    0  501  502  0.00000000000E+00 -0.00000000000E+00 -0.50611938138E+02  0.50611938138E+02  0.00000000000E+00 0.  1.
         24    2    1    2    0    0  0.28899354233E+02  0.16448083495E+02  0.14008892569E+03  0.16510064919E+03  0.80793595882E+02 0.  0.
         23    2    1    2    0    0 -0.40716141582E+01 -0.24293514508E+02  0.84743816016E+02  0.12768201822E+03  0.92273671954E+02 0.  0.
        -11    1    3    3    0    0 -0.22328166401E+02  0.25277933586E+02  0.40030399427E+02  0.52344568195E+02  0.00000000000E+00 0.  1.
         12    1    3    3    0    0  0.51227520634E+02 -0.88298500908E+01  0.10005852626E+03  0.11275608099E+03  0.00000000000E+00 0. -1.
        -11    1    4    4    0    0 -0.23630042479E+02 -0.50362383934E+02  0.75546195208E+02  0.93818847965E+02  0.00000000000E+00 0.  1.
         11    1    4    4    0    0  0.19558428320E+02  0.26068869426E+02  0.91976208086E+01  0.33863170260E+02  0.00000000000E+00 0. -1.
          1    1    1    2  501    0 -0.24827740075E+02  0.78454310133E+01 -0.64493141657E+01  0.26824636404E+02  0.00000000000E+00 0. -1.
<scales pt_clust_5="13000.00000" pt_clust_6="13000.00000" pt_clust_7="13000.00000" pt_clust_8="13000.00000" pt_clust_9="26.03781"></scales>
<clustering>
<clus scale="   26.038">  2  9  1 -1</clus>
<clus scale="   80.794">  5  6 -1 -1</clus>
<clus scale="   85.393">  1  5  2 -1</clus>
<clus scale="   92.274">  7  8 -1 -1</clus>
<clus scale="   26.038">  2  5  1 -1</clus>
</clustering>
</event>
<event>
 9    2  0.1488992E-004  0.9405051E+02  0.7546771E-02  0.1299453E+00
         21   -1    0    0  501  502  0.00000000000E+00  0.00000000000E+00  0.47317163696E+02  0.47317163696E+02  0.00000000000E+00 0.  1.
          2   -1    0    0  502    0 -0.00000000000E+00 -0.00000000000E+00 -0.56509197782E+03  0.56509197782E+03  0.00000000000E+00 0. -1.
         23    2    1    2    0    0 -0.28767374902E+02 -0.21721833017E+02 -0.23578599199E+03  0.25564668073E+03  0.91982560635E+02 0.  0.
         24    2    1    2    0    0 -0.19253731938E+02 -0.32641462789E+02 -0.30508208605E+02  0.95029975959E+02  0.81631943821E+02 0.  0.
        -11    1    4    4    0    0 -0.44478369365E+01 -0.45055448915E+02  0.13268698535E+02  0.47178756778E+02  0.00000000000E+00 0.  1.
         12    1    4    4    0    0 -0.14805895001E+02  0.12413986126E+02 -0.43776907141E+02  0.47851219181E+02  0.00000000000E+00 0. -1.
        -13    1    3    3    0    0 -0.50148827235E+01 -0.48600993014E+02 -0.19634935968E+03  0.20233703718E+03  0.00000000000E+00 0.  1.
         13    1    3    3    0    0 -0.23752492178E+02  0.26879159997E+02 -0.39436632313E+02  0.53309643546E+02  0.00000000000E+00 0. -1.
          1    1    1    2  501    0  0.48021106839E+02  0.54363295806E+02 -0.25148061353E+03  0.26173248482E+03  0.00000000000E+00 0. -1.
<scales pt_clust_5="13000.00000" pt_clust_6="13000.00000" pt_clust_7="13000.00000" pt_clust_8="13000.00000" pt_clust_9="72.53551"></scales>
<clustering>
<clus scale="   72.536">  1  9  2 -1</clus>
<clus scale="   81.632">  5  6 -1 -1</clus>
<clus scale="   83.955">  1  5  2 -1</clus>
<clus scale="   91.983">  7  8 -1 -1</clus>
<clus scale="   72.536">  1  5  2 -1</clus>
</clustering>
</event>
<event>
 9    2  0.1488992E-004  0.1436572E+03  0.7546771E-02  0.1210888E+00
          2   -1    0    0  502    0 -0.00000000000E+00  0.00000000000E+00  0.13269003182E+03  0.13269003182E+03  0.00000000000E+00 0. -1.
         21   -1    0    0  501  502  0.00000000000E+00 -0.00000000000E+00 -0.32946484180E+03  0.32946484180E+03  0.00000000000E+00 0. -1.
         23    2    1    2    0    0  0.65477958767E+02 -0.50099955541E+02 -0.69512849007E+02  0.14214658167E+03  0.92608022724E+02 0.  0.
         24    2    1    2    0    0 -0.15145756287E+03 -0.17873044032E+02 -0.33824343560E+02  0.17598256737E+03  0.81036650657E+02 0.  0.
        -13    1    4    4    0    0 -0.74809386004E+02 -0.32715023171E+02  0.16223734549E+02  0.83246180321E+02  0.00000000000E+00 0.  1.
         14    1    4    4    0    0 -0.76648176865E+02  0.14841979139E+02 -0.50048078109E+02  0.92736387054E+02  0.00000000000E+00 0. -1.
        -11    1    3    3    0    0  0.32851502472E+02  0.11122531390E+02 -0.63699823761E+02  0.72529990117E+02  0.00000000000E+00 0.  1.
         11    1    3    3    0    0  0.32626456295E+02 -0.61222486931E+02 -0.58130252456E+01  0.69616591549E+02  0.00000000000E+00 0. -1.
          1    1    1    2  501    0  0.85979604101E+02  0.67972999573E+02 -0.93437617417E+02  0.14402572458E+03  0.00000000000E+00 0. -1.
<scales pt_clust_5="13000.00000" pt_clust_6="13000.00000" pt_clust_7="13000.00000" pt_clust_8="13000.00000" pt_clust_9="109.60302"></scales>
<clustering>
<clus scale="   81.037">  5  6 -1 -1</clus>
<clus scale="   92.608">  7  8 -1 -1</clus>
<clus scale="  109.603">  2  9  1 -1</clus>
<clus scale="  136.485">  2  5  1 -1</clus>
<clus scale="  109.603">  2  5  1 -1</clus>
</clustering>
</event>
<event>
 9    2  0.1488992E-004  0.1266961E+03  0.7546771E-02  0.1235389E+00
          2   -1    0    0  502    0 -0.00000000000E+00  0.00000000000E+00  0.84399948788E+03  0.84399948788E+03  0.00000000000E+00 0. -1.
         21   -1    0    0  501  502  0.00000000000E+00 -0.00000000000E+00 -0.35874108596E+02  0.35874108596E+02  0.00000000000E+00 0.  1.
         24    2    1    2    0    0  0.31798466948E+02 -0.85728472473E+02  0.65015662821E+03  0.66145026879E+03  0.80326230995E+02 0.  0.
         23    2    1    2    0    0 -0.40890978342E+02  0.65983582940E+02  0.15602895347E+03  0.19659909252E+03  0.90995953375E+02 0.  0.
        -13    1    3    3    0    0  0.70251133943E+01 -0.91064118973E+02  0.41498044798E+03  0.42491269478E+03  0.00000000000E+00 0.  1.
         14    1    3    3    0    0  0.24773353554E+02  0.53356465001E+01  0.23517618023E+03  0.23653757401E+03  0.00000000000E+00 0. -1.
        -11    1    4    4    0    0 -0.17107168973E+02  0.75352144247E+02  0.15228104175E+03  0.17076333491E+03  0.00000000000E+00 0. -1.
         11    1    4    4    0    0 -0.23783809369E+02 -0.93685613067E+01  0.37479117232E+01  0.25835757611E+02  0.00000000000E+00 0.  1.
          1    1    1    2  501    0  0.90925113935E+01  0.19744889533E+02  0.19397976103E+01  0.21824235173E+02  0.00000000000E+00 0. -1.
<scales pt_clust_5="13000.00000" pt_clust_6="13000.00000" pt_clust_7="13000.00000" pt_clust_8="13000.00000" pt_clust_9="21.73786"></scales>
<clustering>
<clus scale="   21.738">  2  9  1 -1</clus>
<clus scale="   80.326">  5  6 -1 -1</clus>
<clus scale="   90.996">  7  8 -1 -1</clus>
<clus scale="  119.264">  1  5  2 -1</clus>
<clus scale="   21.738">  2  5  1 -1</clus>
</clustering>
</event>
<event>
 9    2  0.1488992E-004  0.1437623E+03  0.7546771E-02  0.1210996E+00
          2   -1    0    0  502    0 -0.00000000000E+00  0.00000000000E+00  0.50678336102E+03  0.50678336102E+03  0.00000000000E+00 0. -1.
         21   -1    0    0  501  502  0.00000000000E+00 -0.00000000000E+00 -0.15505195155E+03  0.15505195155E+03  0.00000000000E+00 0.  1.
         24    2    1    2    0    0 -0.10744617401E+03  0.31852164740E+02  0.21965232624E+03  0.25870741440E+03  0.78250502448E+02 0.  0.
         23    2    1    2    0    0  0.11529567915E+03  0.44229551625E+02  0.23143447239E+03  0.27774235016E+03  0.91266374938E+02 0.  0.
        -11    1    3    3    0    0 -0.48470616514E+02  0.45368642545E+02  0.66191896660E+02  0.93750101733E+02  0.00000000000E+00 0.  1.
         12    1    3    3    0    0 -0.58975557499E+02 -0.13516477805E+02  0.15346042958E+03  0.16495731267E+03  0.00000000000E+00 0. -1.
        -13    1    4    4    0    0  0.64411798173E+02  0.11738846103E+02  0.39336550801E+02  0.76380916993E+02  0.00000000000E+00 0.  1.
         13    1    4    4    0    0  0.50883880980E+02  0.32490705522E+02  0.19209792159E+03  0.20136143317E+03  0.00000000000E+00 0. -1.
          1    1    1    2  501    0 -0.78495051404E+01 -0.76081716365E+02 -0.99355389156E+02  0.12538554801E+03  0.00000000000E+00 0. -1.
<scales pt_clust_5="13000.00000" pt_clust_6="13000.00000" pt_clust_7="13000.00000" pt_clust_8="13000.00000" pt_clust_9="76.48557"></scales>
<clustering>
<clus scale="   76.486">  2  9  1 -1</clus>
<clus scale="   78.251">  5  6 -1 -1</clus>
<clus scale="   91.266">  7  8 -1 -1</clus>
<clus scale="  135.872">  1  5  2 -1</clus>
<clus scale="   76.486">  2  5  1 -1</clus>
</clustering>
</event>
<event>
 9    2  0.1488992E-004  0.1360725E+03  0.7546771E-02  0.1232074E+00
         21   -1    0    0  501  502  0.00000000000E+00  0.00000000000E+00  0.64132962794E+02  0.64132962794E+02  0.00000000000E+00 0. -1.
         -3   -1    0    0    0  501 -0.00000000000E+00 -0.00000000000E+00 -0.72334769991E+03  0.72334769991E+03  0.00000000000E+00 0.  1.
         24    2    1    2    0    0 -0.52383694433E+02  0.38484427519E+02 -0.47226253050E+03  0.48329989930E+03  0.79509699660E+02 0.  0.
         23    2    1    2    0    0  0.42535474285E+02 -0.61768967052E+02 -0.28497773658E+02  0.14372215645E+03  0.11924455245E+03 0.  0.
        -13    1    3    3    0    0 -0.51436924975E+02  0.92407618557E+01 -0.13487156969E+03  0.14464262594E+03  0.00000000000E+00 0.  1.
         14    1    3    3    0    0 -0.94676945789E+00  0.29243665663E+02 -0.33739096082E+03  0.33865727335E+03  0.00000000000E+00 0. -1.
        -11    1    4    4    0    0  0.45359482282E+02 -0.92515193185E+02 -0.20331497483E+01  0.10305667034E+03  0.00000000000E+00 0. -1.
         11    1    4    4    0    0 -0.28240079976E+01  0.30746226133E+02 -0.26464623909E+02  0.40665486118E+02  0.00000000000E+00 0.  1.
         -4    1    1    2    0  502  0.98482201487E+01  0.23284539533E+02 -0.15845443295E+03  0.16045860695E+03  0.00000000000E+00 0.  1.
<scales pt_clust_5="13000.00000" pt_clust_6="13000.00000" pt_clust_7="13000.00000" pt_clust_8="13000.00000" pt_clust_9="25.28157"></scales>
<clustering>
<clus scale="   25.282">  1  9  2 -1</clus>
<clus scale="   79.510">  5  6 -1 -1</clus>
<clus scale="  103.045">  2  5  1 -1</clus>
<clus scale="  119.245">  7  8 -1 -1</clus>
<clus scale="   25.282">  1  5  2 -1</clus>
</clustering>
</event>
<event>
 9    2  0.1488992E-004  0.9550717E+02  0.7546771E-02  0.1297277E+00
          2   -1    0    0  502    0 -0.00000000000E+00  0.00000000000E+00  0.68976792954E+02  0.68976792954E+02  0.00000000000E+00 0. -1.
         21   -1    0    0  501  502  0.00000000000E+00 -0.00000000000E+00 -0.36001521444E+03  0.36001521444E+03  0.00000000000E+00 0. -1.
         24    2    1    2    0    0 -0.22911891483E+02  0.11787679448E+02  0.12588235813E+02  0.84603113813E+02  0.79594717336E+02 0.  0.
         23    2    1    2    0    0 -0.42035006252E+01 -0.42940345053E+02 -0.12563566471E+03  0.16166909031E+03  0.92146795194E+02 0.  0.
        -13    1    3    3    0    0  0.70483785163E+01  0.36525433037E+02 -0.11441880042E+02  0.38919192144E+02  0.00000000000E+00 0.  1.
         14    1    3    3    0    0 -0.29960270000E+02 -0.24737753589E+02  0.24030115855E+02  0.45683921669E+02  0.00000000000E+00 0. -1.
        -13    1    4    4    0    0 -0.30671305478E+02 -0.31421146539E+01 -0.10531056610E+03  0.10973111316E+03  0.00000000000E+00 0. -1.
         13    1    4    4    0    0  0.26467804852E+02 -0.39798230399E+02 -0.20325098610E+02  0.51937977147E+02  0.00000000000E+00 0.  1.
          1    1    1    2  501    0  0.27115392109E+02  0.31152665605E+02 -0.17799099259E+03  0.18271980327E+03  0.00000000000E+00 0. -1.
<scales pt_clust_5="13000.00000" pt_clust_6="13000.00000" pt_clust_7="13000.00000" pt_clust_8="13000.00000" pt_clust_9="41.30052"></scales>
<clustering>
<clus scale="   41.301">  2  9  1 -1</clus>
<clus scale="   79.595">  5  6 -1 -1</clus>
<clus scale="   83.462">  1  5  2 -1</clus>
<clus scale="   92.147">  7  8 -1 -1</clus>
<clus scale="   41.301">  2  5  1 -1</clus>
</clustering>
</event>
<event>
 9    2  0.1488992E-004  0.9820737E+02  0.7546771E-02  0.1293858E+00
          4   -1    0    0  502    0 -0.00000000000E+00  0.00000000000E+00  0.64845101571E+02  0.64845101571E+02  0.00000000000E+00 0. -1.
         21   -1    0    0  501  502  0.00000000000E+00 -0.00000000000E+00 -0.30595842515E+03  0.30595842515E+03  0.00000000000E+00 0.  1.
         24    2    1    2    0    0  0.25597771742E+02 -0.26645641793E+02  0.96972629067E+01  0.83008622930E+02  0.73696393590E+02 0.  0.
         23    2    1    2    0    0  0.41015427989E+01  0.37747310060E+02 -0.22834977070E+03  0.24893895742E+03  0.91571309225E+02 0.  0.
        -13    1    3    3    0    0  0.27153044038E+01 -0.39955488318E+02 -0.18689565028E+02  0.44194046722E+02  0.00000000000E+00 0.  1.
         14    1    3    3    0    0  0.22882467339E+02  0.13309846525E+02  0.28386827935E+02  0.38814576208E+02  0.00000000000E+00 0. -1.
        -11    1    4    4    0    0 -0.17903662030E+01 -0.25764898010E+02 -0.12382033008E+03  0.12648521463E+03  0.00000000000E+00 0. -1.
         11    1    4    4    0    0  0.58919090019E+01  0.63512208070E+02 -0.10452944062E+03  0.12245374279E+03  0.00000000000E+00 0.  1.
          3    1    1    2  501    0 -0.29699314541E+02 -0.11101668268E+02 -0.22460815789E+02  0.38855946372E+02  0.00000000000E+00 0. -1.
<scales pt_clust_5="13000.00000" pt_clust_6="13000.00000" pt_clust_7="13000.00000" pt_clust_8="13000.00000" pt_clust_9="31.70642"></scales>
<clustering>
<clus scale="   31.706">  2  9  1 -1</clus>
<clus scale="   73.696">  5  6 -1 -1</clus>
<clus scale="   81.796">  1  5  2 -1</clus>
<clus scale="   91.571">  7  8 -1 -1</clus>
<clus scale="   31.706">  2  5  1 -1</clus>
</clustering>
</event>
<event>
 9    2  0.1488992E-004  0.3172241E+03  0.7546771E-02  0.1096609E+00
         21   -1    0    0  501  502  0.00000000000E+00  0.00000000000E+00  0.10858140539E+03  0.10858140539E+03  0.00000000000E+00 0.  1.
         -3   -1    0    0    0  501 -0.00000000000E+00 -0.00000000000E+00 -0.16367450399E+04  0.16367450399E+04  0.00000000000E+00 0.  1.
         24    2    1    2    0    0  0.14223427944E+03  0.87651259005E+02 -0.42651066266E+03  0.46609414841E+03  0.86134060476E+02 0.  0.
         23    2    1    2    0    0 -0.11544893345E+03 -0.35360207201E+03 -0.64532839468E+03  0.75038505105E+03  0.90918129612E+02 0.  0.
        -11    1    3    3    0    0  0.22493561573E+02  0.50797945215E+02 -0.78105891355E+02  0.95848431467E+02  0.00000000000E+00 0.  1.
         12    1    3    3    0    0  0.11974071787E+03  0.36853313790E+02 -0.34840477130E+03  0.37024571695E+03  0.00000000000E+00 0. -1.
        -13    1    4    4    0    0  0.93360025903E+01 -0.77138311244E+02 -0.16365063293E+03  0.18116017681E+03  0.00000000000E+00 0. -1.
         13    1    4    4    0    0 -0.12478493604E+03 -0.27646376076E+03 -0.48167776175E+03  0.56922487423E+03  0.00000000000E+00 0.  1.
         -4    1    1    2    0  502 -0.26785345990E+02  0.26595081300E+03 -0.45632457719E+03  0.52884724585E+03  0.00000000000E+00 0.  1.
<scales pt_clust_5="13000.00000" pt_clust_6="13000.00000" pt_clust_7="13000.00000" pt_clust_8="13000.00000" pt_clust_9="303.91616"></scales>
<clustering>
<clus scale="   86.134">  5  6 -1 -1</clus>
<clus scale="   90.918">  7  8 -1 -1</clus>
<clus scale="  187.969">  2  5  1 -1</clus>
<clus scale="  303.916">  1  9  2 -1</clus>
<clus scale="  303.916">  1  5  2 -1</clus>
</clustering>
</event>
<event>
 9    2  0.1488992E-004  0.1301004E+03  0.7546771E-02  0.1230235E+00
          2   -1    0    0  502    0 -0.00000000000E+00  0.00000000000E+00  0.37899535353E+03  0.37899535353E+03  0.00000000000E+00 0. -1.
         21   -1    0    0  501  502  0.00000000000E+00 -0.00000000000E+00 -0.84227264717E+02  0.84227264717E+02  0.00000000000E+00 0.  1.
         24    2    1    2    0    0  0.97871286700E+02 -0.24781478647E+01  0.28161239513E+03  0.30852145613E+03  0.79341148394E+02 0.  0.
         23    2    1    2    0    0 -0.77829046739E+02  0.37547640018E+01  0.35426953019E+02  0.12471232880E+03  0.90700811384E+02 0.  0.
        -11    1    3    3    0    0  0.10505148631E+02 -0.32065186735E+02  0.78605072117E+02  0.85541169682E+02  0.00000000000E+00 0.  1.
         12    1    3    3    0    0  0.87366138069E+02  0.29587038870E+02  0.20300732301E+03  0.22298028645E+03  0.00000000000E+00 0. -1.
        -13    1    4    4    0    0 -0.56607194025E+02  0.15078597823E+02  0.64398358280E+02  0.87056803736E+02  0.00000000000E+00 0. -1.
         13    1    4    4    0    0 -0.21221852714E+02 -0.11323833821E+02 -0.28971405261E+02  0.37655525064E+02  0.00000000000E+00 0.  1.
          1    1    1    2  501    0 -0.20042239962E+02 -0.12766161371E+01 -0.22271259330E+02  0.29988833315E+02  0.00000000000E+00 0. -1.
<scales pt_clust_5="13000.00000" pt_clust_6="13000.00000" pt_clust_7="13000.00000" pt_clust_8="13000.00000" pt_clust_9="20.08286"></scales>
<clustering>
<clus scale="   20.083">  2  9  1 -1</clus>
<clus scale="   79.341">  5  6 -1 -1</clus>
<clus scale="   90.701">  7  8 -1 -1</clus>
<clus scale="  122.452">  1  5  2 -1</clus>
<clus scale="   20.083">  2  5  1 -1</clus>
</clustering>
</event>
<event>
 9    2  0.1488992E-004  0.2470674E+03  0.7546771E-02  0.1115369E+00
         21   -1    0    0  501  502  0.00000000000E+00  0.00000000000E+00  0.49405312008E+03  0.49405312008E+03  0.00000000000E+00 0.  1.
         -1   -1    0    0    0  501 -0.00000000000E+00 -0.00000000000E+00 -0.21543867852E+03  0.21543867852E+03  0.00000000000E+00 0.  1.
         23    2    1    2    0    0  0.20997526949E+03 -0.82398774341E+02 -0.72955979243E+02  0.25349535239E+03  0.89767182008E+02 0.  0.
         24    2    1    2    0    0 -0.23555389744E+03  0.82368855450E+02  0.32918979149E+03  0.42200880623E+03  0.86343770882E+02 0.  0.
        -13    1    4    4    0    0 -0.17820837751E+03  0.65037797602E+02  0.18113774379E+03  0.26229567888E+03  0.00000000000E+00 0.  1.
         14    1    4    4    0    0 -0.57345519928E+02  0.17331057848E+02  0.14805204770E+03  0.15971312736E+03  0.00000000000E+00 0. -1.
        -13    1    3    3    0    0  0.12944642743E+03 -0.89731075316E+02 -0.24985840395E+02  0.15947518826E+03  0.00000000000E+00 0.  1.
         13    1    3    3    0    0  0.80528842055E+02  0.73323009748E+01 -0.47970138848E+02  0.94020164121E+02  0.00000000000E+00 0. -1.
         -2    1    1    2    0  502  0.25578627951E+02  0.29918891301E-01  0.22380629313E+02  0.33987639980E+02  0.00000000000E+00 0.  1.
<scales pt_clust_5="13000.00000" pt_clust_6="13000.00000" pt_clust_7="13000.00000" pt_clust_8="13000.00000" pt_clust_9="25.57865"></scales>
<clustering>
<clus scale="   25.579">  1  9  2 -1</clus>
<clus scale="   86.344">  5  6 -1 -1</clus>
<clus scale="   89.767">  7  8 -1 -1</clus>
<clus scale="  245.844">  1  5  2 -1</clus>
<clus scale="   25.579">  1  5  2 -1</clus>
</clustering>
</event>
<event>
 9    2  0.1488992E-004  0.1307384E+03  0.7546771E-02  0.1243295E+00
         -1   -1    0    0    0  501 -0.00000000000E+00  0.00000000000E+00  0.34583642129E+03  0.34583642129E+03  0.00000000000E+00 0.  1.
         21   -1    0    0  501  502  0.00000000000E+00 -0.00000000000E+00 -0.91132269777E+02  0.91132269777E+02  0.00000000000E+00 0. -1.
         23    2    1    2    0    0  0.23488842265E+02  0.96474692025E+01  0.15505956451E+03  0.18051445146E+03  0.88866187435E+02 0.  0.
         24    2    1    2    0    0 -0.36083717991E+02  0.88703754616E+02  0.88061045875E+02  0.15662552356E+03  0.87214769641E+02 0.  0.
        -13    1    4    4    0    0 -0.19892286790E+02  0.82590548216E+02  0.10317451011E+03  0.13364834928E+03  0.00000000000E+00 0.  1.
         14    1    4    4    0    0 -0.16191431201E+02  0.61132063991E+01 -0.15113464236E+02  0.22977174283E+02  0.00000000000E+00 0. -1.
        -11    1    3    3    0    0 -0.21097264602E+02 -0.27310858840E+02  0.57806320368E+02  0.67324202622E+02  0.00000000000E+00 0. -1.
         11    1    3    3    0    0  0.44586106867E+02  0.36958328042E+02  0.97253244138E+02  0.11319024884E+03  0.00000000000E+00 0.  1.
         -2    1    1    2    0  502  0.12594875726E+02 -0.98351223818E+02  0.11583541130E+02  0.99828716040E+02  0.00000000000E+00 0.  1.
<scales pt_clust_5="13000.00000" pt_clust_6="13000.00000" pt_clust_7="13000.00000" pt_clust_8="13000.00000" pt_clust_9="97.39663"></scales>
<clustering>
<clus scale="   87.215">  5  6 -1 -1</clus>
<clus scale="   88.866">  7  8 -1 -1</clus>
<clus scale="   92.423">  1  7  2 -1</clus>
<clus scale="   97.397">  2  9  1 -1</clus>
<clus scale="   97.397">  2  5  1 -1</clus>
</clustering>
</event>
<event>
 9    2  0.1488992E-004  0.1931285E+03  0.7546771E-02  0.1184897E+00
         21   -1    0    0  501  502  0.00000000000E+00  0.00000000000E+00  0.14720751821E+03  0.14720751821E+03  0.00000000000E+00 0. -1.
          2   -1    0    0  502    0 -0.00000000000E+00 -0.00000000000E+00 -0.10492569848E+04  0.10492569848E+04  0.00000000000E+00 0. -1.
         23    2    1    2    0    0  0.28120092347E+02 -0.26608296528E+01 -0.18993542048E+03  0.21418456913E+03  0.94877532093E+02 0.  0.
         24    2    1    2    0    0 -0.93278659307E+02  0.16486396886E+03 -0.77090352848E+03  0.79785732018E+03  0.80018851671E+02 0.  0.
        -13    1    4    4    0    0 -0.57068238463E+02  0.31465048006E+02 -0.30484926685E+03  0.31173692208E+03  0.00000000000E+00 0.  1.
         14    1    4    4    0    0 -0.36210420844E+02  0.13339892086E+03 -0.46605426164E+03  0.48612039810E+03  0.00000000000E+00 0. -1.
        -13    1    3    3    0    0  0.54729518983E+02  0.19677720268E+02 -0.80116491207E+02  0.99000934775E+02  0.00000000000E+00 0.  1.
         13    1    3    3    0    0 -0.26609426636E+02 -0.22338549921E+02 -0.10981892927E+03  0.11518363436E+03  0.00000000000E+00 0. -1.
          1    1    1    2  501    0  0.65158566960E+02 -0.16220313921E+03  0.58789482349E+02  0.18442261372E+03  0.00000000000E+00 0. -1.
<scales pt_clust_5="13000.00000" pt_clust_6="13000.00000" pt_clust_7="13000.00000" pt_clust_8="13000.00000" pt_clust_9="175.77143"></scales>
<clustering>
<clus scale="   80.019">  5  6 -1 -1</clus>
<clus scale="   94.878">  7  8 -1 -1</clus>
<clus scale="   98.993">  2  7  1 -1</clus>
<clus scale="  175.771">  1  9  2 -1</clus>
<clus scale="  175.771">  1  5  2 -1</clus>
</clustering>
</event>
<event>
 9    2  0.1488992E-004  0.1781883E+03  0.7546771E-02  0.1170841E+00
          2   -1    0    0  502    0 -0.00000000000E+00  0.00000000000E+00  0.10748841785E+04  0.10748841785E+04  0.00000000000E+00 0. -1.
         21   -1    0    0  501  502  0.00000000000E+00 -0.00000000000E+00 -0.24658229166E+03  0.24658229166E+03  0.00000000000E+00 0.  1.
         24    2    1    2    0    0 -0.11362836750E+03 -0.10562119696E+03  0.10133138534E+04  0.10282632695E+04  0.80331454775E+02 0.  0.
         23    2    1    2    0    0  0.92247108038E+02  0.84741167724E+02 -0.62118009687E+02  0.16672767535E+03  0.90823323834E+02 0.  0.
        -11    1    3    3    0    0 -0.10484352050E+03 -0.99036689247E+02  0.69730091516E+03  0.71205968562E+03  0.00000000000E+00 0.  1.
         12    1    3    3    0    0 -0.87848469922E+01 -0.65845077183E+01  0.31601293826E+03  0.31620358383E+03  0.00000000000E+00 0. -1.
        -11    1    4    4    0    0  0.14162969865E+02  0.72511610445E+02 -0.42729325655E+02  0.85348219874E+02  0.00000000000E+00 0. -1.
         11    1    4    4    0    0  0.78084138172E+02  0.12229557279E+02 -0.19388684031E+02  0.81379455478E+02  0.00000000000E+00 0.  1.
          1    1    1    2  501    0  0.21381259459E+02  0.20880029241E+02 -0.12289395689E+03  0.12647552536E+03  0.00000000000E+00 0. -1.
<scales pt_clust_5="13000.00000" pt_clust_6="13000.00000" pt_clust_7="13000.00000" pt_clust_8="13000.00000" pt_clust_9="29.88535"></scales>
<clustering>
<clus scale="   29.885">  2  9  1 -1</clus>
<clus scale="   80.331">  5  6 -1 -1</clus>
<clus scale="   90.823">  7  8 -1 -1</clus>
<clus scale="  173.076">  1  5  2 -1</clus>
<clus scale="   29.885">  2  5  1 -1</clus>
</clustering>
</event>
<event>
 9    2  0.1488992E-004  0.2131176E+03  0.7546771E-02  0.1172869E+00
         21   -1    0    0  501  502  0.00000000000E+00  0.00000000000E+00  0.18551809498E+03  0.18551809498E+03  0.00000000000E+00 0. -1.
          2   -1    0    0  502    0 -0.00000000000E+00 -0.00000000000E+00 -0.50427204542E+03  0.50427204542E+03  0.00000000000E+00 0. -1.
         24    2    1    2    0    0  0.37990802562E+02 -0.36120011545E+02  0.16007331890E+01  0.96604009888E+02  0.81128392481E+02 0.  0.
         23    2    1    2    0    0  0.11893287957E+02 -0.15938750687E+03 -0.34416184098E+03  0.39001528372E+03  0.90103946091E+02 0.  0.
        -11    1    3    3    0    0  0.45889176357E+01 -0.20956343235E+02  0.38815393560E+02  0.44349309623E+02  0.00000000000E+00 0.  1.
         12    1    3    3    0    0  0.33401884926E+02 -0.15163668310E+02 -0.37214660371E+02  0.52254700265E+02  0.00000000000E+00 0. -1.
        -13    1    4    4    0    0  0.12681641106E+02 -0.60584143498E+02 -0.49584571533E+02  0.79308840608E+02  0.00000000000E+00 0. -1.
         13    1    4    4    0    0 -0.78835314845E+00 -0.98803363374E+02 -0.29457726945E+03  0.31070644311E+03  0.00000000000E+00 0.  1.
          1    1    1    2  501    0 -0.49884090519E+02  0.19550751842E+03  0.23807157353E+02  0.20317084679E+03  0.00000000000E+00 0. -1.
<scales pt_clust_5="13000.00000" pt_clust_6="13000.00000" pt_clust_7="13000.00000" pt_clust_8="13000.00000" pt_clust_9="193.13306"></scales>
<clustering>
<clus scale="   81.128">  5  6 -1 -1</clus>
<clus scale="   90.104">  7  8 -1 -1</clus>
<clus scale="   96.591">  2  5  1 -1</clus>
<clus scale="  193.133">  1  9  2 -1</clus>
<clus scale="  193.133">  1  5  2 -1</clus>
</clustering>
</event>
<event>
 9    2  0.1488992E-004  0.1475093E+03  0.7546771E-02  0.1206141E+00
         21   -1    0    0  501  502  0.00000000000E+00  0.00000000000E+00  0.14713472839E+03  0.14713472839E+03  0.00000000000E+00 0. -1.
         -1   -1    0    0    0  501 -0.00000000000E+00 -0.00000000000E+00 -0.18970053017E+03  0.18970053017E+03  0.00000000000E+00 0.  1.
         24    2    1    2    0    0 -0.38767499416E+02  0.11639320759E+03 -0.65105889783E+02  0.15998030194E+03  0.79401651999E+02 0.  0.
         23    2    1    2    0    0  0.39807895234E+02 -0.96085144376E+02 -0.87048638751E+01  0.13957564772E+03  0.92674501820E+02 0.  0.
        -13    1    3    3    0    0 -0.17570548531E+02  0.88468257528E+02 -0.81238378326E+02  0.12138793547E+03  0.00000000000E+00 0.  1.
         14    1    3    3    0    0 -0.21196950885E+02  0.27924950059E+02  0.16132488543E+02  0.38592366463E+02  0.00000000000E+00 0. -1.
        -11    1    4    4    0    0  0.60655585532E+02 -0.82690523028E+02 -0.30056912687E+02  0.10686552604E+03  0.00000000000E+00 0.  1.
         11    1    4    4    0    0 -0.20847690298E+02 -0.13394621348E+02  0.21352048811E+02  0.32710121679E+02  0.00000000000E+00 0. -1.
         -2    1    1    2    0  502 -0.10403958183E+01 -0.20308063210E+02  0.31244951874E+02  0.37279308905E+02  0.00000000000E+00 0.  1.
<scales pt_clust_5="13000.00000" pt_clust_6="13000.00000" pt_clust_7="13000.00000" pt_clust_8="13000.00000" pt_clust_9="20.33470"></scales>
<clustering>
<clus scale="   20.335">  1  9  2 -1</clus>
<clus scale="   79.402">  5  6 -1 -1</clus>
<clus scale="   92.675">  7  8 -1 -1</clus>
<clus scale="  139.553">  2  5  1 -1</clus>
<clus scale="   20.335">  1  5  2 -1</clus>
</clustering>
</event>
<event>
 9    2  0.1488992E-004  0.9961274E+02  0.7546771E-02  0.1286372E+00
          2   -1    0    0  502    0 -0.00000000000E+00  0.00000000000E+00  0.12673984513E+03  0.12673984513E+03  0.00000000000E+00 0. -1.
         21   -1    0    0  501  502  0.00000000000E+00 -0.00000000000E+00 -0.18267612420E+03  0.18267612420E+03  0.00000000000E+00 0. -1.
         23    2    1    2    0    0 -0.58080198371E+01  0.57747803319E+02  0.60007550087E+02  0.12357784122E+03  0.91115503026E+02 0.  0.
         24    2    1    2    0    0 -0.14372757868E+02 -0.11168648976E+01 -0.47496496845E+02  0.94737281364E+02  0.80693318879E+02 0.  0.
        -13    1    4    4    0    0 -0.46813376819E+02 -0.10894554854E+02 -0.28995691535E+02  0.56133178267E+02  0.00000000000E+00 0.  1.
         14    1    4    4    0    0  0.32440618951E+02  0.97776899569E+01 -0.18500805310E+02  0.38604103097E+02  0.00000000000E+00 0. -1.
        -11    1    3    3    0    0 -0.38451467108E+02 -0.35148614719E+01  0.21111771699E+02  0.44006550401E+02  0.00000000000E+00 0.  1.
         11    1    3    3    0    0  0.32643447271E+02  0.61262664791E+02  0.38895778388E+02  0.79571290824E+02  0.00000000000E+00 0. -1.
          1    1    1    2  501    0  0.20180777706E+02 -0.56630938421E+02 -0.68447332319E+02  0.91100846740E+02  0.00000000000E+00 0. -1.
<scales pt_clust_5="13000.00000" pt_clust_6="13000.00000" pt_clust_7="13000.00000" pt_clust_8="13000.00000" pt_clust_9="60.11927"></scales>
<clustering>
<clus scale="   60.119">  2  9  1 -1</clus>
<clus scale="   80.693">  5  6 -1 -1</clus>
<clus scale="   90.178">  2  5  1 -1</clus>
<clus scale="   91.116">  7  8 -1 -1</clus>
<clus scale="   60.119">  2  5  1 -1</clus>
</clustering>
</event>
<event>
 9    2  0.1488992E-004  0.1113555E+03  0.7546771E-02  0.1261654E+00
         21   -1    0    0  501  502  0.00000000000E+00  0.00000000000E+00  0.36762216877E+02  0.36762216877E+02  0.00000000000E+00 0.  1.
          2   -1    0    0  502    0 -0.00000000000E+00 -0.00000000000E+00 -0.89899128590E+03  0.89899128590E+03  0.00000000000E+00 0. -1.
         23    2    1    2    0    0 -0.69911295685E+02 -0.66789837041E+01 -0.37566200374E+03  0.39308950692E+03  0.92006637325E+02 0.  0.
         24    2    1    2    0    0  0.20225047056E+02  0.84005946507E+02 -0.14009514660E+03  0.18420762066E+03  0.82702755891E+02 0.  0.
        -13    1    4    4    0    0  0.35823999688E+02  0.50693766344E+02 -0.31616398485E+02  0.69662138590E+02  0.00000000000E+00 0.  1.
         14    1    4    4    0    0 -0.15598952632E+02  0.33312180164E+02 -0.10847874811E+03  0.11454548207E+03  0.00000000000E+00 0. -1.
        -13    1    3    3    0    0 -0.62229793629E+02 -0.44841888865E+02 -0.24075468348E+03  0.25267797654E+03  0.00000000000E+00 0.  1.
         13    1    3    3    0    0 -0.76815020555E+01  0.38162905161E+02 -0.13490732026E+03  0.14041153038E+03  0.00000000000E+00 0. -1.
          1    1    1    2  501    0  0.49686248628E+02 -0.77326962803E+02 -0.34647191869E+03  0.35845637520E+03  0.00000000000E+00 0. -1.
<scales pt_clust_5="13000.00000" pt_clust_6="13000.00000" pt_clust_7="13000.00000" pt_clust_8="13000.00000" pt_clust_9="91.91404"></scales>
<clustering>
<clus scale="   82.703">  5  6 -1 -1</clus>
<clus scale="   91.914">  1  9  2 -1</clus>
<clus scale="   92.007">  7  8 -1 -1</clus>
<clus scale="  103.801">  1  5  2 -1</clus>
<clus scale="   91.914">  1  5  2 -1</clus>
</clustering>
</event>
<event>
 9    2  0.1488992E-004  0.1368250E+03  0.7546771E-02  0.1219621E+00
          2   -1    0    0  502    0 -0.00000000000E+00  0.00000000000E+00  0.27129976827E+03  0.27129976827E+03  0.00000000000E+00 0. -1.
         21   -1    0    0  501  502  0.00000000000E+00 -0.00000000000E+00 -0.19686286296E+03  0.19686286296E+03  0.00000000000E+00 0.  1.
         24    2    1    2    0    0  0.96412283811E+02 -0.33561074019E+02  0.20229696268E+03  0.24124843930E+03  0.82795375461E+02 0.  0.
         23    2    1    2    0    0 -0.79336993873E+02  0.74782672298E+02 -0.10511652528E+03  0.17683371726E+03  0.91290048749E+02 0.  0.
        -11    1    3    3    0    0  0.31346538739E+02  0.16988153152E+02  0.19264485528E+02  0.40525587486E+02  0.00000000000E+00 0.  1.
         12    1    3    3    0    0  0.65065745072E+02 -0.50549227171E+02  0.18303247715E+03  0.20072285181E+03  0.00000000000E+00 0. -1.
        -11    1    4    4    0    0  0.12066769678E+02  0.22664624139E+02 -0.54132890388E+02  0.59913787558E+02  0.00000000000E+00 0.  1.
         11    1    4    4    0    0 -0.91403763551E+02  0.52118048159E+02 -0.50983634897E+02  0.11691992971E+03  0.00000000000E+00 0. -1.
          1    1    1    2  501    0 -0.17075289938E+02 -0.41221598278E+02 -0.22743532081E+02  0.50080474665E+02  0.00000000000E+00 0. -1.
<scales pt_clust_5="13000.00000" pt_clust_6="13000.00000" pt_clust_7="13000.00000" pt_clust_8="13000.00000" pt_clust_9="44.61822"></scales>
<clustering>
<clus scale="   44.618">  2  9  1 -1</clus>
<clus scale="   82.795">  5  6 -1 -1</clus>
<clus scale="   91.290">  7  8 -1 -1</clus>
<clus scale="  131.310">  1  5  2 -1</clus>
<clus scale="   44.618">  2  5  1 -1</clus>
</clustering>
</event>
<event>
 9    2  0.1488992E-004  0.4509687E+03  0.7546771E-02  0.1027434E+00
         21   -1    0    0  501  502  0.00000000000E+00  0.00000000000E+00  0.14335264305E+03  0.14335264305E+03  0.00000000000E+00 0. -1.
          2   -1    0    0  502    0 -0.00000000000E+00 -0.00000000000E+00 -0.11979048645E+04  0.11979048645E+04  0.00000000000E+00 0. -1.
         24    2    1    2    0    0 -0.22860510591E+03  0.20645993932E+03 -0.32305792669E+03  0.45594244243E+03  0.92903637264E+02 0.  0.
         23    2    1    2    0    0  0.14452213306E+01  0.86515149201E+02 -0.16767102221E+03  0.21053161961E+03  0.93397170519E+02 0.  0.
        -11    1    3    3    0    0 -0.76678452813E+02  0.16568493821E+02 -0.83839195177E+02  0.11481772843E+03  0.00000000000E+00 0.  1.
         12    1    3    3    0    0 -0.15192665310E+03  0.18989144550E+03 -0.23921873151E+03  0.34112471400E+03  0.00000000000E+00 0. -1.
        -13    1    4    4    0    0 -0.16730551104E+02  0.29705048818E+02 -0.16628832329E+01  0.34133069686E+02  0.00000000000E+00 0. -1.
         13    1    4    4    0    0  0.18175772435E+02  0.56810100383E+02 -0.16600813897E+03  0.17639854992E+03  0.00000000000E+00 0.  1.
          1    1    1    2  501    0  0.22715988458E+03 -0.29297508852E+03 -0.56382327252E+03  0.67478344548E+03  0.00000000000E+00 0. -1.
<scales pt_clust_5="13000.00000" pt_clust_6="13000.00000" pt_clust_7="13000.00000" pt_clust_8="13000.00000" pt_clust_9="370.72382"></scales>
<clustering>
<clus scale="   92.904">  5  6 -1 -1</clus>
<clus scale="   93.397">  7  8 -1 -1</clus>
<clus scale="  119.284">  5  7 -1 -1</clus>
<clus scale="  370.724">  1  9  2 -1</clus>
<clus scale="  370.724">  1  5  2 -1</clus>
</clustering>
</event>
<event>
 9    2  0.1488992E-004  0.2086660E+03  0.7546771E-02  0.1158351E+00
         21   -1    0    0  501  502  0.00000000000E+00  0.00000000000E+00  0.63616809169E+03  0.63616809169E+03  0.00000000000E+00 0.  1.
         -3   -1    0    0    0  501 -0.00000000000E+00 -0.00000000000E+00 -0.28882489164E+03  0.28882489164E+03  0.00000000000E+00 0.  1.
         23    2    1    2    0    0  0.31535318878E+02  0.10619360803E+03  0.20029172854E+03  0.24657128481E+03  0.91700944630E+02 0.  0.
         24    2    1    2    0    0 -0.10367343724E+03  0.82482833499E+02 -0.21466030248E+03  0.26412939210E+03  0.78317883664E+02 0.  0.
        -11    1    4    4    0    0 -0.53806264458E+02  0.87106875517E+02 -0.16038287031E+03  0.19027713196E+03  0.00000000000E+00 0.  1.
         12    1    4    4    0    0 -0.49867172779E+02 -0.46240420182E+01 -0.54277432164E+02  0.73852260141E+02  0.00000000000E+00 0. -1.
        -13    1    3    3    0    0  0.19564699955E+02 -0.76346214205E+01  0.70309435710E+02  0.73379027511E+02  0.00000000000E+00 0. -1.
         13    1    3    3    0    0  0.11970618923E+02  0.11382822945E+03  0.12998229283E+03  0.17319225730E+03  0.00000000000E+00 0.  1.
         -4    1    1    2    0  502  0.72138118358E+02 -0.18867644153E+03  0.36171177400E+03  0.41429230642E+03  0.00000000000E+00 0.  1.
<scales pt_clust_5="13000.00000" pt_clust_6="13000.00000" pt_clust_7="13000.00000" pt_clust_8="13000.00000" pt_clust_9="193.41097"></scales>
<clustering>
<clus scale="   78.318">  5  6 -1 -1</clus>
<clus scale="   91.701">  7  8 -1 -1</clus>
<clus scale="  143.808">  2  7  1 -1</clus>
<clus scale="  193.411">  1  9  2 -1</clus>
<clus scale="  193.411">  1  5  2 -1</clus>
</clustering>
</event>
<event>
 9    2  0.1488992E-004  0.3551470E+03  0.7546771E-02  0.1060749E+00
          2   -1    0    0  502    0 -0.00000000000E+00  0.00000000000E+00  0.62384072526E+03  0.62384072526E+03  0.00000000000E+00 0. -1.
         21   -1    0    0  501  502  0.00000000000E+00 -0.00000000000E+00 -0.48102148735E+03  0.48102148735E+03  0.00000000000E+00 0.  1.
         24    2    1    2    0    0 -0.12336218707E+03 -0.31054730256E+03  0.14741405675E+02  0.34429955272E+03  0.81651801173E+02 0.  0.
         23    2    1    2    0    0  0.32648552037E+02  0.36872032762E+03 -0.18916681021E+03  0.42551456249E+03  0.90873279097E+02 0.  0.
        -13    1    3    3    0    0 -0.13091181881E+03 -0.26678441416E+03  0.26522102884E+02  0.29835423557E+03  0.00000000000E+00 0.  1.
         14    1    3    3    0    0  0.75496317466E+01 -0.43762888403E+02 -0.11780697209E+02  0.45945317145E+02  0.00000000000E+00 0. -1.
        -13    1    4    4    0    0  0.15947476869E+01  0.29970754251E+03 -0.17915984542E+03  0.34917818442E+03  0.00000000000E+00 0.  1.
         13    1    4    4    0    0  0.31053804350E+02  0.69012785105E+02 -0.10006964783E+02  0.76336378069E+02  0.00000000000E+00 0. -1.
          1    1    1    2  501    0  0.90713635030E+02 -0.58173025061E+02  0.31724464244E+03  0.33504809741E+03  0.00000000000E+00 0. -1.
<scales pt_clust_5="13000.00000" pt_clust_6="13000.00000" pt_clust_7="13000.00000" pt_clust_8="13000.00000" pt_clust_9="107.76398"></scales>
<clustering>
<clus scale="   81.652">  5  6 -1 -1</clus>
<clus scale="   90.873">  7  8 -1 -1</clus>
<clus scale="  107.764">  2  9  1 -1</clus>
<clus scale="  352.900">  1  5  2 -1</clus>
<clus scale="  107.764">  2  5  1 -1</clus>
</clustering>
</event>
<event>
 9    2  0.1488992E-004  0.1167553E+03  0.7546771E-02  0.1252793E+00
          2   -1    0    0  502    0 -0.00000000000E+00  0.00000000000E+00  0.46059547153E+03  0.46059547153E+03  0.00000000000E+00 0. -1.
         21   -1    0    0  501  502  0.00000000000E+00 -0.00000000000E+00 -0.10435825140E+03  0.10435825140E+03  0.00000000000E+00 0. -1.
         23    2    1    2    0    0 -0.57664665727E+02  0.37378894380E+02  0.33463800400E+03  0.35401755890E+03  0.92862494421E+02 0.  0.
         24    2    1    2    0    0  0.33045178189E+02 -0.85001690544E+02  0.68528826733E+02  0.13968703609E+03  0.80616355424E+02 0.  0.
        -13    1    4    4    0    0  0.22705092711E+02  0.52564582145E+01  0.36601776384E+02  0.43391722972E+02  0.00000000000E+00 0.  1.
         14    1    4    4    0    0  0.10340085478E+02 -0.90258148759E+02  0.31927050349E+02  0.96295313121E+02  0.00000000000E+00 0. -1.
        -13    1    3    3    0    0 -0.48355420786E+01  0.40626603868E+02  0.50508020446E+02  0.64999719525E+02  0.00000000000E+00 0.  1.
         13    1    3    3    0    0 -0.52829123649E+02 -0.32477094875E+01  0.28412998355E+03  0.28901783938E+03  0.00000000000E+00 0. -1.
          1    1    1    2  501    0  0.24619487538E+02  0.47622796164E+02 -0.46929610601E+02  0.71249127940E+02  0.00000000000E+00 0. -1.
<scales pt_clust_5="13000.00000" pt_clust_6="13000.00000" pt_clust_7="13000.00000" pt_clust_8="13000.00000" pt_clust_9="53.61017"></scales>
<clustering>
<clus scale="   53.610">  2  9  1 -1</clus>
<clus scale="   80.616">  5  6 -1 -1</clus>
<clus scale="   92.862">  7  8 -1 -1</clus>
<clus scale="  107.272">  2  5  1 -1</clus>
<clus scale="   53.610">  2  5  1 -1</clus>
</clustering>
</event>
<event>
 9    2  0.1488992E-004  0.9388301E+02  0.7546771E-02  0.1299258E+00
         21   -1    0    0  501  502  0.00000000000E+00  0.00000000000E+00  0.38551919313E+03  0.38551919313E+03  0.00000000000E+00 0. -1.
         -1   -1    0    0    0  501 -0.00000000000E+00 -0.00000000000E+00 -0.39774600433E+02  0.39774600433E+02  0.00000000000E+00 0.  1.
         24    2    1    2    0    0 -0.19155556904E+02 -0.36420815512E+00  0.45076224315E+02  0.95199199562E+02  0.81633042273E+02 0.  0.
         23    2    1    2    0    0  0.28484470036E+02  0.18541120177E+02  0.15487099867E+03  0.18287264670E+03  0.91116631373E+02 0.  0.
        -11    1    3    3    0    0 -0.14485469631E+02 -0.40465002928E+02  0.28421618546E+02  0.51527019059E+02  0.00000000000E+00 0.  1.
         12    1    3    3    0    0 -0.46700872736E+01  0.40100794772E+02  0.16654605769E+02  0.43672180503E+02  0.00000000000E+00 0. -1.
        -13    1    4    4    0    0  0.37735134576E+02 -0.11538239212E+02  0.19732814416E+02  0.44118650368E+02  0.00000000000E+00 0.  1.
         13    1    4    4    0    0 -0.92506645402E+01  0.30079359389E+02  0.13513818425E+03  0.13875399633E+03  0.00000000000E+00 0. -1.
         -2    1    1    2    0  502 -0.93289131313E+01 -0.18176912022E+02  0.14579736971E+03  0.14722194730E+03  0.00000000000E+00 0.  1.
<scales pt_clust_5="13000.00000" pt_clust_6="13000.00000" pt_clust_7="13000.00000" pt_clust_8="13000.00000" pt_clust_9="20.43107"></scales>
<clustering>
<clus scale="   20.431">  1  9  2 -1</clus>
<clus scale="   81.633">  5  6 -1 -1</clus>
<clus scale="   84.710">  2  5  1 -1</clus>
<clus scale="   91.117">  7  8 -1 -1</clus>
<clus scale="   20.431">  1  5  2 -1</clus>
</clustering>
</event>
<event>
 9    2  0.1488992E-004  0.1031764E+03  0.7546771E-02  0.1277335E+00
         21   -1    0    0  501  502  0.00000000000E+00  0.00000000000E+00  0.69621367853E+02  0.69621367853E+02  0.00000000000E+00 0.  1.
         -1   -1    0    0    0  501 -0.00000000000E+00 -0.00000000000E+00 -0.20983194972E+03  0.20983194972E+03  0.00000000000E+00 0.  1.
         23    2    1    2    0    0 -0.42536099774E+02  0.33162794738E+02 -0.11091911991E+03  0.15303577066E+03  0.90596938139E+02 0.  0.
         24    2    1    2    0    0  0.18069311120E+02 -0.42137671024E+02 -0.32842937799E+02  0.10011573839E+03  0.82718916737E+02 0.  0.
        -13    1    4    4    0    0  0.11280841370E+02 -0.67290696201E+02 -0.27244207301E+02  0.73467965868E+02  0.00000000000E+00 0.  1.
         14    1    4    4    0    0  0.67884697499E+01  0.25153025177E+02 -0.55987304974E+01  0.26647772520E+02  0.00000000000E+00 0. -1.
        -13    1    3    3    0    0 -0.70638918448E+02  0.18727350817E+02 -0.85575783932E+02  0.11253348508E+03  0.00000000000E+00 0.  1.
         13    1    3    3    0    0  0.28102818674E+02  0.14435443921E+02 -0.25343335975E+02  0.40502285577E+02  0.00000000000E+00 0. -1.
         -2    1    1    2    0  502  0.24466788654E+02  0.89748762864E+01  0.35514758377E+01  0.26301808531E+02  0.00000000000E+00 0.  1.
<scales pt_clust_5="13000.00000" pt_clust_6="13000.00000" pt_clust_7="13000.00000" pt_clust_8="13000.00000" pt_clust_9="26.06093"></scales>
<clustering>
<clus scale="   26.061">  1  9  2 -1</clus>
<clus scale="   82.719">  5  6 -1 -1</clus>
<clus scale="   90.597">  7  8 -1 -1</clus>
<clus scale="   96.333">  1  5  2 -1</clus>
<clus scale="   26.061">  1  5  2 -1</clus>
</clustering>
</event>
<event>
 9    2  0.1488992E-004  0.8993621E+02  0.7546771E-02  0.1305284E+00
          2   -1    0    0  502    0 -0.00000000000E+00  0.00000000000E+00  0.31119260688E+03  0.31119260688E+03  0.00000000000E+00 0. -1.
         21   -1    0    0  501  502  0.00000000000E+00 -0.00000000000E+00 -0.96974775808E+02  0.96974775808E+02  0.00000000000E+00 0. -1.
         23    2    1    2    0    0  0.23540184716E+02  0.24407985871E+02  0.21628728548E+03  0.23511368272E+03  0.85722598358E+02 0.  0.
         24    2    1    2    0    0  0.46390513343E+02 -0.14623693911E+02 -0.25641217204E+02  0.98611353818E+02  0.81858383385E+02 0.  0.
        -13    1    4    4    0    0 -0.20697150108E+02 -0.11240742242E+02  0.60806685031E+01  0.24324901607E+02  0.00000000000E+00 0.  1.
         14    1    4    4    0    0  0.67087663451E+02 -0.33829516692E+01 -0.31721885707E+02  0.74286452211E+02  0.00000000000E+00 0. -1.
        -11    1    3    3    0    0 -0.31054074920E+02  0.19796952797E+02  0.10000280221E+03  0.10656845387E+03  0.00000000000E+00 0.  1.
         11    1    3    3    0    0  0.54594259636E+02  0.46110330746E+01  0.11628448327E+03  0.12854522885E+03  0.00000000000E+00 0. -1.
          1    1    1    2  501    0 -0.69930698058E+02 -0.97842919598E+01  0.23571762801E+02  0.74442346159E+02  0.00000000000E+00 0. -1.
<scales pt_clust_5="13000.00000" pt_clust_6="13000.00000" pt_clust_7="13000.00000" pt_clust_8="13000.00000" pt_clust_9="70.61186"></scales>
<clustering>
<clus scale="   70.612">  2  9  1 -1</clus>
<clus scale="   81.858">  5  6 -1 -1</clus>
<clus scale="   85.723">  7  8 -1 -1</clus>
<clus scale="   86.261">  2  5  1 -1</clus>
<clus scale="   70.612">  2  5  1 -1</clus>
</clustering>
</event>
<event>
 9    2  0.1488992E-004  0.1056993E+03  0.7546771E-02  0.1276133E+00
         -1   -1    0    0    0  501 -0.00000000000E+00  0.00000000000E+00  0.26880920985E+03  0.26880920985E+03  0.00000000000E+00 0.  1.
         21   -1    0    0  501  502  0.00000000000E+00 -0.00000000000E+00 -0.96379328244E+02  0.96379328244E+02  0.00000000000E+00 0.  1.
         23    2    1    2    0    0  0.91015415026E+00 -0.41071737900E+02  0.14253789080E+03  0.17656548969E+03  0.95763280028E+02 0.  0.
         24    2    1    2    0    0 -0.59142797146E+02  0.35485239781E+02  0.61384165966E+02  0.12218505650E+03  0.80025617803E+02 0.  0.
        -13    1    4    4    0    0 -0.65961418271E+02 -0.22581284742E+01  0.47818887957E+02  0.81502477815E+02  0.00000000000E+00 0.  1.
         14    1    4    4    0    0  0.68186211249E+01  0.37743368255E+02  0.13565278009E+02  0.40682578688E+02  0.00000000000E+00 0. -1.
        -11    1    3    3    0    0  0.51346490949E+01  0.28769880949E+02  0.19851043522E+02  0.35328948471E+02  0.00000000000E+00 0. -1.
         11    1    3    3    0    0 -0.42244949447E+01 -0.69841618849E+02  0.12268684728E+03  0.14123654122E+03  0.00000000000E+00 0.  1.
         -2    1    1    2    0  502  0.58232642996E+02  0.55864981189E+01 -0.31492175160E+02  0.66437991901E+02  0.00000000000E+00 0.  1.
<scales pt_clust_5="13000.00000" pt_clust_6="13000.00000" pt_clust_7="13000.00000" pt_clust_8="13000.00000" pt_clust_9="58.50000"></scales>
<clustering>
<clus scale="   58.500">  2  9  1 -1</clus>
<clus scale="   80.026">  5  6 -1 -1</clus>
<clus scale="   91.683">  2  5  1 -1</clus>
<clus scale="   95.763">  7  8 -1 -1</clus>
<clus scale="   58.500">  2  5  1 -1</clus>
</clustering>
</event>
<event>
 9    2  0.1488992E-004  0.1035554E+03  0.7546771E-02  0.1283098E+00
         -1   -1    0    0    0  501 -0.00000000000E+00  0.00000000000E+00  0.41913222570E+03  0.41913222570E+03  0.00000000000E+00 0.  1.
         21   -1    0    0  501  502  0.00000000000E+00 -0.00000000000E+00 -0.12581582692E+03  0.12581582692E+03  0.00000000000E+00 0. -1.
         24    2    1    2    0    0 -0.25411719984E+02 -0.10526915642E+02  0.37536481146E+03  0.38490160525E+03  0.80584940119E+02 0.  0.
         23    2    1    2    0    0  0.47700925892E+02 -0.44144058945E+01 -0.64710995515E+02  0.12809902458E+03  0.99634240339E+02 0.  0.
        -13    1    3    3    0    0 -0.34601607117E+02  0.27142974614E+02  0.15356236205E+03  0.15973544166E+03  0.00000000000E+00 0.  1.
         14    1    3    3    0    0  0.91898871326E+01 -0.37669890256E+02  0.22180244941E+03  0.22516616358E+03  0.00000000000E+00 0. -1.
        -13    1    4    4    0    0  0.26901412271E+02 -0.10010681585E+02  0.23624472994E+02  0.37175468420E+02  0.00000000000E+00 0.  1.
         13    1    4    4    0    0  0.20799513621E+02  0.55962756902E+01 -0.88335468509E+02  0.90923556162E+02  0.00000000000E+00 0. -1.
         -2    1    1    2    0  502 -0.22289205908E+02  0.14941321536E+02 -0.17337417160E+02  0.31947422792E+02  0.00000000000E+00 0.  1.
<scales pt_clust_5="13000.00000" pt_clust_6="13000.00000" pt_clust_7="13000.00000" pt_clust_8="13000.00000" pt_clust_9="26.83378"></scales>
<clustering>
<clus scale="   26.834">  2  9  1 -1</clus>
<clus scale="   80.585">  5  6 -1 -1</clus>
<clus scale="   85.385">  1  5  2 -1</clus>
<clus scale="   99.634">  7  8 -1 -1</clus>
<clus scale="   26.834">  2  5  1 -1</clus>
</clustering>
</event>
<event>
 9    2  0.1488992E-004  0.1000279E+03  0.7546771E-02  0.1285221E+00
         -1   -1    0    0    0  501 -0.00000000000E+00  0.00000000000E+00  0.29938577855E+02  0.29938577855E+02  0.00000000000E+00 0.  1.
         21   -1    0    0  501  502  0.00000000000E+00 -0.00000000000E+00 -0.51741788386E+03  0.51741788386E+03  0.00000000000E+00 0. -1.
         23    2    1    2    0    0 -0.26500440093E+02  0.53780320071E+02 -0.15893641632E+03  0.19266098579E+03  0.90900356758E+02 0.  0.
         24    2    1    2    0    0  0.13635268907E+02 -0.94535381071E+01 -0.25338989330E+03  0.26650052656E+03  0.80875229143E+02 0.  0.
        -13    1    4    4    0    0 -0.33586346217E+02  0.25269981312E+01 -0.95495361981E+02  0.10126101190E+03  0.00000000000E+00 0.  1.
         14    1    4    4    0    0  0.47221615124E+02 -0.11980536238E+02 -0.15789453132E+03  0.16523951466E+03  0.00000000000E+00 0. -1.
        -11    1    3    3    0    0  0.13081766239E+02 -0.17165864406E+02 -0.64883171713E+02  0.68378545467E+02  0.00000000000E+00 0. -1.
         11    1    3    3    0    0 -0.39582206332E+02  0.70946184477E+02 -0.94053244611E+02  0.12428244032E+03  0.00000000000E+00 0.  1.
         -2    1    1    2    0  502  0.12865171186E+02 -0.44326781964E+02 -0.75152996375E+02  0.88194949362E+02  0.00000000000E+00 0.  1.
<scales pt_clust_5="13000.00000" pt_clust_6="13000.00000" pt_clust_7="13000.00000" pt_clust_8="13000.00000" pt_clust_9="46.15602"></scales>
<clustering>
<clus scale="   46.156">  2  9  1 -1</clus>
<clus scale="   80.875">  5  6 -1 -1</clus>
<clus scale="   90.900">  7  8 -1 -1</clus>
<clus scale="   91.014">  2  5  1 -1</clus>
<clus scale="   46.156">  2  5  1 -1</clus>
</clustering>
</event>
<event>
 9    2  0.1488992E-004  0.1714215E+03  0.7546771E-02  0.1177996E+00
         21   -1    0    0  501  502  0.00000000000E+00  0.00000000000E+00  0.10886219987E+03  0.10886219987E+03  0.00000000000E+00 0.  1.
          2   -1    0    0  502    0 -0.00000000000E+00 -0.00000000000E+00 -0.60735338998E+03  0.60735338998E+03  0.00000000000E+00 0. -1.
         23    2    1    2    0    0  0.11609965911E+03  0.77372297275E+02 -0.46172587364E+03  0.49108564686E+03  0.92242760838E+02 0.  0.
         24    2    1    2    0    0 -0.14280895555E+03 -0.95686731193E+02 -0.30047507566E+02  0.19205527047E+03  0.80199912036E+02 0.  0.
        -13    1    4    4    0    0 -0.45310708331E+02 -0.61935411222E+02  0.17093680525E+02  0.78620921940E+02  0.00000000000E+00 0.  1.
         14    1    4    4    0    0 -0.97498247221E+02 -0.33751319971E+02 -0.47141188091E+02  0.11343434853E+03  0.00000000000E+00 0. -1.
        -11    1    3    3    0    0  0.10645308301E+03  0.97866652313E+02 -0.39969126481E+03  0.42504499490E+03  0.00000000000E+00 0. -1.
         11    1    3    3    0    0  0.96465760962E+01 -0.20494355039E+02 -0.62034608830E+02  0.66040651962E+02  0.00000000000E+00 0.  1.
          1    1    1    2  501    0  0.26709296447E+02  0.18314433918E+02 -0.67178088914E+01  0.33074672527E+02  0.00000000000E+00 0. -1.
<scales pt_clust_5="13000.00000" pt_clust_6="13000.00000" pt_clust_7="13000.00000" pt_clust_8="13000.00000" pt_clust_9="32.38526"></scales>
<clustering>
<clus scale="   32.385">  1  9  2 -1</clus>
<clus scale="   80.200">  5  6 -1 -1</clus>
<clus scale="   92.243">  7  8 -1 -1</clus>
<clus scale="  165.253">  1  5  2 -1</clus>
<clus scale="   32.385">  1  5  2 -1</clus>
</clustering>
</event>
<event>
 9    2  0.1488992E-004  0.1046000E+03  0.7546771E-02  0.1277462E+00
          2   -1    0    0  502    0 -0.00000000000E+00  0.00000000000E+00  0.11848645586E+03  0.11848645586E+03  0.00000000000E+00 0. -1.
         21   -1    0    0  501  502  0.00000000000E+00 -0.00000000000E+00 -0.32371428142E+03  0.32371428142E+03  0.00000000000E+00 0.  1.
         24    2    1    2    0    0  0.36611993115E+02 -0.27752963501E+02  0.85617105691E+02  0.12649034180E+03  0.80986744345E+02 0.  0.
         23    2    1    2    0    0 -0.12765365894E+02  0.21133732392E+02 -0.22798825289E+03  0.24815717302E+03  0.94835382911E+02 0.  0.
        -13    1    3    3    0    0 -0.23409404556E+02  0.48759152998E+01  0.14955130085E+02  0.28203380782E+02  0.00000000000E+00 0.  1.
         14    1    3    3    0    0  0.60021397671E+02 -0.32628878800E+02  0.70661975606E+02  0.98286961021E+02  0.00000000000E+00 0. -1.
        -11    1    4    4    0    0  0.33415597292E+02 -0.13807507203E+02 -0.55782783620E+02  0.66475321330E+02  0.00000000000E+00 0. -1.
         11    1    4    4    0    0 -0.46180963186E+02  0.34941239596E+02 -0.17220546927E+03  0.18168185169E+03  0.00000000000E+00 0.  1.
          1    1    1    2  501    0 -0.23846627221E+02  0.66192311085E+01 -0.62856678359E+02  0.67553222460E+02  0.00000000000E+00 0. -1.
<scales pt_clust_5="13000.00000" pt_clust_6="13000.00000" pt_clust_7="13000.00000" pt_clust_8="13000.00000" pt_clust_9="24.74825"></scales>
<clustering>
<clus scale="   24.748">  2  9  1 -1</clus>
<clus scale="   80.987">  5  6 -1 -1</clus>
<clus scale="   92.229">  1  5  2 -1</clus>
<clus scale="   94.835">  7  8 -1 -1</clus>
<clus scale="   24.748">  2  5  1 -1</clus>
</clustering>
</event>
<event>
 9    2  0.1488992E-004  0.1365201E+03  0.7546771E-02  0.1220637E+00
         21   -1    0    0  501  502  0.00000000000E+00  0.00000000000E+00  0.59634453610E+02  0.59634453610E+02  0.00000000000E+00 0.  1.
         -1   -1    0    0    0  501 -0.00000000000E+00 -0.00000000000E+00 -0.66745646869E+03  0.66745646869E+03  0.00000000000E+00 0.  1.
         24    2    1    2    0    0  0.57112213890E+02 -0.44203573760E+02 -0.18822065349E+03  0.21693913695E+03  0.80123740764E+02 0.  0.
         23    2    1    2    0    0 -0.77514214222E+02  0.11294175814E+03 -0.40475982321E+03  0.43692985645E+03  0.91175055967E+02 0.  0.
        -11    1    3    3    0    0  0.24979926087E+02 -0.27145421910E+02 -0.17401867137E+03  0.17788583031E+03  0.00000000000E+00 0.  1.
         12    1    3    3    0    0  0.32132287803E+02 -0.17058151850E+02 -0.14201982117E+02  0.39053306646E+02  0.00000000000E+00 0. -1.
        -13    1    4    4    0    0 -0.38789201178E+02  0.58657071853E+02 -0.85132829853E+02  0.11042125214E+03  0.00000000000E+00 0.  1.
         13    1    4    4    0    0 -0.38725013044E+02  0.54284686291E+02 -0.31962699336E+03  0.32650860431E+03  0.00000000000E+00 0. -1.
         -2    1    1    2    0  502  0.20402000333E+02 -0.68738184384E+02 -0.14841538380E+02  0.73221928898E+02  0.00000000000E+00 0.  1.
<scales pt_clust_5="13000.00000" pt_clust_6="13000.00000" pt_clust_7="13000.00000" pt_clust_8="13000.00000" pt_clust_9="71.70202"></scales>
<clustering>
<clus scale="   71.702">  1  9  2 -1</clus>
<clus scale="   80.124">  5  6 -1 -1</clus>
<clus scale="   91.175">  7  8 -1 -1</clus>
<clus scale="  129.401">  2  5  1 -1</clus>
<clus scale="   71.702">  1  5  2 -1</clus>
</clustering>
</event>
<event>
 9    2  0.1488992E-004  0.1903806E+03  0.7546771E-02  0.1190822E+00
          2   -1    0    0  502    0 -0.00000000000E+00  0.00000000000E+00  0.71132917879E+03  0.71132917879E+03  0.00000000000E+00 0. -1.
         21   -1    0    0  501  502  0.00000000000E+00 -0.00000000000E+00 -0.98465497080E+02  0.98465497080E+02  0.00000000000E+00 0. -1.
         23    2    1    2    0    0  0.84488852774E+01 -0.36265749886E+02  0.12395535585E+03  0.15354638646E+03  0.82613402499E+02 0.  0.
         24    2    1    2    0    0 -0.40796017087E+02  0.17747846838E+03  0.66037924550E+02  0.20925081168E+03  0.79132628926E+02 0.  0.
        -13    1    4    4    0    0 -0.14217580035E+02  0.39574066966E+02 -0.17827835530E+02  0.45673603733E+02  0.00000000000E+00 0.  1.
         14    1    4    4    0    0 -0.26578437052E+02  0.13790440141E+03  0.83865760081E+02  0.16357720794E+03  0.00000000000E+00 0. -1.
        -11    1    3    3    0    0  0.51547320668E+01  0.25658847090E+02  0.54356185243E+02  0.60328621489E+02  0.00000000000E+00 0.  1.
         11    1    3    3    0    0  0.32941532105E+01 -0.61924596977E+02  0.69599170608E+02  0.93217764967E+02  0.00000000000E+00 0. -1.
          1    1    1    2  501    0  0.32347131809E+02 -0.14121271849E+03  0.42287040131E+03  0.44699747773E+03  0.00000000000E+00 0. -1.
<scales pt_clust_5="13000.00000" pt_clust_6="13000.00000" pt_clust_7="13000.00000" pt_clust_8="13000.00000" pt_clust_9="173.15549"></scales>
<clustering>
<clus scale="   79.133">  5  6 -1 -1</clus>
<clus scale="   82.613">  7  8 -1 -1</clus>
<clus scale="   90.618">  1  7  2 -1</clus>
<clus scale="  173.155">  2  9  1 -1</clus>
<clus scale="  173.155">  2  5  1 -1</clus>
</clustering>
</event>
<event>
 9    2  0.1488992E-004  0.8922889E+02  0.7546771E-02  0.1309056E+00
          2   -1    0    0  502    0 -0.00000000000E+00  0.00000000000E+00  0.22676185848E+03  0.22676185848E+03  0.00000000000E+00 0. -1.
         21   -1    0    0  501  502  0.00000000000E+00 -0.00000000000E+00 -0.12571257541E+03  0.12571257541E+03  0.00000000000E+00 0. -1.
         24    2    1    2    0    0 -0.12216993330E+02 -0.12246678276E+02  0.74941045922E+02  0.11174657599E+03  0.81067261133E+02 0.  0.
         23    2    1    2    0    0  0.29282498595E+02 -0.64764651083E+02 -0.56587944361E+02  0.12644472373E+03  0.87944004670E+02 0.  0.
        -11    1    3    3    0    0 -0.11120084441E+01  0.24597994641E+02 -0.30177735951E+01  0.24807354970E+02  0.00000000000E+00 0.  1.
         12    1    3    3    0    0 -0.11104984886E+02 -0.36844672917E+02  0.77958819517E+02  0.86939221024E+02  0.00000000000E+00 0. -1.
        -13    1    4    4    0    0 -0.24206547849E+01 -0.49855449258E+02 -0.72456088560E+02  0.87984715489E+02  0.00000000000E+00 0. -1.
         13    1    4    4    0    0  0.31703153380E+02 -0.14909201825E+02  0.15868144199E+02  0.38460008238E+02  0.00000000000E+00 0.  1.
          1    1    1    2  501    0 -0.17065505265E+02  0.77011329359E+02  0.82696181509E+02  0.11428313417E+03  0.00000000000E+00 0. -1.
<scales pt_clust_5="13000.00000" pt_clust_6="13000.00000" pt_clust_7="13000.00000" pt_clust_8="13000.00000" pt_clust_9="78.87954"></scales>
<clustering>
<clus scale="   78.880">  2  9  1 -1</clus>
<clus scale="   81.067">  5  6 -1 -1</clus>
<clus scale="   82.459">  1  5  2 -1</clus>
<clus scale="   87.944">  7  8 -1 -1</clus>
<clus scale="   78.880">  2  5  1 -1</clus>
</clustering>
</event>
<event>
 9    2  0.1488992E-004  0.1043636E+03  0.7546771E-02  0.1272098E+00
          4   -1    0    0  502    0 -0.00000000000E+00  0.00000000000E+00  0.26649912039E+03  0.26649912039E+03  0.00000000000E+00 0. -1.
         21   -1    0    0  501  502  0.00000000000E+00 -0.00000000000E+00 -0.10525083248E+03  0.10525083248E+03  0.00000000000E+00 0. -1.
         24    2    1    2    0    0  0.36102714203E+02 -0.42536688302E+01  0.14226442112E+03  0.17242956668E+03  0.90395189464E+02 0.  0.
         23    2    1    2    0    0 -0.98542602364E+02  0.96992731388E+01  0.19887538415E+02  0.13663696842E+03  0.92029487529E+02 0.  0.
        -11    1    3    3    0    0 -0.15355141207E+02 -0.34295614825E+02  0.61348072901E+02  0.71941334477E+02  0.00000000000E+00 0.  1.
         12    1    3    3    0    0  0.51457855410E+02  0.30041945995E+02  0.80916348221E+02  0.10048823221E+03  0.00000000000E+00 0. -1.
        -13    1    4    4    0    0 -0.10281226714E+03  0.30829567693E+02  0.31878624344E+02  0.11196906362E+03  0.00000000000E+00 0. -1.
         13    1    4    4    0    0  0.42696647771E+01 -0.21130294555E+02 -0.11991085929E+02  0.24667904796E+02  0.00000000000E+00 0.  1.
          3    1    1    2  501    0  0.62439888161E+02 -0.54456043086E+01 -0.90367163406E+00  0.62683417762E+02  0.00000000000E+00 0. -1.
<scales pt_clust_5="13000.00000" pt_clust_6="13000.00000" pt_clust_7="13000.00000" pt_clust_8="13000.00000" pt_clust_9="62.67690"></scales>
<clustering>
<clus scale="   62.677">  2  9  1 -1</clus>
<clus scale="   90.395">  5  6 -1 -1</clus>
<clus scale="   92.029">  7  8 -1 -1</clus>
<clus scale="  102.925">  1  5  2 -1</clus>
<clus scale="   62.677">  2  5  1 -1</clus>
</clustering>
</event>
<event>
 9    2  0.1488992E-004  0.9826078E+02  0.7546771E-02  0.1288130E+00
          2   -1    0    0  502    0 -0.00000000000E+00  0.00000000000E+00  0.65788866261E+03  0.65788866261E+03  0.00000000000E+00 0. -1.
         21   -1    0    0  501  502  0.00000000000E+00 -0.00000000000E+00 -0.42952865491E+02  0.42952865491E+02  0.00000000000E+00 0.  1.
         24    2    1    2    0    0 -0.11421353827E+02 -0.40508501150E+02  0.53857931818E+03  0.54609939085E+03  0.79909177976E+02 0.  0.
         23    2    1    2    0    0  0.33644010352E+02  0.43496908924E+02  0.81088951067E+02  0.13182547657E+03  0.88196585931E+02 0.  0.
        -13    1    3    3    0    0  0.45781679050E+01 -0.21129725105E+02  0.30426440256E+02  0.37325502957E+02  0.00000000000E+00 0.  1.
         14    1    3    3    0    0 -0.15999521732E+02 -0.19378776045E+02  0.50815287793E+03  0.50877388789E+03  0.00000000000E+00 0. -1.
        -13    1    4    4    0    0 -0.64954081702E+01  0.57994527723E+02  0.31203756817E+02  0.66175750941E+02  0.00000000000E+00 0.  1.
         13    1    4    4    0    0  0.40139418522E+02 -0.14497618799E+02  0.49885194250E+02  0.65649725631E+02  0.00000000000E+00 0. -1.
          1    1    1    2  501    0 -0.22222656525E+02 -0.29884077737E+01 -0.47324721332E+01  0.22916660676E+02  0.00000000000E+00 0. -1.
<scales pt_clust_5="13000.00000" pt_clust_6="13000.00000" pt_clust_7="13000.00000" pt_clust_8="13000.00000" pt_clust_9="22.42269"></scales>
<clustering>
<clus scale="   22.423">  2  9  1 -1</clus>
<clus scale="   79.909">  5  6 -1 -1</clus>
<clus scale="   88.197">  7  8 -1 -1</clus>
<clus scale="   90.896">  1  5  2 -1</clus>
<clus scale="   22.423">  2  5  1 -1</clus>
</clustering>
</event>
<event>
 9    2  0.1488992E-004  0.1796380E+03  0.7546771E-02  0.1169211E+00
          2   -1    0    0  502    0 -0.00000000000E+00  0.00000000000E+00  0.36420749084E+03  0.36420749084E+03  0.00000000000E+00 0. -1.
         21   -1    0    0  501  502  0.00000000000E+00 -0.00000000000E+00 -0.13563287261E+03  0.13563287261E+03  0.00000000000E+00 0.  1.
         23    2    1    2    0    0  0.89034231639E+02  0.13873384119E+03  0.13032875156E+03  0.22913423372E+03  0.91338603461E+02 0.  0.
         24    2    1    2    0    0 -0.76551051552E+02 -0.11401455374E+03 -0.84682744638E+01  0.16045740696E+03  0.82555955676E+02 0.  0.
        -11    1    4    4    0    0 -0.67773290674E+02 -0.11738997566E+03 -0.28333170495E+02  0.13847885711E+03  0.00000000000E+00 0.  1.
         12    1    4    4    0    0 -0.87777608780E+01  0.33754219276E+01  0.19864896031E+02  0.21978549851E+02  0.00000000000E+00 0. -1.
        -13    1    3    3    0    0  0.41546881339E+02  0.12847733158E+03  0.71341378765E+02  0.15271594679E+03  0.00000000000E+00 0.  1.
         13    1    3    3    0    0  0.47487350300E+02  0.10256509613E+02  0.58987372798E+02  0.76418286932E+02  0.00000000000E+00 0. -1.
          1    1    1    2  501    0 -0.12483180087E+02 -0.24719287458E+02  0.10671414113E+03  0.11024872278E+03  0.00000000000E+00 0. -1.
<scales pt_clust_5="13000.00000" pt_clust_6="13000.00000" pt_clust_7="13000.00000" pt_clust_8="13000.00000" pt_clust_9="27.69248"></scales>
<clustering>
<clus scale="   27.692">  2  9  1 -1</clus>
<clus scale="   82.556">  5  6 -1 -1</clus>
<clus scale="   91.339">  7  8 -1 -1</clus>
<clus scale="  175.336">  2  5  1 -1</clus>
<clus scale="   27.692">  2  5  1 -1</clus>
</clustering>
</event>
<event>
 9    2  0.1488992E-004  0.1257258E+03  0.7546771E-02  0.1238754E+00
         21   -1    0    0  501  502  0.00000000000E+00  0.00000000000E+00  0.73095888623E+02  0.73095888623E+02  0.00000000000E+00 0.  1.
          2   -1    0    0  502    0 -0.00000000000E+00 -0.00000000000E+00 -0.37514917169E+03  0.37514917169E+03  0.00000000000E+00 0. -1.
         24    2    1    2    0    0  0.93678301048E+02  0.49255820997E+01 -0.19883504912E+03  0.23381983042E+03  0.79601827195E+02 0.  0.
         23    2    1    2    0    0 -0.61519228374E+02 -0.29958188671E+02 -0.12205680970E+03  0.16952835602E+03  0.95707315143E+02 0.  0.
        -11    1    3    3    0    0  0.27178427555E+02 -0.34392766180E+02 -0.92744167029E+02  0.10258172258E+03  0.00000000000E+00 0.  1.
         12    1    3    3    0    0  0.66499873493E+02  0.39318348280E+02 -0.10609088209E+03  0.13123810784E+03  0.00000000000E+00 0. -1.
        -11    1    4    4    0    0 -0.39418019008E+02 -0.27616947374E+02 -0.27922905330E+01  0.48210713449E+02  0.00000000000E+00 0.  1.
         11    1    4    4    0    0 -0.22101209366E+02 -0.23412412963E+01 -0.11926451917E+03  0.12131764257E+03  0.00000000000E+00 0. -1.
          1    1    1    2  501    0 -0.32159072673E+02  0.25032606571E+02  0.18838575756E+02  0.44896873872E+02  0.00000000000E+00 0. -1.
<scales pt_clust_5="13000.00000" pt_clust_6="13000.00000" pt_clust_7="13000.00000" pt_clust_8="13000.00000" pt_clust_9="40.75337"></scales>
<clustering>
<clus scale="   40.753">  1  9  2 -1</clus>
<clus scale="   79.602">  5  6 -1 -1</clus>
<clus scale="   95.707">  7  8 -1 -1</clus>
<clus scale="  113.945">  2  5  1 -1</clus>
<clus scale="   40.753">  1  5  2 -1</clus>
</clustering>
</event>
<event>
 9    2  0.1488992E-004  0.8942935E+02  0.7546771E-02  0.1310728E+00
          4   -1    0    0  502    0 -0.00000000000E+00  0.00000000000E+00  0.25397398572E+03  0.25397398572E+03  0.00000000000E+00 0. -1.
         21   -1    0    0  501  502  0.00000000000E+00 -0.00000000000E+00 -0.87130952636E+02  0.87130952636E+02  0.00000000000E+00 0.  1.
         24    2    1    2    0    0  0.13317737371E+02  0.29308680797E+00  0.19868001320E+03  0.21417473069E+03  0.78864564879E+02 0.  0.
         23    2    1    2    0    0  0.15764969298E+02 -0.85807222230E+01 -0.13858725582E+02  0.91749156462E+02  0.88902645551E+02 0.  0.
        -13    1    3    3    0    0  0.42261786117E+02  0.18110018907E+02  0.11626815597E+03  0.12502925835E+03  0.00000000000E+00 0.  1.
         14    1    3    3    0    0 -0.28944048746E+02 -0.17816932099E+02  0.82411857226E+02  0.89145472340E+02  0.00000000000E+00 0. -1.
        -11    1    4    4    0    0  0.39692581789E+02 -0.65705229559E+01 -0.39666315377E+02  0.56498578713E+02  0.00000000000E+00 0.  1.
         11    1    4    4    0    0 -0.23927612491E+02 -0.20101992671E+01  0.25807589795E+02  0.35250577749E+02  0.00000000000E+00 0. -1.
          3    1    1    2  501    0 -0.29082706669E+02  0.82876354150E+01 -0.17978254529E+02  0.35181051205E+02  0.00000000000E+00 0. -1.
<scales pt_clust_5="13000.00000" pt_clust_6="13000.00000" pt_clust_7="13000.00000" pt_clust_8="13000.00000" pt_clust_9="30.24051"></scales>
<clustering>
<clus scale="   30.241">  2  9  1 -1</clus>
<clus scale="   78.865">  5  6 -1 -1</clus>
<clus scale="   79.458">  1  5  2 -1</clus>
<clus scale="   88.903">  7  8 -1 -1</clus>
<clus scale="   30.241">  2  5  1 -1</clus>
</clustering>
</event>
<event>
 9    2  0.2864688E-004  0.9977260E+02  0.7546771E-02  0.1286619E+00
         21   -1    0    0  501  502  0.00000000000E+00  0.00000000000E+00  0.11513172110E+03  0.11513172110E+03  0.00000000000E+00 0. -1.
          2   -1    0    0  502    0 -0.00000000000E+00 -0.00000000000E+00 -0.13131579934E+04  0.13131579934E+04  0.00000000000E+00 0. -1.
         24    2    1    2    0    0  0.18076491109E+02  0.36363294396E+02 -0.12583499722E+04  0.12615656660E+04  0.80338213286E+02 0.  0.
         23    2    1    2    0    0  0.14179462313E+02  0.13053591074E+02  0.21988934291E+02  0.96353391494E+02  0.91809636911E+02 0.  0.
        -13    1    3    3    0    0  0.97237743809E+01  0.18158211159E+02 -0.68093782560E+02  0.71140956165E+02  0.00000000000E+00 0.  1.
         14    1    3    3    0    0  0.83527167284E+01  0.18205083236E+02 -0.11902561896E+04  0.11904247099E+04  0.00000000000E+00 0. -1.
        -11    1    4    4    0    0 -0.33135153471E+02  0.17117374561E+02 -0.10582808755E+02  0.38767753978E+02  0.00000000000E+00 0. -1.
         11    1    4    4    0    0  0.47314615784E+02 -0.40637834873E+01  0.32571743045E+02  0.57585637515E+02  0.00000000000E+00 0.  1.
          1    1    1    2  501    0 -0.32255953423E+02 -0.49416885470E+02  0.38334765632E+02  0.70370656930E+02  0.00000000000E+00 0. -1.
<scales pt_clust_5="13000.00000" pt_clust_6="13000.00000" pt_clust_7="13000.00000" pt_clust_8="13000.00000" pt_clust_9="59.01250"></scales>
<clustering>
<clus scale="   59.012">  1  9  2 -1</clus>
<clus scale="   80.338">  5  6 -1 -1</clus>
<clus scale="   89.330">  2  5  1 -1</clus>
<clus scale="   91.810">  7  8 -1 -1</clus>
<clus scale="   59.012">  1  5  2 -1</clus>
</clustering>
</event>
<event>
 9    2  0.1488992E-004  0.1036874E+03  0.7546771E-02  0.1273049E+00
         21   -1    0    0  501  502  0.00000000000E+00  0.00000000000E+00  0.18733483116E+02  0.18733483116E+02  0.00000000000E+00 0. -1.
          2   -1    0    0  502    0 -0.00000000000E+00 -0.00000000000E+00 -0.93394432795E+03  0.93394432795E+03  0.00000000000E+00 0. -1.
         24    2    1    2    0    0 -0.52153625202E+02  0.15603281087E+02 -0.64644328289E+03  0.65505458405E+03  0.90797175558E+02 0.  0.
         23    2    1    2    0    0  0.37880567062E+02  0.53098668689E+01 -0.23754994229E+03  0.25742845468E+03  0.91522140223E+02 0.  0.
        -13    1    3    3    0    0 -0.62486670455E+02  0.30554023769E+02 -0.29294902972E+03  0.30109345122E+03  0.00000000000E+00 0.  1.
         14    1    3    3    0    0  0.10333045254E+02 -0.14950742683E+02 -0.35349425317E+03  0.35396113283E+03  0.00000000000E+00 0. -1.
        -13    1    4    4    0    0 -0.24098192014E+02 -0.20485693613E+02 -0.87659308050E+02  0.93190883615E+02  0.00000000000E+00 0. -1.
         13    1    4    4    0    0  0.61978759076E+02  0.25795560482E+02 -0.14989063424E+03  0.16423757107E+03  0.00000000000E+00 0.  1.
          1    1    1    2  501    0  0.14273058140E+02 -0.20913147956E+02 -0.31217619655E+02  0.40194772335E+02  0.00000000000E+00 0. -1.
<scales pt_clust_5="13000.00000" pt_clust_6="13000.00000" pt_clust_7="13000.00000" pt_clust_8="13000.00000" pt_clust_9="25.31956"></scales>
<clustering>
<clus scale="   25.320">  1  9  2 -1</clus>
<clus scale="   90.797">  5  6 -1 -1</clus>
<clus scale="   91.522">  7  8 -1 -1</clus>
<clus scale="  103.048">  2  5  1 -1</clus>
<clus scale="   25.320">  1  5  2 -1</clus>
</clustering>
</event>
<event>
 9    2  0.1488992E-004  0.4424644E+03  0.7546771E-02  0.1065694E+00
         21   -1    0    0  501  502  0.00000000000E+00  0.00000000000E+00  0.22604941512E+03  0.22604941512E+03  0.00000000000E+00 0. -1.
          2   -1    0    0  502    0 -0.00000000000E+00 -0.00000000000E+00 -0.13802591139E+04  0.13802591139E+04  0.00000000000E+00 0. -1.
         24    2    1    2    0    0 -0.64682939064E+02  0.12017510671E+03 -0.21539803189E+03  0.26775089097E+03  0.81659589736E+02 0.  0.
         23    2    1    2    0    0 -0.40935406250E+03 -0.89854667888E+02 -0.23387524223E+03  0.48851895031E+03  0.91151116625E+02 0.  0.
        -13    1    3    3    0    0 -0.32300546503E+02  0.96348834115E+02 -0.88897685575E+02  0.13501563480E+03  0.00000000000E+00 0.  1.
         14    1    3    3    0    0 -0.32382392561E+02  0.23826272594E+02 -0.12650034631E+03  0.13273525617E+03  0.00000000000E+00 0. -1.
        -13    1    4    4    0    0 -0.29201268099E+03 -0.32009664923E+02 -0.19287144132E+03  0.35141914772E+03  0.00000000000E+00 0.  1.
         13    1    4    4    0    0 -0.11734138151E+03 -0.57845002964E+02 -0.41003800913E+02  0.13709980259E+03  0.00000000000E+00 0. -1.
          1    1    1    2  501    0  0.47403700156E+03 -0.30320438821E+02 -0.70493642470E+03  0.85003868778E+03  0.00000000000E+00 0. -1.
<scales pt_clust_5="13000.00000" pt_clust_6="13000.00000" pt_clust_7="13000.00000" pt_clust_8="13000.00000" pt_clust_9="432.97396"></scales>
<clustering>
<clus scale="   81.660">  5  6 -1 -1</clus>
<clus scale="   91.151">  7  8 -1 -1</clus>
<clus scale="  159.042">  2  5  1 -1</clus>
<clus scale="  432.974">  1  9  2 -1</clus>
<clus scale="  432.974">  1  5  2 -1</clus>
</clustering>
</event>
<event>
 9    2  0.1488992E-004  0.1127804E+03  0.7546771E-02  0.1260782E+00
         21   -1    0    0  501  502  0.00000000000E+00  0.00000000000E+00  0.21899919419E+03  0.21899919419E+03  0.00000000000E+00 0. -1.
         -1   -1    0    0    0  501 -0.00000000000E+00 -0.00000000000E+00 -0.95044079124E+02  0.95044079124E+02  0.00000000000E+00 0.  1.
         24    2    1    2    0    0  0.59607069695E+02  0.47304336214E+02  0.44361214692E+02  0.11809345890E+03  0.78660311993E+02 0.  0.
         23    2    1    2    0    0 -0.62081856637E+02  0.12417764715E+02  0.77105395185E+02  0.13612468117E+03  0.92608471821E+02 0.  0.
        -13    1    3    3    0    0  0.71153137151E+02  0.48491692668E+02  0.16176292968E+02  0.87612131799E+02  0.00000000000E+00 0.  1.
         14    1    3    3    0    0 -0.11546067455E+02 -0.11873564537E+01  0.28184921723E+02  0.30481327097E+02  0.00000000000E+00 0. -1.
        -11    1    4    4    0    0 -0.34566046978E+02 -0.21854488022E+02 -0.67505618040E+01  0.41448767594E+02  0.00000000000E+00 0.  1.
         11    1    4    4    0    0 -0.27515809659E+02  0.34272252738E+02  0.83855956989E+02  0.94675913576E+02  0.00000000000E+00 0. -1.
         -2    1    1    2    0  502  0.24747869413E+01 -0.59722100929E+02  0.24885051873E+01  0.59825133246E+02  0.00000000000E+00 0.  1.
<scales pt_clust_5="13000.00000" pt_clust_6="13000.00000" pt_clust_7="13000.00000" pt_clust_8="13000.00000" pt_clust_9="59.77338"></scales>
<clustering>
<clus scale="   59.773">  1  9  2 -1</clus>
<clus scale="   78.660">  5  6 -1 -1</clus>
<clus scale="   92.608">  7  8 -1 -1</clus>
<clus scale="  101.639">  2  5  1 -1</clus>
<clus scale="   59.773">  1  5  2 -1</clus>
</clustering>
</event>
<event>
 9    2  0.1488992E-004  0.1449795E+03  0.7546771E-02  0.1209681E+00
         21   -1    0    0  501  502  0.00000000000E+00  0.00000000000E+00  0.48699689451E+02  0.48699689451E+02  0.00000000000E+00 0. -1.
          2   -1    0    0  502    0 -0.00000000000E+00 -0.00000000000E+00 -0.82428075286E+03  0.82428075286E+03  0.00000000000E+00 0. -1.
         24    2    1    2    0    0  0.10886107992E+03  0.51980079508E+02 -0.38116082227E+03  0.40784124271E+03  0.80611682975E+02 0.  0.
         23    2    1    2    0    0 -0.48505312354E+02 -0.84967925828E+02 -0.11751521082E+03  0.17981935715E+03  0.94619568194E+02 0.  0.
        -13    1    3    3    0    0  0.59530700092E+02  0.42303746631E+02 -0.10984069225E+03  0.13190333168E+03  0.00000000000E+00 0.  1.
         14    1    3    3    0    0  0.49330379829E+02  0.96763328764E+01 -0.27132013002E+03  0.27593791103E+03  0.00000000000E+00 0. -1.
        -13    1    4    4    0    0 -0.35599288493E+02 -0.37947919765E+02 -0.12020805071E+03  0.13098598937E+03  0.00000000000E+00 0.  1.
         13    1    4    4    0    0 -0.12906023861E+02 -0.47020006063E+02  0.26928398874E+01  0.48833367780E+02  0.00000000000E+00 0. -1.
          1    1    1    2  501    0 -0.60355767567E+02  0.32987846321E+02 -0.27690503032E+03  0.28531984245E+03  0.00000000000E+00 0. -1.
<scales pt_clust_5="13000.00000" pt_clust_6="13000.00000" pt_clust_7="13000.00000" pt_clust_8="13000.00000" pt_clust_9="68.78242"></scales>
<clustering>
<clus scale="   68.782">  1  9  2 -1</clus>
<clus scale="   80.612">  5  6 -1 -1</clus>
<clus scale="   94.620">  7  8 -1 -1</clus>
<clus scale="  136.251">  2  5  1 -1</clus>
<clus scale="   68.782">  1  5  2 -1</clus>
</clustering>
</event>
<event>
 9    2  0.1488992E-004  0.1083573E+03  0.7546771E-02  0.1268212E+00
          2   -1    0    0  502    0 -0.00000000000E+00  0.00000000000E+00  0.95763868712E+02  0.95763868712E+02  0.00000000000E+00 0. -1.
         21   -1    0    0  501  502  0.00000000000E+00 -0.00000000000E+00 -0.24817125692E+03  0.24817125692E+03  0.00000000000E+00 0. -1.
         24    2    1    2    0    0  0.47562445636E+02 -0.35369947261E+02  0.24758592593E+02  0.10341257400E+03  0.81042909309E+02 0.  0.
         23    2    1    2    0    0 -0.90659223056E+01  0.62445118719E+02 -0.14713357845E+03  0.18469252021E+03  0.92094806120E+02 0.  0.
        -13    1    3    3    0    0  0.24811049392E+02 -0.14387489111E+01  0.49686151933E+02  0.55555124554E+02  0.00000000000E+00 0.  1.
         14    1    3    3    0    0  0.22751396244E+02 -0.33931198350E+02 -0.24927559339E+02  0.47857449442E+02  0.00000000000E+00 0. -1.
        -13    1    4    4    0    0 -0.37117806667E+02  0.54484361100E+02 -0.48515337274E+02  0.81853620122E+02  0.00000000000E+00 0. -1.
         13    1    4    4    0    0  0.28051884362E+02  0.79607576187E+01 -0.98618241179E+02  0.10283890009E+03  0.00000000000E+00 0.  1.
          1    1    1    2  501    0 -0.38496523330E+02 -0.27075171458E+02 -0.30032402347E+02  0.55830031424E+02  0.00000000000E+00 0. -1.
<scales pt_clust_5="13000.00000" pt_clust_6="13000.00000" pt_clust_7="13000.00000" pt_clust_8="13000.00000" pt_clust_9="47.06429"></scales>
<clustering>
<clus scale="   47.064">  2  9  1 -1</clus>
<clus scale="   81.043">  5  6 -1 -1</clus>
<clus scale="   92.095">  7  8 -1 -1</clus>
<clus scale="   99.135">  1  5  2 -1</clus>
<clus scale="   47.064">  2  5  1 -1</clus>
</clustering>
</event>
<event>
 9    2  0.1488992E-004  0.1031181E+03  0.7546771E-02  0.1279829E+00
          2   -1    0    0  502    0 -0.00000000000E+00  0.00000000000E+00  0.11765236570E+04  0.11765236570E+04  0.00000000000E+00 0. -1.
         21   -1    0    0  501  502  0.00000000000E+00 -0.00000000000E+00 -0.22057218263E+02  0.22057218263E+02  0.00000000000E+00 0. -1.
         24    2    1    2    0    0 -0.12375208782E+02  0.55432990086E+02  0.71893447860E+03  0.72522423742E+03  0.76533965281E+02 0.  0.
         23    2    1    2    0    0  0.57956544554E+02 -0.67289920171E+01  0.18084982008E+03  0.21008352857E+03  0.89577849742E+02 0.  0.
        -13    1    3    3    0    0  0.15475437050E+02  0.54993552524E+02  0.30172021572E+03  0.30708120839E+03  0.00000000000E+00 0.  1.
         14    1    3    3    0    0 -0.27850645832E+02  0.43943756191E+00  0.41721426287E+03  0.41814302903E+03  0.00000000000E+00 0. -1.
        -11    1    4    4    0    0  0.17553519303E+02  0.18256955525E+02  0.15286460192E+03  0.15494847204E+03  0.00000000000E+00 0.  1.
         11    1    4    4    0    0  0.40403025251E+02 -0.24985947542E+02  0.27985218155E+02  0.55135056536E+02  0.00000000000E+00 0. -1.
          1    1    1    2  501    0 -0.45581335772E+02 -0.48703998069E+02  0.25468214002E+03  0.26327310923E+03  0.00000000000E+00 0. -1.
<scales pt_clust_5="13000.00000" pt_clust_6="13000.00000" pt_clust_7="13000.00000" pt_clust_8="13000.00000" pt_clust_9="66.70639"></scales>
<clustering>
<clus scale="   66.706">  2  9  1 -1</clus>
<clus scale="   76.534">  5  6 -1 -1</clus>
<clus scale="   89.578">  7  8 -1 -1</clus>
<clus scale="   92.014">  1  5  2 -1</clus>
<clus scale="   66.706">  2  5  1 -1</clus>
</clustering>
</event>
<event>
 9    2  0.1488992E-004  0.1127025E+03  0.7546771E-02  0.1258612E+00
         21   -1    0    0  501  502  0.00000000000E+00  0.00000000000E+00  0.27611923143E+02  0.27611923143E+02  0.00000000000E+00 0.  1.
          2   -1    0    0  502    0 -0.00000000000E+00 -0.00000000000E+00 -0.13040503070E+04  0.13040503070E+04  0.00000000000E+00 0. -1.
         24    2    1    2    0    0 -0.31690434213E+02 -0.65078190032E+02 -0.90203473302E+03  0.90861307253E+03  0.81679872449E+02 0.  0.
         23    2    1    2    0    0 -0.44118352462E+02  0.68072068338E+02 -0.23358736964E+03  0.26309553780E+03  0.89866385483E+02 0.  0.
        -13    1    3    3    0    0 -0.67577086592E+01 -0.24118687379E+02 -0.57506119094E+02  0.62724249222E+02  0.00000000000E+00 0.  1.
         14    1    3    3    0    0 -0.24932725554E+02 -0.40959502653E+02 -0.84452861392E+03  0.84588882331E+03  0.00000000000E+00 0. -1.
        -11    1    4    4    0    0  0.18829139429E+02  0.35860143442E+02 -0.14035106710E+03  0.14607843241E+03  0.00000000000E+00 0. -1.
         11    1    4    4    0    0 -0.62947491891E+02  0.32211924896E+02 -0.93236302539E+02  0.11701710538E+03  0.00000000000E+00 0.  1.
          1    1    1    2  501    0  0.75808786675E+02 -0.29938783064E+01 -0.14081628124E+03  0.15995361987E+03  0.00000000000E+00 0. -1.
<scales pt_clust_5="13000.00000" pt_clust_6="13000.00000" pt_clust_7="13000.00000" pt_clust_8="13000.00000" pt_clust_9="75.86788"></scales>
<clustering>
<clus scale="   75.868">  1  9  2 -1</clus>
<clus scale="   81.680">  5  6 -1 -1</clus>
<clus scale="   89.866">  7  8 -1 -1</clus>
<clus scale="  106.290">  2  5  1 -1</clus>
<clus scale="   75.868">  1  5  2 -1</clus>
</clustering>
</event>
<event>
 9    2  0.1488992E-004  0.1117554E+03  0.7546771E-02  0.1263106E+00
          2   -1    0    0  502    0 -0.00000000000E+00  0.00000000000E+00  0.92535998639E+03  0.92535998639E+03  0.00000000000E+00 0. -1.
         21   -1    0    0  501  502  0.00000000000E+00 -0.00000000000E+00 -0.48569487541E+02  0.48569487541E+02  0.00000000000E+00 0. -1.
         24    2    1    2    0    0 -0.53336957154E+02 -0.45828145668E+02  0.77485820054E+03  0.78203180272E+03  0.78888906625E+02 0.  0.
         23    2    1    2    0    0  0.17445283423E+01  0.93591510846E+01  0.84347683226E+02  0.12631577611E+03  0.93544142208E+02 0.  0.
        -11    1    3    3    0    0 -0.98430602182E+01 -0.39761266644E+02  0.14585913345E+03  0.15150158735E+03  0.00000000000E+00 0.  1.
         12    1    3    3    0    0 -0.43493896936E+02 -0.60668790237E+01  0.62899906709E+03  0.63053021537E+03  0.00000000000E+00 0. -1.
        -11    1    4    4    0    0 -0.28710235628E+02  0.72802478403E+01 -0.66314126942E+01  0.30352187281E+02  0.00000000000E+00 0. -1.
         11    1    4    4    0    0  0.30454763970E+02  0.20789032443E+01  0.90979095920E+02  0.95963588833E+02  0.00000000000E+00 0.  1.
          1    1    1    2  501    0  0.51592428812E+02  0.36468994583E+02  0.17584615081E+02  0.65581895095E+02  0.00000000000E+00 0. -1.
<scales pt_clust_5="13000.00000" pt_clust_6="13000.00000" pt_clust_7="13000.00000" pt_clust_8="13000.00000" pt_clust_9="63.18043"></scales>
<clustering>
<clus scale="   63.180">  2  9  1 -1</clus>
<clus scale="   78.889">  5  6 -1 -1</clus>
<clus scale="   93.544">  7  8 -1 -1</clus>
<clus scale="   99.811">  1  5  2 -1</clus>
<clus scale="   63.180">  2  5  1 -1</clus>
</clustering>
</event>
<event>
 9    2  0.1488992E-004  0.1224469E+03  0.7546771E-02  0.1243119E+00
         21   -1    0    0  501  502  0.00000000000E+00  0.00000000000E+00  0.42262309160E+02  0.42262309160E+02  0.00000000000E+00 0. -1.
          2   -1    0    0  502    0 -0.00000000000E+00 -0.00000000000E+00 -0.90659595452E+03  0.90659595452E+03  0.00000000000E+00 0. -1.
         24    2    1    2    0    0 -0.53699376849E+02 -0.85942172611E+02 -0.61534132507E+03  0.62829900940E+03  0.76452722449E+02 0.  0.
         23    2    1    2    0    0  0.19863953496E+02  0.84544405142E+00 -0.58321242130E+02  0.10903679889E+03  0.89957572250E+02 0.  0.
        -11    1    3    3    0    0  0.15146619706E+02 -0.26740608434E+02 -0.88348821924E+02  0.93541405609E+02  0.00000000000E+00 0.  1.
         12    1    3    3    0    0 -0.68845996555E+02 -0.59201564177E+02 -0.52699250314E+03  0.53475760379E+03  0.00000000000E+00 0. -1.
        -13    1    4    4    0    0 -0.19849868399E+02 -0.23604687465E+02 -0.54017219183E+02  0.62201756519E+02  0.00000000000E+00 0.  1.
         13    1    4    4    0    0  0.39713821895E+02  0.24450131516E+02 -0.43040229465E+01  0.46835042374E+02  0.00000000000E+00 0. -1.
          1    1    1    2  501    0  0.33835423353E+02  0.85096728559E+02 -0.19067107816E+03  0.21152245539E+03  0.00000000000E+00 0. -1.
<scales pt_clust_5="13000.00000" pt_clust_6="13000.00000" pt_clust_7="13000.00000" pt_clust_8="13000.00000" pt_clust_9="91.57668"></scales>
<clustering>
<clus scale="   76.453">  5  6 -1 -1</clus>
<clus scale="   89.958">  7  8 -1 -1</clus>
<clus scale="   91.577">  1  9  2 -1</clus>
<clus scale="  112.898">  2  5  1 -1</clus>
<clus scale="   91.577">  1  5  2 -1</clus>
</clustering>
</event>
<event>
 9    2  0.1488992E-004  0.1520300E+03  0.7546771E-02  0.1200231E+00
         -1   -1    0    0    0  501 -0.00000000000E+00  0.00000000000E+00  0.27296096706E+03  0.27296096706E+03  0.00000000000E+00 0.  1.
         21   -1    0    0  501  502  0.00000000000E+00 -0.00000000000E+00 -0.11150129307E+03  0.11150129307E+03  0.00000000000E+00 0.  1.
         23    2    1    2    0    0 -0.83548978691E+02  0.58097355265E+02  0.67487019900E+02  0.15296070588E+03  0.92123532062E+02 0.  0.
         24    2    1    2    0    0  0.10880479065E+03 -0.96308017848E+02  0.75614199126E+02  0.18215640614E+03  0.79685208271E+02 0.  0.
        -11    1    4    4    0    0  0.95979511390E+02 -0.11012856090E+03  0.72362030703E+02  0.16302340329E+03  0.00000000000E+00 0.  1.
         12    1    4    4    0    0  0.12825279264E+02  0.13820543055E+02  0.32521684227E+01  0.19133002848E+02  0.00000000000E+00 0. -1.
        -13    1    3    3    0    0 -0.73003376570E+02  0.82077219118E+02  0.62207915416E+02  0.12623782171E+03  0.00000000000E+00 0.  1.
         13    1    3    3    0    0 -0.10545602120E+02 -0.23979863853E+02  0.52791044844E+01  0.26722884175E+02  0.00000000000E+00 0. -1.
         -2    1    1    2    0  502 -0.25255811964E+02  0.38210662583E+02  0.18358454971E+02  0.49345148109E+02  0.00000000000E+00 0.  1.
<scales pt_clust_5="13000.00000" pt_clust_6="13000.00000" pt_clust_7="13000.00000" pt_clust_8="13000.00000" pt_clust_9="45.80296"></scales>
<clustering>
<clus scale="   45.803">  2  9  1 -1</clus>
<clus scale="   79.685">  5  6 -1 -1</clus>
<clus scale="   92.124">  7  8 -1 -1</clus>
<clus scale="  144.831">  2  5  1 -1</clus>
<clus scale="   45.803">  2  5  1 -1</clus>
</clustering>
</event>
<event>
 9    2  0.1488992E-004  0.1234498E+03  0.7546771E-02  0.1239133E+00
          2   -1    0    0  502    0 -0.00000000000E+00  0.00000000000E+00  0.62317044766E+03  0.62317044766E+03  0.00000000000E+00 0. -1.
         21   -1    0    0  501  502  0.00000000000E+00 -0.00000000000E+00 -0.39750340522E+02  0.39750340522E+02  0.00000000000E+00 0.  1.
         24    2    1    2    0    0 -0.73167227291E+02  0.19598502378E+02  0.20672325489E+03  0.23358871626E+03  0.78048957743E+02 0.  0.
         23    2    1    2    0    0  0.11644408543E+03 -0.12064903700E+02  0.19545600065E+03  0.24284376707E+03  0.84055101458E+02 0.  0.
        -11    1    3    3    0    0 -0.76194972398E+01 -0.27074893862E+02  0.59395926089E+02  0.65718967215E+02  0.00000000000E+00 0.  1.
         12    1    3    3    0    0 -0.65547730051E+02  0.46673396240E+02  0.14732732880E+03  0.16786974904E+03  0.00000000000E+00 0. -1.
        -13    1    4    4    0    0  0.11550043731E+03 -0.35162517103E+02  0.16923614280E+03  0.20788849333E+03  0.00000000000E+00 0.  1.
         13    1    4    4    0    0  0.94364812059E+00  0.23097613403E+02  0.26219857850E+02  0.34955273742E+02  0.00000000000E+00 0. -1.
          1    1    1    2  501    0 -0.43276858142E+02 -0.75335986781E+01  0.18124085160E+03  0.18648830486E+03  0.00000000000E+00 0. -1.
<scales pt_clust_5="13000.00000" pt_clust_6="13000.00000" pt_clust_7="13000.00000" pt_clust_8="13000.00000" pt_clust_9="43.92771"></scales>
<clustering>
<clus scale="   43.928">  2  9  1 -1</clus>
<clus scale="   78.049">  5  6 -1 -1</clus>
<clus scale="   84.055">  7  8 -1 -1</clus>
<clus scale="  119.441">  1  5  2 -1</clus>
<clus scale="   43.928">  2  5  1 -1</clus>
</clustering>
</event>
<event>
 9    2  0.1488992E-004  0.1050990E+03  0.7546771E-02  0.1274648E+00
         -1   -1    0    0    0  501 -0.00000000000E+00  0.00000000000E+00  0.25914198614E+03  0.25914198614E+03  0.00000000000E+00 0.  1.
         21   -1    0    0  501  502  0.00000000000E+00 -0.00000000000E+00 -0.15884561117E+03  0.15884561117E+03  0.00000000000E+00 0.  1.
         23    2    1    2    0    0  0.38798404291E+02 -0.49715626394E+02  0.96353405994E+02  0.14669292303E+03  0.90872851482E+02 0.  0.
         24    2    1    2    0    0 -0.19320707989E+02 -0.13760318487E+02 -0.11076924425E+03  0.13875234862E+03  0.80123358977E+02 0.  0.
        -13    1    4    4    0    0 -0.49417693228E+02 -0.12154896195E+02 -0.52309225543E+02  0.72980168419E+02  0.00000000000E+00 0.  1.
         14    1    4    4    0    0  0.30096985240E+02 -0.16054222914E+01 -0.58460018704E+02  0.65772180199E+02  0.00000000000E+00 0. -1.
        -11    1    3    3    0    0  0.37180378826E+02 -0.75182222801E+02  0.82541261372E+02  0.11767670553E+03  0.00000000000E+00 0.  1.
         11    1    3    3    0    0  0.16180254655E+01  0.25466596407E+02  0.13812144622E+02  0.29016217500E+02  0.00000000000E+00 0. -1.
         -2    1    1    2    0  502 -0.19477696303E+02  0.63475944880E+02  0.11471221322E+03  0.13254232567E+03  0.00000000000E+00 0.  1.
<scales pt_clust_5="13000.00000" pt_clust_6="13000.00000" pt_clust_7="13000.00000" pt_clust_8="13000.00000" pt_clust_9="66.39714"></scales>
<clustering>
<clus scale="   66.397">  2  9  1 -1</clus>
<clus scale="   80.123">  5  6 -1 -1</clus>
<clus scale="   90.873">  7  8 -1 -1</clus>
<clus scale="   95.957">  2  5  1 -1</clus>
<clus scale="   66.397">  2  5  1 -1</clus>
</clustering>
</event>
<event>
 9    2  0.1488992E-004  0.9288192E+02  0.7546771E-02  0.1306196E+00
         21   -1    0    0  501  502  0.00000000000E+00  0.00000000000E+00  0.64739005398E+02  0.64739005398E+02  0.00000000000E+00 0.  1.
          2   -1    0    0  502    0 -0.00000000000E+00 -0.00000000000E+00 -0.20021321851E+03  0.20021321851E+03  0.00000000000E+00 0. -1.
         23    2    1    2    0    0 -0.21238730735E+02  0.43978678000E+00 -0.11129086803E+03  0.14590861713E+03  0.91936881343E+02 0.  0.
         24    2    1    2    0    0 -0.83004731194E+01  0.20169775067E+02 -0.73611760050E+01  0.79290569453E+02  0.75875488873E+02 0.  0.
        -11    1    4    4    0    0 -0.16940340487E+01 -0.25826901711E+02  0.12515184582E+02  0.28749407793E+02  0.00000000000E+00 0.  1.
         12    1    4    4    0    0 -0.66064390707E+01  0.45996676778E+02 -0.19876360587E+02  0.50541161660E+02  0.00000000000E+00 0. -1.
        -11    1    3    3    0    0 -0.40427242463E+02 -0.90415908802E+01 -0.11669826531E+03  0.12383294160E+03  0.00000000000E+00 0.  1.
         11    1    3    3    0    0  0.19188511728E+02  0.94813776602E+01  0.54073972842E+01  0.22075675529E+02  0.00000000000E+00 0. -1.
          1    1    1    2  501    0  0.29539203854E+02 -0.20609561847E+02 -0.16822169077E+02  0.39753037322E+02  0.00000000000E+00 0. -1.
<scales pt_clust_5="13000.00000" pt_clust_6="13000.00000" pt_clust_7="13000.00000" pt_clust_8="13000.00000" pt_clust_9="36.01831"></scales>
<clustering>
<clus scale="   36.018">  1  9  2 -1</clus>
<clus scale="   75.875">  5  6 -1 -1</clus>
<clus scale="   77.018">  1  5  2 -1</clus>
<clus scale="   91.937">  7  8 -1 -1</clus>
<clus scale="   36.018">  1  5  2 -1</clus>
</clustering>
</event>
<event>
 9    2  0.1488992E-004  0.1469245E+03  0.7546771E-02  0.1205831E+00
         -1   -1    0    0    0  501 -0.00000000000E+00  0.00000000000E+00  0.45685570459E+03  0.45685570459E+03  0.00000000000E+00 0.  1.
         21   -1    0    0  501  502  0.00000000000E+00 -0.00000000000E+00 -0.64348227563E+02  0.64348227563E+02  0.00000000000E+00 0.  1.
         23    2    1    2    0    0 -0.47364432646E+02  0.87327312963E+02  0.11487043102E+03  0.17706511294E+03  0.91035098896E+02 0.  0.
         24    2    1    2    0    0  0.64603115527E+02 -0.11429170567E+03  0.16337640145E+03  0.22548071558E+03  0.83147748185E+02 0.  0.
        -11    1    4    4    0    0  0.70432528789E+02 -0.42471354701E+02  0.73655826311E+02  0.11040714574E+03  0.00000000000E+00 0.  1.
         12    1    4    4    0    0 -0.58294132614E+01 -0.71820350965E+02  0.89720575144E+02  0.11507356984E+03  0.00000000000E+00 0. -1.
        -13    1    3    3    0    0 -0.71903189668E+02  0.82871753206E+02  0.91025750306E+02  0.14256045518E+03  0.00000000000E+00 0.  1.
         13    1    3    3    0    0  0.24538757022E+02  0.44555597571E+01  0.23844680709E+02  0.34504657759E+02  0.00000000000E+00 0. -1.
         -2    1    1    2    0  502 -0.17238682882E+02  0.26964392703E+02  0.11426064455E+03  0.11865810362E+03  0.00000000000E+00 0.  1.
<scales pt_clust_5="13000.00000" pt_clust_6="13000.00000" pt_clust_7="13000.00000" pt_clust_8="13000.00000" pt_clust_9="32.00393"></scales>
<clustering>
<clus scale="   32.004">  2  9  1 -1</clus>
<clus scale="   83.148">  5  6 -1 -1</clus>
<clus scale="   91.035">  7  8 -1 -1</clus>
<clus scale="  142.172">  2  5  1 -1</clus>
<clus scale="   32.004">  2  5  1 -1</clus>
</clustering>
</event>
<event>
 9    2  0.1488992E-004  0.1528995E+03  0.7546771E-02  0.1226053E+00
         21   -1    0    0  501  502  0.00000000000E+00  0.00000000000E+00  0.46101945188E+02  0.46101945188E+02  0.00000000000E+00 0. -1.
          2   -1    0    0  502    0 -0.00000000000E+00 -0.00000000000E+00 -0.15447946467E+04  0.15447946467E+04  0.00000000000E+00 0. -1.
         24    2    1    2    0    0  0.13035390859E+02 -0.91757111112E+01 -0.11208868495E+04  0.11239014744E+04  0.80703654393E+02 0.  0.
         23    2    1    2    0    0 -0.10963067821E+03 -0.58724371132E+02 -0.22721493589E+03  0.27563499951E+03  0.94236874375E+02 0.  0.
        -11    1    3    3    0    0 -0.14369259162E+01  0.26520131130E+02 -0.15589369968E+03  0.15813989918E+03  0.00000000000E+00 0.  1.
         12    1    3    3    0    0  0.14472316775E+02 -0.35695842241E+02 -0.96499314980E+03  0.96576157527E+03  0.00000000000E+00 0. -1.
        -13    1    4    4    0    0 -0.10334504081E+03 -0.69684917995E+01 -0.14262169675E+03  0.17626600842E+03  0.00000000000E+00 0. -1.
         13    1    4    4    0    0 -0.62856374031E+01 -0.51755879333E+02 -0.84593239138E+02  0.99368991094E+02  0.00000000000E+00 0.  1.
          1    1    1    2  501    0  0.96595287354E+02  0.67900082244E+02 -0.15059091609E+03  0.19136011788E+03  0.00000000000E+00 0. -1.
<scales pt_clust_5="13000.00000" pt_clust_6="13000.00000" pt_clust_7="13000.00000" pt_clust_8="13000.00000" pt_clust_9="120.40629"></scales>
<clustering>
<clus scale="   80.704">  5  6 -1 -1</clus>
<clus scale="   82.263">  2  5  1 -1</clus>
<clus scale="   94.237">  7  8 -1 -1</clus>
<clus scale="  120.406">  1  9  2 -1</clus>
<clus scale="  120.406">  1  5  2 -1</clus>
</clustering>
</event>
<event>
 9    2  0.1488992E-004  0.1417451E+03  0.7546771E-02  0.1214012E+00
         21   -1    0    0  501  502  0.00000000000E+00  0.00000000000E+00  0.26987009642E+03  0.26987009642E+03  0.00000000000E+00 0.  1.
         -1   -1    0    0    0  501 -0.00000000000E+00 -0.00000000000E+00 -0.96083479419E+02  0.96083479419E+02  0.00000000000E+00 0.  1.
         24    2    1    2    0    0  0.42483404490E+02  0.10804535492E+03  0.43592252472E+02  0.14881671112E+03  0.82264759506E+02 0.  0.
         23    2    1    2    0    0 -0.14838215094E+02 -0.85693710026E+02  0.12720476873E+03  0.18146067925E+03  0.95829746746E+02 0.  0.
        -13    1    3    3    0    0 -0.15045263553E+02  0.73844148134E+02  0.22937657879E+02  0.78774706080E+02  0.00000000000E+00 0.  1.
         14    1    3    3    0    0  0.57528668043E+02  0.34201206785E+02  0.20654594592E+02  0.70042005040E+02  0.00000000000E+00 0. -1.
        -13    1    4    4    0    0  0.39849656708E+02 -0.25584108977E+02  0.37378997765E+02  0.60330185197E+02  0.00000000000E+00 0.  1.
         13    1    4    4    0    0 -0.54687871802E+02 -0.60109601049E+02  0.89825770965E+02  0.12113049405E+03  0.00000000000E+00 0. -1.
         -2    1    1    2    0  502 -0.27645189395E+02 -0.22351644893E+02  0.29895957940E+01  0.35676185462E+02  0.00000000000E+00 0.  1.
<scales pt_clust_5="13000.00000" pt_clust_6="13000.00000" pt_clust_7="13000.00000" pt_clust_8="13000.00000" pt_clust_9="35.55072"></scales>
<clustering>
<clus scale="   35.551">  1  9  2 -1</clus>
<clus scale="   82.265">  5  6 -1 -1</clus>
<clus scale="   95.830">  7  8 -1 -1</clus>
<clus scale="  132.951">  2  5  1 -1</clus>
<clus scale="   35.551">  1  5  2 -1</clus>
</clustering>
</event>
<event>
 9    2  0.1488992E-004  0.1449151E+03  0.7546771E-02  0.1209126E+00
         21   -1    0    0  501  502  0.00000000000E+00  0.00000000000E+00  0.41179715819E+02  0.41179715819E+02  0.00000000000E+00 0. -1.
          2   -1    0    0  502    0 -0.00000000000E+00 -0.00000000000E+00 -0.13454190227E+04  0.13454190227E+04  0.00000000000E+00 0. -1.
         23    2    1    2    0    0 -0.69769364785E+02 -0.88259279695E+02 -0.34658525018E+03  0.37520152250E+03  0.89428083580E+02 0.  0.
         24    2    1    2    0    0 -0.81606147615E+01  0.13716315966E+03 -0.23636884812E+03  0.28426791300E+03  0.77831137713E+02 0.  0.
        -13    1    4    4    0    0 -0.30097181927E+02  0.39085486022E+02 -0.12432627894E+03  0.13375552031E+03  0.00000000000E+00 0.  1.
         14    1    4    4    0    0  0.21936567166E+02  0.98077673635E+02 -0.11204256918E+03  0.15051239269E+03  0.00000000000E+00 0. -1.
        -11    1    3    3    0    0  0.17483154441E+02 -0.37864171498E+02 -0.12523092092E+03  0.13199295332E+03  0.00000000000E+00 0.  1.
         11    1    3    3    0    0 -0.87252519225E+02 -0.50395108197E+02 -0.22135432926E+03  0.24320856918E+03  0.00000000000E+00 0. -1.
          1    1    1    2  501    0  0.77929979546E+02 -0.48903879962E+02 -0.72128520858E+03  0.72712930302E+03  0.00000000000E+00 0. -1.
<scales pt_clust_5="13000.00000" pt_clust_6="13000.00000" pt_clust_7="13000.00000" pt_clust_8="13000.00000" pt_clust_9="92.00369"></scales>
<clustering>
<clus scale="   77.831">  5  6 -1 -1</clus>
<clus scale="   89.428">  7  8 -1 -1</clus>
<clus scale="   92.004">  1  9  2 -1</clus>
<clus scale="  138.060">  1  5  2 -1</clus>
<clus scale="   92.004">  1  5  2 -1</clus>
</clustering>
</event>
<event>
 9    2  0.1488992E-004  0.1131141E+03  0.7546771E-02  0.1259919E+00
         21   -1    0    0  501  502  0.00000000000E+00  0.00000000000E+00  0.46270139654E+02  0.46270139654E+02  0.00000000000E+00 0.  1.
          2   -1    0    0  502    0 -0.00000000000E+00 -0.00000000000E+00 -0.48276322177E+03  0.48276322177E+03  0.00000000000E+00 0. -1.
         23    2    1    2    0    0  0.63476050514E+02  0.40274034221E+02 -0.19194588062E+03  0.22606542142E+03  0.92796265296E+02 0.  0.
         24    2    1    2    0    0 -0.31979922011E+02 -0.37150151017E+02 -0.50103412261E+02  0.10596501635E+03  0.79469388053E+02 0.  0.
        -11    1    4    4    0    0 -0.43984918865E+02 -0.47556580500E+01 -0.55524588144E+02  0.70994853755E+02  0.00000000000E+00 0.  1.
         12    1    4    4    0    0  0.12004996854E+02 -0.32394492967E+02  0.54211758825E+01  0.34970162596E+02  0.00000000000E+00 0. -1.
        -13    1    3    3    0    0  0.87722693959E+02  0.29229601005E+02 -0.14185723760E+03  0.16933138064E+03  0.00000000000E+00 0.  1.
         13    1    3    3    0    0 -0.24246643444E+02  0.11044433215E+02 -0.50088643022E+02  0.56734040779E+02  0.00000000000E+00 0. -1.
          1    1    1    2  501    0 -0.31496128503E+02 -0.31238832037E+01 -0.19444378923E+03  0.19700292366E+03  0.00000000000E+00 0. -1.
<scales pt_clust_5="13000.00000" pt_clust_6="13000.00000" pt_clust_7="13000.00000" pt_clust_8="13000.00000" pt_clust_9="31.65068"></scales>
<clustering>
<clus scale="   31.651">  1  9  2 -1</clus>
<clus scale="   79.469">  5  6 -1 -1</clus>
<clus scale="   92.796">  7  8 -1 -1</clus>
<clus scale="  102.465">  1  5  2 -1</clus>
<clus scale="   31.651">  1  5  2 -1</clus>
</clustering>
</event>
<event>
 9    2  0.1488992E-004  0.9405176E+02  0.7546771E-02  0.1300600E+00
         -1   -1    0    0    0  501 -0.00000000000E+00  0.00000000000E+00  0.95529247958E+02  0.95529247958E+02  0.00000000000E+00 0.  1.
         21   -1    0    0  501  502  0.00000000000E+00 -0.00000000000E+00 -0.73039494564E+03  0.73039494564E+03  0.00000000000E+00 0.  1.
         23    2    1    2    0    0 -0.78844107706E+01 -0.65557071594E+01  0.53158653717E+02  0.10732756041E+03  0.92672657932E+02 0.  0.
         24    2    1    2    0    0  0.16195377137E+02  0.72327379055E+02 -0.21840826240E+03  0.24432428945E+03  0.80614200560E+02 0.  0.
        -11    1    4    4    0    0  0.40939999255E+02  0.73960886810E+02 -0.16290081737E+03  0.18352921461E+03  0.00000000000E+00 0.  1.
         12    1    4    4    0    0 -0.24744622118E+02 -0.16335077556E+01 -0.55507445027E+02  0.60795074840E+02  0.00000000000E+00 0. -1.
        -11    1    3    3    0    0 -0.23699380706E+02 -0.39718968302E+02  0.53320987787E+02  0.70586010139E+02  0.00000000000E+00 0. -1.
         11    1    3    3    0    0  0.15814969935E+02  0.33163261142E+02 -0.16233406978E+00  0.36741550267E+02  0.00000000000E+00 0.  1.
         -2    1    1    2    0  502 -0.83109663663E+01 -0.65771671895E+02 -0.46961608900E+03  0.47427234374E+03  0.00000000000E+00 0.  1.
<scales pt_clust_5="13000.00000" pt_clust_6="13000.00000" pt_clust_7="13000.00000" pt_clust_8="13000.00000" pt_clust_9="66.29468"></scales>
<clustering>
<clus scale="   66.295">  2  9  1 -1</clus>
<clus scale="   80.614">  5  6 -1 -1</clus>
<clus scale="   82.196">  2  5  1 -1</clus>
<clus scale="   92.673">  7  8 -1 -1</clus>
<clus scale="   66.295">  2  5  1 -1</clus>
</clustering>
</event>
<event>
 9    2  0.1488992E-004  0.1311175E+03  0.7546771E-02  0.1228105E+00
         21   -1    0    0  501  502  0.00000000000E+00  0.00000000000E+00  0.30832696042E+02  0.30832696042E+02  0.00000000000E+00 0. -1.
          2   -1    0    0  502    0 -0.00000000000E+00 -0.00000000000E+00 -0.75195619021E+03  0.75195619021E+03  0.00000000000E+00 0. -1.
         23    2    1    2    0    0 -0.91269231011E+02 -0.69695953182E+01 -0.41347653593E+03  0.43359015861E+03  0.93053383007E+02 0.  0.
         24    2    1    2    0    0  0.93599251985E+02 -0.28787605718E+02 -0.23345252607E+03  0.26680443058E+03  0.84231680704E+02 0.  0.
        -13    1    4    4    0    0  0.38242646853E+02  0.27753101985E+02 -0.11526182546E+03  0.12457135753E+03  0.00000000000E+00 0.  1.
         14    1    4    4    0    0  0.55356605132E+02 -0.56540707703E+02 -0.11819070061E+03  0.14223307305E+03  0.00000000000E+00 0. -1.
        -13    1    3    3    0    0 -0.82781929106E+02 -0.39970767983E+02 -0.24445580094E+03  0.26116881263E+03  0.00000000000E+00 0. -1.
         13    1    3    3    0    0 -0.84873019053E+01  0.33001172665E+02 -0.16902073499E+03  0.17242134598E+03  0.00000000000E+00 0.  1.
          1    1    1    2  501    0 -0.23300209741E+01  0.35757201036E+02 -0.74194432162E+02  0.82394297057E+02  0.00000000000E+00 0. -1.
<scales pt_clust_5="13000.00000" pt_clust_6="13000.00000" pt_clust_7="13000.00000" pt_clust_8="13000.00000" pt_clust_9="35.83304"></scales>
<clustering>
<clus scale="   35.833">  1  9  2 -1</clus>
<clus scale="   84.232">  5  6 -1 -1</clus>
<clus scale="   93.053">  7  8 -1 -1</clus>
<clus scale="  125.011">  1  5  2 -1</clus>
<clus scale="   35.833">  1  5  2 -1</clus>
</clustering>
</event>
<event>
 9    2  0.1488992E-004  0.1178593E+03  0.7546771E-02  0.1252572E+00
          2   -1    0    0  502    0 -0.00000000000E+00  0.00000000000E+00  0.15826533893E+03  0.15826533893E+03  0.00000000000E+00 0. -1.
         21   -1    0    0  501  502  0.00000000000E+00 -0.00000000000E+00 -0.45899310054E+03  0.45899310054E+03  0.00000000000E+00 0. -1.
         24    2    1    2    0    0  0.95478511599E+01  0.72429838079E+02  0.10368592445E+03  0.15056006056E+03  0.81119159274E+02 0.  0.
         23    2    1    2    0    0  0.21670703725E+02 -0.40111353732E+02 -0.67979514404E+02  0.12727676135E+03  0.97465991521E+02 0.  0.
        -11    1    3    3    0    0  0.15623021683E+01  0.50504909356E+02  0.68963036499E+01  0.50997506421E+02  0.00000000000E+00 0.  1.
         12    1    3    3    0    0  0.79855489916E+01  0.21924928723E+02  0.96789620803E+02  0.99562554142E+02  0.00000000000E+00 0. -1.
        -13    1    4    4    0    0 -0.29566896145E+02 -0.77766801359E+00  0.48026573571E+01  0.29964506218E+02  0.00000000000E+00 0. -1.
         13    1    4    4    0    0  0.51237599870E+02 -0.39333685718E+02 -0.72782171761E+02  0.97312255132E+02  0.00000000000E+00 0.  1.
          1    1    1    2  501    0 -0.31218554884E+02 -0.32318484347E+02 -0.33643417167E+03  0.33942161756E+03  0.00000000000E+00 0. -1.
<scales pt_clust_5="13000.00000" pt_clust_6="13000.00000" pt_clust_7="13000.00000" pt_clust_8="13000.00000" pt_clust_9="44.93420"></scales>
<clustering>
<clus scale="   44.934">  2  9  1 -1</clus>
<clus scale="   81.119">  5  6 -1 -1</clus>
<clus scale="   97.466">  7  8 -1 -1</clus>
<clus scale="  104.745">  1  5  2 -1</clus>
<clus scale="   44.934">  2  5  1 -1</clus>
</clustering>
</event>
<event>
 9    2  0.1488992E-004  0.2520730E+03  0.7546771E-02  0.1128395E+00
         21   -1    0    0  501  502  0.00000000000E+00  0.00000000000E+00  0.14818957856E+04  0.14818957856E+04  0.00000000000E+00 0.  1.
         -3   -1    0    0    0  501 -0.00000000000E+00 -0.00000000000E+00 -0.11249298185E+03  0.11249298185E+03  0.00000000000E+00 0.  1.
         24    2    1    2    0    0 -0.13373560590E+03  0.59026566631E+02  0.67004397100E+03  0.69061720205E+03  0.81387031137E+02 0.  0.
         23    2    1    2    0    0  0.20176126635E+03 -0.25694443397E+03  0.29794288718E+03  0.45107549291E+03  0.89280935989E+02 0.  0.
        -11    1    3    3    0    0 -0.56588326306E+02 -0.95956285859E+01  0.33965732545E+03  0.34447266001E+03  0.00000000000E+00 0.  1.
         12    1    3    3    0    0 -0.77147279594E+02  0.68622195217E+02  0.33038664555E+03  0.34614454204E+03  0.00000000000E+00 0. -1.
        -11    1    4    4    0    0  0.17195631850E+03 -0.18232555864E+03  0.18083173923E+03  0.30904967678E+03  0.00000000000E+00 0.  1.
         11    1    4    4    0    0  0.29804947853E+02 -0.74618875328E+02  0.11711114795E+03  0.14202581612E+03  0.00000000000E+00 0. -1.
         -4    1    1    2    0  502 -0.68025660455E+02  0.19791786734E+03  0.40141594553E+03  0.45269607245E+03  0.00000000000E+00 0.  1.
<scales pt_clust_5="13000.00000" pt_clust_6="13000.00000" pt_clust_7="13000.00000" pt_clust_8="13000.00000" pt_clust_9="235.73233"></scales>
<clustering>
<clus scale="   81.387">  5  6 -1 -1</clus>
<clus scale="   89.281">  7  8 -1 -1</clus>
<clus scale="  167.312">  2  5  1 -1</clus>
<clus scale="  235.732">  1  9  2 -1</clus>
<clus scale="  235.732">  1  5  2 -1</clus>
</clustering>
</event>
<event>
 9    2  0.1488992E-004  0.2294358E+03  0.7546771E-02  0.1140325E+00
         21   -1    0    0  501  502  0.00000000000E+00  0.00000000000E+00  0.51167485694E+03  0.51167485694E+03  0.00000000000E+00 0. -1.
          2   -1    0    0  502    0 -0.00000000000E+00 -0.00000000000E+00 -0.28720919671E+03  0.28720919671E+03  0.00000000000E+00 0. -1.
         23    2    1    2    0    0 -0.10692553718E+03  0.86936240215E+02  0.18988958195E+03  0.25215783413E+03  0.92382572042E+02 0.  0.
         24    2    1    2    0    0  0.29583671255E+03 -0.32079722304E+02 -0.81259332056E+02  0.31844018835E+03  0.79073418033E+02 0.  0.
        -13    1    4    4    0    0  0.73929577812E+02  0.21806912178E+02 -0.33215152943E+01  0.77150219430E+02  0.00000000000E+00 0.  1.
         14    1    4    4    0    0  0.22190713474E+03 -0.53886634483E+02 -0.77937816761E+02  0.24128996893E+03  0.00000000000E+00 0. -1.
        -13    1    3    3    0    0 -0.52141643175E+02 -0.96615875743E+01  0.44622447372E+02  0.69305555599E+02  0.00000000000E+00 0.  1.
         13    1    3    3    0    0 -0.54783894000E+02  0.96597827789E+02  0.14526713458E+03  0.18285227853E+03  0.00000000000E+00 0. -1.
          1    1    1    2  501    0 -0.18891117537E+03 -0.54856517911E+02  0.11583541033E+03  0.22828603116E+03  0.00000000000E+00 0. -1.
<scales pt_clust_5="13000.00000" pt_clust_6="13000.00000" pt_clust_7="13000.00000" pt_clust_8="13000.00000" pt_clust_9="215.37917"></scales>
<clustering>
<clus scale="   79.073">  5  6 -1 -1</clus>
<clus scale="   92.383">  7  8 -1 -1</clus>
<clus scale="  165.908">  2  7  1 -1</clus>
<clus scale="  215.379">  1  9  2 -1</clus>
<clus scale="  215.379">  1  5  2 -1</clus>
</clustering>
</event>
<event>
 9    2  0.1488992E-004  0.1214000E+03  0.7546771E-02  0.1244040E+00
          2   -1    0    0  502    0 -0.00000000000E+00  0.00000000000E+00  0.56222190163E+03  0.56222190163E+03  0.00000000000E+00 0. -1.
         21   -1    0    0  501  502  0.00000000000E+00 -0.00000000000E+00 -0.46074463747E+02  0.46074463747E+02  0.00000000000E+00 0. -1.
         23    2    1    2    0    0  0.65331675217E+02 -0.61598298010E+02  0.36649795765E+03  0.38822733393E+03  0.91307895277E+02 0.  0.
         24    2    1    2    0    0 -0.10946452979E+02  0.67926709984E+02  0.90588878133E+02  0.13953359878E+03  0.80804811638E+02 0.  0.
        -13    1    4    4    0    0  0.60384295218E+01  0.49494607108E+02  0.10080853076E+03  0.11246572206E+03  0.00000000000E+00 0.  1.
         14    1    4    4    0    0 -0.16984882501E+02  0.18432102876E+02 -0.10219652631E+02  0.27067876715E+02  0.00000000000E+00 0. -1.
        -11    1    3    3    0    0  0.40945247296E+02  0.30970714827E+01  0.52201484863E+02  0.66416113630E+02  0.00000000000E+00 0.  1.
         11    1    3    3    0    0  0.24386427922E+02 -0.64695369493E+02  0.31429647279E+03  0.32181122029E+03  0.00000000000E+00 0. -1.
          1    1    1    2  501    0 -0.54385222239E+02 -0.63284119734E+01  0.59060602102E+02  0.80535432679E+02  0.00000000000E+00 0. -1.
<scales pt_clust_5="13000.00000" pt_clust_6="13000.00000" pt_clust_7="13000.00000" pt_clust_8="13000.00000" pt_clust_9="54.75218"></scales>
<clustering>
<clus scale="   54.752">  2  9  1 -1</clus>
<clus scale="   80.805">  5  6 -1 -1</clus>
<clus scale="   91.308">  7  8 -1 -1</clus>
<clus scale="  113.711">  2  5  1 -1</clus>
<clus scale="   54.752">  2  5  1 -1</clus>
</clustering>
</event>
<event>
 9    2  0.1488992E-004  0.1157132E+03  0.7546771E-02  0.1255722E+00
          2   -1    0    0  502    0 -0.00000000000E+00  0.00000000000E+00  0.11520928336E+03  0.11520928336E+03  0.00000000000E+00 0. -1.
         21   -1    0    0  501  502  0.00000000000E+00 -0.00000000000E+00 -0.23341312816E+03  0.23341312816E+03  0.00000000000E+00 0.  1.
         24    2    1    2    0    0  0.24292956246E+02  0.62427643006E+02 -0.63296203517E+02  0.12206760853E+03  0.80042072302E+02 0.  0.
         23    2    1    2    0    0 -0.66622106782E+02 -0.36054966083E+02 -0.10158078368E+03  0.15824918612E+03  0.94792845735E+02 0.  0.
        -13    1    3    3    0    0 -0.12389297628E+02  0.54598980823E+02 -0.63369661754E+02  0.84559194849E+02  0.00000000000E+00 0.  1.
         14    1    3    3    0    0  0.36682253874E+02  0.78286621837E+01  0.73458237054E-01  0.37508413683E+02  0.00000000000E+00 0. -1.
        -11    1    4    4    0    0 -0.52985346753E+02 -0.14439238386E+01 -0.32360540632E+01  0.53103709216E+02  0.00000000000E+00 0. -1.
         11    1    4    4    0    0 -0.13636760029E+02 -0.34611042245E+02 -0.98344729620E+02  0.10514547690E+03  0.00000000000E+00 0.  1.
          1    1    1    2  501    0  0.42329150536E+02 -0.26372676923E+02  0.46673142402E+02  0.68305616862E+02  0.00000000000E+00 0. -1.
<scales pt_clust_5="13000.00000" pt_clust_6="13000.00000" pt_clust_7="13000.00000" pt_clust_8="13000.00000" pt_clust_9="49.87261"></scales>
<clustering>
<clus scale="   49.873">  2  9  1 -1</clus>
<clus scale="   80.042">  5  6 -1 -1</clus>
<clus scale="   94.793">  7  8 -1 -1</clus>
<clus scale="  103.974">  1  5  2 -1</clus>
<clus scale="   49.873">  2  5  1 -1</clus>
</clustering>
</event>
<event>
 9    2  0.1488992E-004  0.2939169E+03  0.7546771E-02  0.1088932E+00
         21   -1    0    0  501  502  0.00000000000E+00  0.00000000000E+00  0.73891555057E+03  0.73891555057E+03  0.00000000000E+00 0.  1.
          2   -1    0    0  502    0 -0.00000000000E+00 -0.00000000000E+00 -0.28561298351E+03  0.28561298351E+03  0.00000000000E+00 0. -1.
         23    2    1    2    0    0 -0.79229877624E+01  0.24149386117E+03  0.73517500313E+00  0.26019781856E+03  0.96541729736E+02 0.  0.
         24    2    1    2    0    0 -0.15005662899E+03 -0.35576409927E+03  0.19166331714E+03  0.43862197611E+03  0.81051369864E+02 0.  0.
        -11    1    4    4    0    0 -0.13625400200E+03 -0.23798211952E+03  0.15224369063E+03  0.31365392331E+03  0.00000000000E+00 0.  1.
         12    1    4    4    0    0 -0.13802626988E+02 -0.11778197976E+03  0.39419626508E+02  0.12496805280E+03  0.00000000000E+00 0. -1.
        -11    1    3    3    0    0 -0.37275149586E+02  0.42783670823E+02 -0.15068787528E+02  0.58710711316E+02  0.00000000000E+00 0.  1.
         11    1    3    3    0    0  0.29352161823E+02  0.19871019035E+03  0.15803962531E+02  0.20148710724E+03  0.00000000000E+00 0. -1.
          1    1    1    2  501    0  0.15797961675E+03  0.11427023810E+03  0.26090407492E+03  0.32570873941E+03  0.00000000000E+00 0. -1.
<scales pt_clust_5="13000.00000" pt_clust_6="13000.00000" pt_clust_7="13000.00000" pt_clust_8="13000.00000" pt_clust_9="194.97499"></scales>
<clustering>
<clus scale="   81.051">  5  6 -1 -1</clus>
<clus scale="   96.542">  7  8 -1 -1</clus>
<clus scale="  194.975">  1  9  2 -1</clus>
<clus scale="  289.199">  1  5  2 -1</clus>
<clus scale="  194.975">  1  5  2 -1</clus>
</clustering>
</event>
<event>
 9    2  0.1488992E-004  0.9160338E+02  0.7546771E-02  0.1306397E+00
         21   -1    0    0  501  502  0.00000000000E+00  0.00000000000E+00  0.96134060530E+02  0.96134060530E+02  0.00000000000E+00 0. -1.
          2   -1    0    0  502    0 -0.00000000000E+00 -0.00000000000E+00 -0.41443133540E+03  0.41443133540E+03  0.00000000000E+00 0. -1.
         24    2    1    2    0    0 -0.21979975383E+01  0.92690588122E+01 -0.31477474021E+03  0.32490367429E+03  0.79928179309E+02 0.  0.
         23    2    1    2    0    0 -0.87194884347E+00  0.31350676241E+02 -0.61607788409E+02  0.11471607943E+03  0.91545803240E+02 0.  0.
        -11    1    3    3    0    0 -0.28988825808E+02  0.33254408298E+02 -0.18972328659E+03  0.19478483814E+03  0.00000000000E+00 0.  1.
         12    1    3    3    0    0  0.26790828270E+02 -0.23985349486E+02 -0.12505145361E+03  0.13011883615E+03  0.00000000000E+00 0. -1.
        -13    1    4    4    0    0  0.26381923810E+02  0.53637348247E+02 -0.27862502896E+02  0.65949147823E+02  0.00000000000E+00 0. -1.
         13    1    4    4    0    0 -0.27253872654E+02 -0.22286672006E+02 -0.33745285513E+02  0.48766931604E+02  0.00000000000E+00 0.  1.
          1    1    1    2  501    0  0.30699463818E+01 -0.40619735053E+02  0.58085253748E+02  0.70945642216E+02  0.00000000000E+00 0. -1.
<scales pt_clust_5="13000.00000" pt_clust_6="13000.00000" pt_clust_7="13000.00000" pt_clust_8="13000.00000" pt_clust_9="40.73558"></scales>
<clustering>
<clus scale="   40.736">  1  9  2 -1</clus>
<clus scale="   79.928">  5  6 -1 -1</clus>
<clus scale="   79.994">  2  5  1 -1</clus>
<clus scale="   91.546">  7  8 -1 -1</clus>
<clus scale="   40.736">  1  5  2 -1</clus>
</clustering>
</event>
<event>
 9    2  0.1488992E-004  0.1178473E+03  0.7546771E-02  0.1249811E+00
          2   -1    0    0  502    0 -0.00000000000E+00  0.00000000000E+00  0.40584517433E+03  0.40584517433E+03  0.00000000000E+00 0. -1.
         21   -1    0    0  501  502  0.00000000000E+00 -0.00000000000E+00 -0.48337942337E+02  0.48337942337E+02  0.00000000000E+00 0. -1.
         23    2    1    2    0    0 -0.61421667934E+01 -0.82741736432E+02  0.21847005227E+03  0.25091355681E+03  0.91348388541E+02 0.  0.
         24    2    1    2    0    0 -0.15677593204E+02  0.65113288248E+02  0.13964694248E+03  0.17521183504E+03  0.81929185011E+02 0.  0.
        -11    1    4    4    0    0  0.30430713787E+02  0.75573340600E+01  0.32707863316E+02  0.45309446724E+02  0.00000000000E+00 0.  1.
         12    1    4    4    0    0 -0.46108306991E+02  0.57555954188E+02  0.10693907917E+03  0.12990238831E+03  0.00000000000E+00 0. -1.
        -13    1    3    3    0    0 -0.19134450637E+02 -0.52975331747E+02  0.20989686405E+03  0.21732281636E+03  0.00000000000E+00 0.  1.
         13    1    3    3    0    0  0.12992283844E+02 -0.29766404684E+02  0.85731882264E+01  0.33590740446E+02  0.00000000000E+00 0. -1.
          1    1    1    2  501    0  0.21819759997E+02  0.17628448184E+02 -0.60976276201E+00  0.28057724824E+02  0.00000000000E+00 0. -1.
<scales pt_clust_5="13000.00000" pt_clust_6="13000.00000" pt_clust_7="13000.00000" pt_clust_8="13000.00000" pt_clust_9="28.05110"></scales>
<clustering>
<clus scale="   28.051">  2  9  1 -1</clus>
<clus scale="   81.929">  5  6 -1 -1</clus>
<clus scale="   91.348">  7  8 -1 -1</clus>
<clus scale="  110.706">  2  5  1 -1</clus>
<clus scale="   28.051">  2  5  1 -1</clus>
</clustering>
</event>
<event>
 9    2  0.1488992E-004  0.1731711E+03  0.7546771E-02  0.1174756E+00
          2   -1    0    0  502    0 -0.00000000000E+00  0.00000000000E+00  0.18383961327E+03  0.18383961327E+03  0.00000000000E+00 0. -1.
         21   -1    0    0  501  502  0.00000000000E+00 -0.00000000000E+00 -0.19873613751E+03  0.19873613751E+03  0.00000000000E+00 0.  1.
         23    2    1    2    0    0  0.21961605401E+02 -0.14343487703E+03  0.33596584409E+02  0.17183412820E+03  0.85687578277E+02 0.  0.
         24    2    1    2    0    0 -0.61254771488E+01  0.15938621862E+03 -0.32885320472E+02  0.18337684030E+03  0.84286019604E+02 0.  0.
        -13    1    4    4    0    0  0.37514579096E+02  0.49485122632E+02 -0.13533684065E+02  0.63555342900E+02  0.00000000000E+00 0.  1.
         14    1    4    4    0    0 -0.43640056245E+02  0.10990109599E+03 -0.19351636408E+02  0.11982149740E+03  0.00000000000E+00 0. -1.
        -11    1    3    3    0    0  0.36529161674E+02 -0.11472168109E+03 -0.63053871620E+01  0.12056202417E+03  0.00000000000E+00 0.  1.
         11    1    3    3    0    0 -0.14567556273E+02 -0.28713195944E+02  0.39901971571E+02  0.51272104037E+02  0.00000000000E+00 0. -1.
          1    1    1    2  501    0 -0.15836128252E+02 -0.15951341590E+02 -0.15607788178E+02  0.27364782264E+02  0.00000000000E+00 0. -1.
<scales pt_clust_5="13000.00000" pt_clust_6="13000.00000" pt_clust_7="13000.00000" pt_clust_8="13000.00000" pt_clust_9="22.47728"></scales>
<clustering>
<clus scale="   22.477">  2  9  1 -1</clus>
<clus scale="   84.286">  5  6 -1 -1</clus>
<clus scale="   85.688">  7  8 -1 -1</clus>
<clus scale="  172.482">  2  5  1 -1</clus>
<clus scale="   22.477">  2  5  1 -1</clus>
</clustering>
</event>
<event>
 9    2  0.1488992E-004  0.1029609E+03  0.7546771E-02  0.1277814E+00
          4   -1    0    0  502    0 -0.00000000000E+00  0.00000000000E+00  0.71231778219E+03  0.71231778219E+03  0.00000000000E+00 0. -1.
         21   -1    0    0  501  502  0.00000000000E+00 -0.00000000000E+00 -0.52161488053E+02  0.52161488053E+02  0.00000000000E+00 0. -1.
         23    2    1    2    0    0  0.44447929617E+02  0.22605757355E+02  0.43935872673E+03  0.45163945203E+03  0.91953603333E+02 0.  0.
         24    2    1    2    0    0 -0.52934139872E+02  0.72880503989E+02  0.14711252973E+03  0.19193023775E+03  0.84151819552E+02 0.  0.
        -13    1    4    4    0    0 -0.21276323078E+02 -0.17193743826E+02  0.39786166947E+02  0.48282976615E+02  0.00000000000E+00 0.  1.
         14    1    4    4    0    0 -0.31657816794E+02  0.90074247815E+02  0.10732636278E+03  0.14364726114E+03  0.00000000000E+00 0. -1.
        -13    1    3    3    0    0  0.52580178072E+01 -0.34733936453E+02  0.15199379831E+03  0.15600066608E+03  0.00000000000E+00 0.  1.
         13    1    3    3    0    0  0.39189911810E+02  0.57339693808E+02  0.28736492841E+03  0.29563878595E+03  0.00000000000E+00 0. -1.
          3    1    1    2  501    0  0.84862102544E+01 -0.95486261344E+02  0.73685037684E+02  0.12090958047E+03  0.00000000000E+00 0. -1.
<scales pt_clust_5="13000.00000" pt_clust_6="13000.00000" pt_clust_7="13000.00000" pt_clust_8="13000.00000" pt_clust_9="95.86262"></scales>
<clustering>
<clus scale="   84.152">  5  6 -1 -1</clus>
<clus scale="   91.954">  7  8 -1 -1</clus>
<clus scale="   95.863">  2  9  1 -1</clus>
<clus scale="   96.057">  2  5  1 -1</clus>
<clus scale="   95.863">  2  5  1 -1</clus>
</clustering>
</event>
<event>
 9    2  0.1488992E-004  0.3683930E+03  0.7546771E-02  0.1055543E+00
          2   -1    0    0  502    0 -0.00000000000E+00  0.00000000000E+00  0.11341525522E+04  0.11341525522E+04  0.00000000000E+00 0. -1.
         21   -1    0    0  501  502  0.00000000000E+00 -0.00000000000E+00 -0.27479229297E+03  0.27479229297E+03  0.00000000000E+00 0. -1.
         23    2    1    2    0    0 -0.11849010394E+03  0.34492290976E+03  0.88813097466E+03  0.96449557178E+03  0.91996529391E+02 0.  0.
         24    2    1    2    0    0  0.18981185476E+03 -0.26926209712E+03 -0.26260381580E+02  0.34044132904E+03  0.81731717979E+02 0.  0.
        -11    1    4    4    0    0  0.37986819169E+02 -0.83924572937E+02 -0.40070679015E+02  0.10045890548E+03  0.00000000000E+00 0.  1.
         12    1    4    4    0    0  0.15182503559E+03 -0.18533752418E+03  0.13810297435E+02  0.23998242356E+03  0.00000000000E+00 0. -1.
        -11    1    3    3    0    0 -0.60434219577E+02  0.66695529576E+02  0.17438372817E+03  0.19624034553E+03  0.00000000000E+00 0.  1.
         11    1    3    3    0    0 -0.58055884365E+02  0.27822738019E+03  0.71374724649E+03  0.76825522625E+03  0.00000000000E+00 0. -1.
          1    1    1    2  501    0 -0.71321750814E+02 -0.75660812644E+02 -0.25103338757E+01  0.10400794434E+03  0.00000000000E+00 0. -1.
<scales pt_clust_5="13000.00000" pt_clust_6="13000.00000" pt_clust_7="13000.00000" pt_clust_8="13000.00000" pt_clust_9="103.97765"></scales>
<clustering>
<clus scale="   81.732">  5  6 -1 -1</clus>
<clus scale="   91.997">  7  8 -1 -1</clus>
<clus scale="  103.978">  2  9  1 -1</clus>
<clus scale="  365.965">  2  5  1 -1</clus>
<clus scale="  103.978">  2  5  1 -1</clus>
</clustering>
</event>
<event>
 9    2  0.1488992E-004  0.1332574E+03  0.7546771E-02  0.1225913E+00
          2   -1    0    0  502    0 -0.00000000000E+00  0.00000000000E+00  0.29995499019E+03  0.29995499019E+03  0.00000000000E+00 0. -1.
         21   -1    0    0  501  502  0.00000000000E+00 -0.00000000000E+00 -0.98891041111E+02  0.98891041111E+02  0.00000000000E+00 0. -1.
         24    2    1    2    0    0 -0.11059493365E+03 -0.53247922710E+02  0.14806940694E+03  0.20834672228E+03  0.80107595085E+02 0.  0.
         23    2    1    2    0    0  0.61874795794E+02  0.12008595689E+01  0.33081625541E+02  0.11647854936E+03  0.92967338852E+02 0.  0.
        -11    1    3    3    0    0 -0.26498892957E+02  0.86266607335E+01  0.87179736053E+00  0.27881367147E+02  0.00000000000E+00 0.  1.
         12    1    3    3    0    0 -0.84096040695E+02 -0.61874583443E+02  0.14719760958E+03  0.18046535513E+03  0.00000000000E+00 0. -1.
        -13    1    4    4    0    0 -0.20592585981E+02 -0.17568452704E+02  0.67397536809E+01  0.27894971007E+02  0.00000000000E+00 0. -1.
         13    1    4    4    0    0  0.82467381775E+02  0.18769312273E+02  0.26341871860E+02  0.88583578349E+02  0.00000000000E+00 0.  1.
          1    1    1    2  501    0  0.48720137858E+02  0.52047063141E+02  0.19912916601E+02  0.74020759669E+02  0.00000000000E+00 0. -1.
<scales pt_clust_5="13000.00000" pt_clust_6="13000.00000" pt_clust_7="13000.00000" pt_clust_8="13000.00000" pt_clust_9="71.29200"></scales>
<clustering>
<clus scale="   71.292">  2  9  1 -1</clus>
<clus scale="   80.108">  5  6 -1 -1</clus>
<clus scale="   92.967">  7  8 -1 -1</clus>
<clus scale="  124.627">  1  5  2 -1</clus>
<clus scale="   71.292">  2  5  1 -1</clus>
</clustering>
</event>
<event>
 9    2  0.1488992E-004  0.2234003E+03  0.7546771E-02  0.1172748E+00
         21   -1    0    0  501  502  0.00000000000E+00  0.00000000000E+00  0.23314045966E+03  0.23314045966E+03  0.00000000000E+00 0. -1.
          2   -1    0    0  502    0 -0.00000000000E+00 -0.00000000000E+00 -0.51578349819E+03  0.51578349819E+03  0.00000000000E+00 0. -1.
         24    2    1    2    0    0 -0.15628907468E+02  0.98461486724E+01 -0.22955023960E+03  0.24446711315E+03  0.82034428882E+02 0.  0.
         23    2    1    2    0    0  0.21640558860E+03  0.43352878595E+01 -0.15293601391E+03  0.27977694706E+03  0.89641186155E+02 0.  0.
        -13    1    3    3    0    0 -0.35794014604E+02 -0.25009207603E+02 -0.11199763774E+03  0.12020874679E+03  0.00000000000E+00 0.  1.
         14    1    3    3    0    0  0.20165107136E+02  0.34855356275E+02 -0.11755260186E+03  0.12425836636E+03  0.00000000000E+00 0. -1.
        -11    1    4    4    0    0  0.92705088157E+02 -0.41302297908E+02 -0.54205371316E+02  0.11505796566E+03  0.00000000000E+00 0.  1.
         11    1    4    4    0    0  0.12370050044E+03  0.45637585768E+02 -0.98730642597E+02  0.16471898140E+03  0.00000000000E+00 0. -1.
          1    1    1    2  501    0 -0.20077668113E+03 -0.14181436532E+02  0.99843214981E+02  0.22467989765E+03  0.00000000000E+00 0. -1.
<scales pt_clust_5="13000.00000" pt_clust_6="13000.00000" pt_clust_7="13000.00000" pt_clust_8="13000.00000" pt_clust_9="204.62684"></scales>
<clustering>
<clus scale="   82.034">  5  6 -1 -1</clus>
<clus scale="   84.088">  2  5  1 -1</clus>
<clus scale="   89.641">  7  8 -1 -1</clus>
<clus scale="  204.627">  1  9  2 -1</clus>
<clus scale="  204.627">  1  5  2 -1</clus>
</clustering>
</event>
<event>
 9    2  0.1488992E-004  0.1596684E+03  0.7546771E-02  0.1214945E+00
          2   -1    0    0  502    0 -0.00000000000E+00  0.00000000000E+00  0.11157600408E+04  0.11157600408E+04  0.00000000000E+00 0. -1.
         21   -1    0    0  501  502  0.00000000000E+00 -0.00000000000E+00 -0.14014728958E+03  0.14014728958E+03  0.00000000000E+00 0.  1.
         24    2    1    2    0    0 -0.86198574546E+01 -0.36684319508E+02 -0.35996026802E+02  0.98042958443E+02  0.83046170980E+02 0.  0.
         23    2    1    2    0    0 -0.98055856569E+02 -0.82624774733E+02  0.26393426795E+02  0.15973429213E+03  0.91523913246E+02 0.  0.
        -13    1    3    3    0    0 -0.33014893093E+02 -0.10998099976E+02 -0.49178551449E+02  0.60245093507E+02  0.00000000000E+00 0.  1.
         14    1    3    3    0    0  0.24395035639E+02 -0.25686219533E+02  0.13182524647E+02  0.37797864937E+02  0.00000000000E+00 0. -1.
        -11    1    4    4    0    0 -0.96647960530E+02 -0.36837590023E+02  0.41577801789E+02  0.11147443615E+03  0.00000000000E+00 0. -1.
         11    1    4    4    0    0 -0.14078960391E+01 -0.45787184710E+02 -0.15184374994E+02  0.48259855976E+02  0.00000000000E+00 0.  1.
          1    1    1    2  501    0  0.10667571402E+03  0.11930909424E+03  0.98521535125E+03  0.99813007983E+03  0.00000000000E+00 0. -1.
<scales pt_clust_5="13000.00000" pt_clust_6="13000.00000" pt_clust_7="13000.00000" pt_clust_8="13000.00000" pt_clust_9="130.83346"></scales>
<clustering>
<clus scale="   83.046">  5  6 -1 -1</clus>
<clus scale="   91.196">  1  5  2 -1</clus>
<clus scale="   91.524">  7  8 -1 -1</clus>
<clus scale="  130.833">  2  9  1 -1</clus>
<clus scale="  130.833">  2  5  1 -1</clus>
</clustering>
</event>
<event>
 9    2  0.1488992E-004  0.1472084E+03  0.7546771E-02  0.1206110E+00
          2   -1    0    0  502    0 -0.00000000000E+00  0.00000000000E+00  0.11925538009E+04  0.11925538009E+04  0.00000000000E+00 0. -1.
         21   -1    0    0  501  502  0.00000000000E+00 -0.00000000000E+00 -0.28665552298E+02  0.28665552298E+02  0.00000000000E+00 0. -1.
         24    2    1    2    0    0 -0.13188845801E+03  0.93559362210E+01  0.66357154061E+03  0.68131389926E+03  0.79870776364E+02 0.  0.
         23    2    1    2    0    0  0.95346800357E+02 -0.27192574064E+02  0.47073354093E+03  0.48962024572E+03  0.91145323742E+02 0.  0.
        -13    1    3    3    0    0 -0.21709614645E+02 -0.21101965794E+02  0.62230006719E+02  0.69203858741E+02  0.00000000000E+00 0.  1.
         14    1    3    3    0    0 -0.11017884336E+03  0.30457902015E+02  0.60134153389E+03  0.61211004052E+03  0.00000000000E+00 0. -1.
        -13    1    4    4    0    0  0.52267859257E+02  0.26872931283E+02  0.14172679698E+03  0.15342936006E+03  0.00000000000E+00 0.  1.
         13    1    4    4    0    0  0.43078941100E+02 -0.54065505347E+02  0.32900674395E+03  0.33619088566E+03  0.00000000000E+00 0. -1.
          1    1    1    2  501    0  0.36541657648E+02  0.17836637843E+02  0.29583167087E+02  0.50285208244E+02  0.00000000000E+00 0. -1.
<scales pt_clust_5="13000.00000" pt_clust_6="13000.00000" pt_clust_7="13000.00000" pt_clust_8="13000.00000" pt_clust_9="40.66249"></scales>
<clustering>
<clus scale="   40.662">  2  9  1 -1</clus>
<clus scale="   79.871">  5  6 -1 -1</clus>
<clus scale="   91.145">  7  8 -1 -1</clus>
<clus scale="  140.507">  1  5  2 -1</clus>
<clus scale="   40.662">  2  5  1 -1</clus>
</clustering>
</event>
<event>
 9    2  0.1488992E-004  0.1422836E+03  0.7546771E-02  0.1228775E+00
         21   -1    0    0  501  502  0.00000000000E+00  0.00000000000E+00  0.11960809350E+03  0.11960809350E+03  0.00000000000E+00 0. -1.
          2   -1    0    0  502    0 -0.00000000000E+00 -0.00000000000E+00 -0.26392316729E+03  0.26392316729E+03  0.00000000000E+00 0. -1.
         24    2    1    2    0    0  0.31526211966E+02 -0.42394821239E+02 -0.42146597017E+02  0.10528445054E+03  0.80729529764E+02 0.  0.
         23    2    1    2    0    0  0.48571421236E+02  0.11197190693E+03 -0.68910609622E+02  0.16705918762E+03  0.90902195510E+02 0.  0.
        -11    1    3    3    0    0 -0.19780723250E+02 -0.16724325892E+02 -0.40271974743E+02  0.47883316913E+02  0.00000000000E+00 0.  1.
         12    1    3    3    0    0  0.51306935217E+02 -0.25670495348E+02 -0.18746222737E+01  0.57401133625E+02  0.00000000000E+00 0. -1.
        -11    1    4    4    0    0  0.30041190728E+02  0.18907785315E+02 -0.62593955022E+02  0.71958187103E+02  0.00000000000E+00 0.  1.
         11    1    4    4    0    0  0.18530230508E+02  0.93064121615E+02 -0.63166546004E+01  0.95101000521E+02  0.00000000000E+00 0. -1.
          1    1    1    2  501    0 -0.80097633202E+02 -0.69577085691E+02 -0.33257867156E+02  0.11118762263E+03  0.00000000000E+00 0. -1.
<scales pt_clust_5="13000.00000" pt_clust_6="13000.00000" pt_clust_7="13000.00000" pt_clust_8="13000.00000" pt_clust_9="109.45969"></scales>
<clustering>
<clus scale="   80.730">  5  6 -1 -1</clus>
<clus scale="   90.902">  7  8 -1 -1</clus>
<clus scale="   96.480">  2  5  1 -1</clus>
<clus scale="  109.460">  1  9  2 -1</clus>
<clus scale="  109.460">  1  5  2 -1</clus>
</clustering>
</event>
<event>
 9    2  0.1488992E-004  0.1331388E+03  0.7546771E-02  0.1245426E+00
          2   -1    0    0  502    0 -0.00000000000E+00  0.00000000000E+00  0.39757741071E+03  0.39757741071E+03  0.00000000000E+00 0. -1.
         21   -1    0    0  501  502  0.00000000000E+00 -0.00000000000E+00 -0.99964722971E+02  0.99964722971E+02  0.00000000000E+00 0.  1.
         24    2    1    2    0    0  0.52919390477E+01  0.18828094820E+02  0.36743108046E+02  0.91530405102E+02  0.81518447580E+02 0.  0.
         23    2    1    2    0    0 -0.10154314633E+03 -0.24638528458E+02  0.27561537590E+03  0.30846433216E+03  0.90930419193E+02 0.  0.
        -13    1    3    3    0    0 -0.23227267321E+02  0.40334720831E+02  0.29434991448E+02  0.55070993938E+02  0.00000000000E+00 0.  1.
         14    1    3    3    0    0  0.28519206368E+02 -0.21506626011E+02  0.73081165978E+01  0.36459411165E+02  0.00000000000E+00 0. -1.
        -11    1    4    4    0    0 -0.63350536322E+01 -0.26303880677E+02  0.14101287554E+03  0.14358502050E+03  0.00000000000E+00 0. -1.
         11    1    4    4    0    0 -0.95208092693E+02  0.16653522184E+01  0.13460250035E+03  0.16487931166E+03  0.00000000000E+00 0.  1.
          1    1    1    2  501    0  0.96251207277E+02  0.58104336379E+01 -0.14745796207E+02  0.97547396414E+02  0.00000000000E+00 0. -1.
<scales pt_clust_5="13000.00000" pt_clust_6="13000.00000" pt_clust_7="13000.00000" pt_clust_8="13000.00000" pt_clust_9="97.25022"></scales>
<clustering>
<clus scale="   81.518">  5  6 -1 -1</clus>
<clus scale="   83.832">  1  5  2 -1</clus>
<clus scale="   90.930">  7  8 -1 -1</clus>
<clus scale="   97.250">  2  9  1 -1</clus>
<clus scale="   97.250">  2  5  1 -1</clus>
</clustering>
</event>
<event>
 9    2  0.1488992E-004  0.2738293E+03  0.7546771E-02  0.1099741E+00
         21   -1    0    0  501  502  0.00000000000E+00  0.00000000000E+00  0.61693372270E+02  0.61693372270E+02  0.00000000000E+00 0.  1.
          2   -1    0    0  502    0 -0.00000000000E+00 -0.00000000000E+00 -0.14796337764E+04  0.14796337764E+04  0.00000000000E+00 0. -1.
         24    2    1    2    0    0  0.25891518822E+03  0.61994337713E+02 -0.97518358041E+03  0.10136975318E+04  0.75626039527E+02 0.  0.
         23    2    1    2    0    0 -0.23421776986E+03 -0.67775919642E+02 -0.41747350622E+03  0.49181571864E+03  0.90260920121E+02 0.  0.
        -13    1    3    3    0    0  0.22743969190E+03  0.47095698300E+02 -0.73016100476E+03  0.76621270619E+03  0.00000000000E+00 0.  1.
         14    1    3    3    0    0  0.31475496315E+02  0.14898639414E+02 -0.24502257565E+03  0.24748482560E+03  0.00000000000E+00 0. -1.
        -11    1    4    4    0    0 -0.53475477082E+02 -0.49983391961E+02 -0.79023147928E+02  0.10771547721E+03  0.00000000000E+00 0.  1.
         11    1    4    4    0    0 -0.18074229278E+03 -0.17792527681E+02 -0.33845035829E+03  0.38410024143E+03  0.00000000000E+00 0. -1.
          1    1    1    2  501    0 -0.24697418359E+02  0.57815819285E+01 -0.25283317470E+02  0.35813898217E+02  0.00000000000E+00 0. -1.
<scales pt_clust_5="13000.00000" pt_clust_6="13000.00000" pt_clust_7="13000.00000" pt_clust_8="13000.00000" pt_clust_9="25.36512"></scales>
<clustering>
<clus scale="   25.365">  1  9  2 -1</clus>
<clus scale="   75.626">  5  6 -1 -1</clus>
<clus scale="   90.261">  7  8 -1 -1</clus>
<clus scale="  269.360">  2  5  1 -1</clus>
<clus scale="   25.365">  1  5  2 -1</clus>
</clustering>
</event>
<event>
 9    2  0.1488992E-004  0.1297556E+03  0.7546771E-02  0.1231058E+00
         21   -1    0    0  501  502  0.00000000000E+00  0.00000000000E+00  0.19333653231E+03  0.19333653231E+03  0.00000000000E+00 0.  1.
         -3   -1    0    0    0  501 -0.00000000000E+00 -0.00000000000E+00 -0.12324573930E+03  0.12324573930E+03  0.00000000000E+00 0.  1.
         24    2    1    2    0    0  0.19079368362E+02  0.10265830416E+03  0.29299053542E+02  0.13480143292E+03  0.80063987347E+02 0.  0.
         23    2    1    2    0    0 -0.28373778723E+02 -0.69988314677E+02  0.68862946663E+02  0.13771603470E+03  0.92304741367E+02 0.  0.
        -13    1    3    3    0    0  0.74001386135E+01  0.11451502179E+03  0.23195920590E+02  0.11707477525E+03  0.00000000000E+00 0.  1.
         14    1    3    3    0    0  0.11679229749E+02 -0.11856717632E+02  0.61031329517E+01  0.17726657676E+02  0.00000000000E+00 0. -1.
        -13    1    4    4    0    0  0.10694780720E+02 -0.45738715728E+02  0.77792960205E+02  0.90874380925E+02  0.00000000000E+00 0.  1.
         13    1    4    4    0    0 -0.39068559443E+02 -0.24249598949E+02 -0.89300135417E+01  0.46841653771E+02  0.00000000000E+00 0. -1.
         -4    1    1    2    0  502  0.92944103605E+01 -0.32669989482E+02 -0.28071207194E+02  0.44064803982E+02  0.00000000000E+00 0.  1.
<scales pt_clust_5="13000.00000" pt_clust_6="13000.00000" pt_clust_7="13000.00000" pt_clust_8="13000.00000" pt_clust_9="33.96639"></scales>
<clustering>
<clus scale="   33.966">  1  9  2 -1</clus>
<clus scale="   80.064">  5  6 -1 -1</clus>
<clus scale="   92.305">  7  8 -1 -1</clus>
<clus scale="  121.353">  2  5  1 -1</clus>
<clus scale="   33.966">  1  5  2 -1</clus>
</clustering>
</event>
<event>
 9    2  0.1488992E-004  0.1434487E+03  0.7546771E-02  0.1211271E+00
         21   -1    0    0  501  502  0.00000000000E+00  0.00000000000E+00  0.46501309391E+02  0.46501309391E+02  0.00000000000E+00 0. -1.
          2   -1    0    0  502    0 -0.00000000000E+00 -0.00000000000E+00 -0.81640173932E+03  0.81640173932E+03  0.00000000000E+00 0. -1.
         24    2    1    2    0    0 -0.90503383777E+02 -0.37462630742E+02 -0.43788359320E+03  0.45580595467E+03  0.80141848877E+02 0.  0.
         23    2    1    2    0    0  0.13093305417E+03  0.76017450327E+02 -0.22587002815E+03  0.28714636527E+03  0.92269431781E+02 0.  0.
        -11    1    3    3    0    0 -0.27336415631E+02  0.24652983550E+02 -0.10213756389E+03  0.10856855518E+03  0.00000000000E+00 0.  1.
         12    1    3    3    0    0 -0.63166968145E+02 -0.62115614293E+02 -0.33574602931E+03  0.34723739949E+03  0.00000000000E+00 0. -1.
        -13    1    4    4    0    0  0.13990491729E+03  0.48925350643E+02 -0.19725989557E+03  0.24673577409E+03  0.00000000000E+00 0. -1.
         13    1    4    4    0    0 -0.89718631136E+01  0.27092099684E+02 -0.28610132585E+02  0.40410591180E+02  0.00000000000E+00 0.  1.
          1    1    1    2  501    0 -0.40429670396E+02 -0.38554819585E+02 -0.10614680857E+03  0.11995072877E+03  0.00000000000E+00 0. -1.
<scales pt_clust_5="13000.00000" pt_clust_6="13000.00000" pt_clust_7="13000.00000" pt_clust_8="13000.00000" pt_clust_9="55.86620"></scales>
<clustering>
<clus scale="   55.866">  1  9  2 -1</clus>
<clus scale="   80.142">  5  6 -1 -1</clus>
<clus scale="   92.269">  7  8 -1 -1</clus>
<clus scale="  135.965">  2  5  1 -1</clus>
<clus scale="   55.866">  1  5  2 -1</clus>
</clustering>
</event>
<event>
 9    2  0.1488992E-004  0.2336332E+03  0.7546771E-02  0.1124108E+00
         21   -1    0    0  501  502  0.00000000000E+00  0.00000000000E+00  0.45834669715E+02  0.45834669715E+02  0.00000000000E+00 0. -1.
          2   -1    0    0  502    0 -0.00000000000E+00 -0.00000000000E+00 -0.94778759614E+03  0.94778759614E+03  0.00000000000E+00 0. -1.
         24    2    1    2    0    0 -0.11377951972E+03 -0.55758251940E+02 -0.15023797482E+03  0.20631512454E+03  0.62767187047E+02 0.  0.
         23    2    1    2    0    0 -0.83317709369E+01 -0.95321552118E+01 -0.17461511025E+03  0.19382737631E+03  0.83176527281E+02 0.  0.
        -13    1    3    3    0    0  0.21154741661E+00 -0.21819864724E+02 -0.30915434384E+02  0.37840657130E+02  0.00000000000E+00 0.  1.
         14    1    3    3    0    0 -0.11399106714E+03 -0.33938387216E+02 -0.11932254043E+03  0.16847446741E+03  0.00000000000E+00 0. -1.
        -13    1    4    4    0    0  0.27959888102E+02 -0.30749568960E+02 -0.97726035891E+02  0.10619637200E+03  0.00000000000E+00 0.  1.
         13    1    4    4    0    0 -0.36291659038E+02  0.21217413748E+02 -0.76889074358E+02  0.87631004317E+02  0.00000000000E+00 0. -1.
          1    1    1    2  501    0  0.12211129066E+03  0.65290407152E+02 -0.57709984136E+03  0.59347976500E+03  0.00000000000E+00 0. -1.
<scales pt_clust_5="13000.00000" pt_clust_6="13000.00000" pt_clust_7="13000.00000" pt_clust_8="13000.00000" pt_clust_9="138.47030"></scales>
<clustering>
<clus scale="   62.767">  5  6 -1 -1</clus>
<clus scale="   83.177">  7  8 -1 -1</clus>
<clus scale="   83.484">  5  7 -1 -1</clus>
<clus scale="  138.470">  1  9  2 -1</clus>
<clus scale="  138.470">  1  5  2 -1</clus>
</clustering>
</event>
<event>
 9    2  0.1488992E-004  0.3747293E+03  0.7546771E-02  0.1053178E+00
          2   -1    0    0  502    0 -0.00000000000E+00  0.00000000000E+00  0.11919479150E+04  0.11919479150E+04  0.00000000000E+00 0. -1.
         21   -1    0    0  501  502  0.00000000000E+00 -0.00000000000E+00 -0.21576866977E+03  0.21576866977E+03  0.00000000000E+00 0. -1.
         23    2    1    2    0    0  0.42396062550E+03 -0.69346524815E+02  0.66534799373E+03  0.79727215342E+03  0.91669958911E+02 0.  0.
         24    2    1    2    0    0 -0.27025455671E+03 -0.86670205032E+02  0.11351222813E+03  0.31565370464E+03  0.78759034120E+02 0.  0.
        -11    1    4    4    0    0 -0.11027204624E+03  0.44809265242E+01  0.45267552028E+02  0.11928601825E+03  0.00000000000E+00 0.  1.
         12    1    4    4    0    0 -0.15998251047E+03 -0.91151131557E+02  0.68244676101E+02  0.19636768639E+03  0.00000000000E+00 0. -1.
        -11    1    3    3    0    0  0.18956498326E+03 -0.40959744092E+01  0.35961697945E+03  0.40654154990E+03  0.00000000000E+00 0. -1.
         11    1    3    3    0    0  0.23439564224E+03 -0.65250550406E+02  0.30573101428E+03  0.39073060352E+03  0.00000000000E+00 0.  1.
          1    1    1    2  501    0 -0.15370606879E+03  0.15601672985E+03  0.19731902338E+03  0.29479072673E+03  0.00000000000E+00 0. -1.
<scales pt_clust_5="13000.00000" pt_clust_6="13000.00000" pt_clust_7="13000.00000" pt_clust_8="13000.00000" pt_clust_9="219.01319"></scales>
<clustering>
<clus scale="   78.759">  5  6 -1 -1</clus>
<clus scale="   91.670">  7  8 -1 -1</clus>
<clus scale="  219.013">  2  9  1 -1</clus>
<clus scale="  371.782">  2  5  1 -1</clus>
<clus scale="  219.013">  2  5  1 -1</clus>
</clustering>
</event>
<event>
 9    2  0.1488992E-004  0.1120661E+03  0.7546771E-02  0.1261247E+00
         21   -1    0    0  501  502  0.00000000000E+00  0.00000000000E+00  0.59754465046E+03  0.59754465046E+03  0.00000000000E+00 0.  1.
         -3   -1    0    0    0  501 -0.00000000000E+00 -0.00000000000E+00 -0.54932874848E+02  0.54932874848E+02  0.00000000000E+00 0.  1.
         24    2    1    2    0    0  0.51594453177E+02 -0.55739247732E+02  0.49244218555E+02  0.11997739754E+03  0.78744723784E+02 0.  0.
         23    2    1    2    0    0  0.19882489265E+02  0.38191904141E+02  0.40618975274E+03  0.41840879534E+03  0.90674527135E+02 0.  0.
        -13    1    3    3    0    0  0.69836257137E+02 -0.37976300714E+02  0.51013338993E+02  0.94454555115E+02  0.00000000000E+00 0.  1.
         14    1    3    3    0    0 -0.18241803960E+02 -0.17762947018E+02 -0.17691204382E+01  0.25522842428E+02  0.00000000000E+00 0. -1.
        -13    1    4    4    0    0  0.51993511303E+02  0.28328311657E+02  0.32810998093E+03  0.33340962501E+03  0.00000000000E+00 0.  1.
         13    1    4    4    0    0 -0.32111022039E+02  0.98635924839E+01  0.78079771802E+02  0.84999170335E+02  0.00000000000E+00 0. -1.
         -4    1    1    2    0  502 -0.71476942442E+02  0.17547343592E+02  0.87177804324E+02  0.11409133243E+03  0.00000000000E+00 0.  1.
<scales pt_clust_5="13000.00000" pt_clust_6="13000.00000" pt_clust_7="13000.00000" pt_clust_8="13000.00000" pt_clust_9="73.59937"></scales>
<clustering>
<clus scale="   73.599">  1  9  2 -1</clus>
<clus scale="   78.745">  5  6 -1 -1</clus>
<clus scale="   90.675">  7  8 -1 -1</clus>
<clus scale="  102.653">  2  5  1 -1</clus>
<clus scale="   73.599">  1  5  2 -1</clus>
</clustering>
</event>
<event>
 9    2  0.1488992E-004  0.9694005E+02  0.7546771E-02  0.1293641E+00
         21   -1    0    0  501  502  0.00000000000E+00  0.00000000000E+00  0.46573064940E+02  0.46573064940E+02  0.00000000000E+00 0. -1.
          2   -1    0    0  502    0 -0.00000000000E+00 -0.00000000000E+00 -0.46410267195E+03  0.46410267195E+03  0.00000000000E+00 0. -1.
         24    2    1    2    0    0  0.44397931563E+02 -0.13242704006E+02 -0.24425984792E+03  0.26078005926E+03  0.78719886067E+02 0.  0.
         23    2    1    2    0    0 -0.23958152008E+01 -0.50105021229E+02 -0.10299131913E+03  0.14637673640E+03  0.91119065292E+02 0.  0.
        -11    1    3    3    0    0  0.39516417604E+02  0.28821237095E+02 -0.12527074349E+03  0.13448037084E+03  0.00000000000E+00 0.  1.
         12    1    3    3    0    0  0.48815139594E+01 -0.42063941101E+02 -0.11898910443E+03  0.12629968841E+03  0.00000000000E+00 0. -1.
        -11    1    4    4    0    0  0.12404624832E+02 -0.31321283112E+02 -0.11484644103E+03  0.11968543148E+03  0.00000000000E+00 0. -1.
         11    1    4    4    0    0 -0.14800440032E+02 -0.18783738117E+02  0.11855121898E+02  0.26691304914E+02  0.00000000000E+00 0.  1.
          1    1    1    2  501    0 -0.42002116362E+02  0.63347725235E+02 -0.70278439959E+02  0.10351894124E+03  0.00000000000E+00 0. -1.
<scales pt_clust_5="13000.00000" pt_clust_6="13000.00000" pt_clust_7="13000.00000" pt_clust_8="13000.00000" pt_clust_9="76.00732"></scales>
<clustering>
<clus scale="   76.007">  1  9  2 -1</clus>
<clus scale="   78.720">  5  6 -1 -1</clus>
<clus scale="   85.390">  2  5  1 -1</clus>
<clus scale="   91.119">  7  8 -1 -1</clus>
<clus scale="   76.007">  1  5  2 -1</clus>
</clustering>
</event>
<event>
 9    2  0.1488992E-004  0.1367948E+03  0.7546771E-02  0.1219153E+00
          4   -1    0    0  502    0 -0.00000000000E+00  0.00000000000E+00  0.45061387418E+03  0.45061387418E+03  0.00000000000E+00 0. -1.
         21   -1    0    0  501  502  0.00000000000E+00 -0.00000000000E+00 -0.87379114197E+02  0.87379114197E+02  0.00000000000E+00 0.  1.
         24    2    1    2    0    0 -0.21706130530E+02 -0.11066317861E+03  0.23482043194E+03  0.27323579132E+03  0.82460094573E+02 0.  0.
         23    2    1    2    0    0  0.29180408871E+02  0.89795516294E+02  0.17226368595E+03  0.21562380356E+03  0.88905096343E+02 0.  0.
        -13    1    3    3    0    0  0.89353256410E+01 -0.23419894324E+02  0.50679370050E+01  0.25573726360E+02  0.00000000000E+00 0.  1.
         14    1    3    3    0    0 -0.30641456171E+02 -0.87243284288E+02  0.22975249494E+03  0.24766206496E+03  0.00000000000E+00 0. -1.
        -13    1    4    4    0    0  0.11939820562E+02  0.33484779381E+02  0.14752494120E+03  0.15174781066E+03  0.00000000000E+00 0. -1.
         13    1    4    4    0    0  0.17240588309E+02  0.56310736913E+02  0.24738744756E+02  0.63875992901E+02  0.00000000000E+00 0.  1.
          3    1    1    2  501    0 -0.74742783406E+01  0.20867662318E+02 -0.43849357912E+02  0.49133393498E+02  0.00000000000E+00 0. -1.
<scales pt_clust_5="13000.00000" pt_clust_6="13000.00000" pt_clust_7="13000.00000" pt_clust_8="13000.00000" pt_clust_9="22.16583"></scales>
<clustering>
<clus scale="   22.166">  2  9  1 -1</clus>
<clus scale="   82.460">  5  6 -1 -1</clus>
<clus scale="   88.905">  7  8 -1 -1</clus>
<clus scale="  132.697">  1  5  2 -1</clus>
<clus scale="   22.166">  2  5  1 -1</clus>
</clustering>
</event>
<event>
 9    2  0.1488992E-004  0.2576645E+03  0.7546771E-02  0.1125533E+00
          2   -1    0    0  502    0 -0.00000000000E+00  0.00000000000E+00  0.90125840337E+03  0.90125840337E+03  0.00000000000E+00 0. -1.
         21   -1    0    0  501  502  0.00000000000E+00 -0.00000000000E+00 -0.50514882870E+03  0.50514882870E+03  0.00000000000E+00 0. -1.
         23    2    1    2    0    0 -0.12449795287E+03  0.66079480542E+02  0.26352294335E+01  0.16814866696E+03  0.91655833153E+02 0.  0.
         24    2    1    2    0    0 -0.19095696653E+03  0.14108748631E+03 -0.33458161720E+03  0.41820037037E+03  0.81095310288E+02 0.  0.
        -11    1    4    4    0    0 -0.40854687822E+02  0.59670659172E+02 -0.56067327210E+02  0.91505400188E+02  0.00000000000E+00 0.  1.
         12    1    4    4    0    0 -0.15010227871E+03  0.81416827137E+02 -0.27851428999E+03  0.32669497018E+03  0.00000000000E+00 0. -1.
        -13    1    3    3    0    0 -0.32148135025E+02 -0.19979392980E+02 -0.14952102163E+02  0.40696978862E+02  0.00000000000E+00 0. -1.
         13    1    3    3    0    0 -0.92349817841E+02  0.86058873522E+02  0.17587331597E+02  0.12745168810E+03  0.00000000000E+00 0.  1.
          1    1    1    2  501    0  0.31545491940E+03 -0.20716696685E+03  0.72805596243E+03  0.82005819474E+03  0.00000000000E+00 0. -1.
<scales pt_clust_5="13000.00000" pt_clust_6="13000.00000" pt_clust_7="13000.00000" pt_clust_8="13000.00000" pt_clust_9="244.57020"></scales>
<clustering>
<clus scale="   81.095">  5  6 -1 -1</clus>
<clus scale="   91.656">  7  8 -1 -1</clus>
<clus scale="  168.128">  1  7  2 -1</clus>
<clus scale="  244.570">  2  9  1 -1</clus>
<clus scale="  244.570">  2  5  1 -1</clus>
</clustering>
</event>
<event>
 9    2  0.1488992E-004  0.1331239E+03  0.7546771E-02  0.1225623E+00
         21   -1    0    0  501  502  0.00000000000E+00  0.00000000000E+00  0.45389749102E+02  0.45389749102E+02  0.00000000000E+00 0.  1.
          2   -1    0    0  502    0 -0.00000000000E+00 -0.00000000000E+00 -0.97085097393E+03  0.97085097393E+03  0.00000000000E+00 0. -1.
         24    2    1    2    0    0  0.23681949482E+01  0.10128381741E+03 -0.77039684219E+03  0.78114465956E+03  0.80072871119E+02 0.  0.
         23    2    1    2    0    0 -0.33083844809E+00 -0.66869052983E+02 -0.48426949656E+02  0.12302435007E+03  0.91204394386E+02 0.  0.
        -11    1    3    3    0    0  0.13873812825E+02  0.31146954993E+02 -0.78224272921E+02  0.85332598471E+02  0.00000000000E+00 0.  1.
         12    1    3    3    0    0 -0.11505617876E+02  0.70136862419E+02 -0.69217256927E+03  0.69581206109E+03  0.00000000000E+00 0. -1.
        -13    1    4    4    0    0 -0.40905243506E+02 -0.37275831841E+02 -0.47284957293E+02  0.72791440238E+02  0.00000000000E+00 0. -1.
         13    1    4    4    0    0  0.40574405057E+02 -0.29593221142E+02 -0.11419923630E+01  0.50232909829E+02  0.00000000000E+00 0.  1.
          1    1    1    2  501    0 -0.20373565002E+01 -0.34414764430E+02 -0.10663743298E+03  0.11207171340E+03  0.00000000000E+00 0. -1.
<scales pt_clust_5="13000.00000" pt_clust_6="13000.00000" pt_clust_7="13000.00000" pt_clust_8="13000.00000" pt_clust_9="34.47503"></scales>
<clustering>
<clus scale="   34.475">  1  9  2 -1</clus>
<clus scale="   80.073">  5  6 -1 -1</clus>
<clus scale="   91.204">  7  8 -1 -1</clus>
<clus scale="  125.759">  2  5  1 -1</clus>
<clus scale="   34.475">  1  5  2 -1</clus>
</clustering>
</event>
<event>
 9    2  0.1488992E-004  0.1986720E+03  0.7546771E-02  0.1152345E+00
          2   -1    0    0  502    0 -0.00000000000E+00  0.00000000000E+00  0.60990018300E+03  0.60990018300E+03  0.00000000000E+00 0. -1.
         21   -1    0    0  501  502  0.00000000000E+00 -0.00000000000E+00 -0.10988181175E+03  0.10988181175E+03  0.00000000000E+00 0.  1.
         24    2    1    2    0    0 -0.16548148045E+03  0.10235323947E+03  0.34379295732E+03  0.40270154604E+03  0.78196110394E+02 0.  0.
         23    2    1    2    0    0  0.75007988200E+02 -0.12793451075E+03  0.67996417798E+02  0.18814554266E+03  0.93711232285E+02 0.  0.
        -13    1    3    3    0    0 -0.21381682204E+02  0.23010650188E+01  0.64180962121E+01  0.22442441781E+02  0.00000000000E+00 0.  1.
         14    1    3    3    0    0 -0.14409979825E+03  0.10005217445E+03  0.33737486111E+03  0.38025910426E+03  0.00000000000E+00 0. -1.
        -13    1    4    4    0    0  0.18254017001E+02 -0.17510561453E+02 -0.23020739844E+02  0.34202095872E+02  0.00000000000E+00 0. -1.
         13    1    4    4    0    0  0.56753971199E+02 -0.11042394930E+03  0.91017157642E+02  0.15394344679E+03  0.00000000000E+00 0.  1.
          1    1    1    2  501    0  0.90473492250E+02  0.25581271282E+02  0.88228996130E+02  0.12893490605E+03  0.00000000000E+00 0. -1.
<scales pt_clust_5="13000.00000" pt_clust_6="13000.00000" pt_clust_7="13000.00000" pt_clust_8="13000.00000" pt_clust_9="94.02050"></scales>
<clustering>
<clus scale="   78.196">  5  6 -1 -1</clus>
<clus scale="   93.711">  7  8 -1 -1</clus>
<clus scale="   94.020">  2  9  1 -1</clus>
<clus scale="  191.842">  1  5  2 -1</clus>
<clus scale="   94.020">  2  5  1 -1</clus>
</clustering>
</event>
<event>
 9    2  0.1488992E-004  0.2177638E+03  0.7546771E-02  0.1181565E+00
          2   -1    0    0  502    0 -0.00000000000E+00  0.00000000000E+00  0.44591682616E+03  0.44591682616E+03  0.00000000000E+00 0. -1.
         21   -1    0    0  501  502  0.00000000000E+00 -0.00000000000E+00 -0.23819144183E+03  0.23819144183E+03  0.00000000000E+00 0. -1.
         24    2    1    2    0    0  0.36735696093E+02  0.67224375858E+01  0.14937290899E+03  0.16687286942E+03  0.64339615132E+02 0.  0.
         23    2    1    2    0    0  0.17284309873E+03  0.77414090234E+02 -0.10819695278E+03  0.23662724016E+03  0.91750705980E+02 0.  0.
        -13    1    3    3    0    0 -0.71712782646E+01  0.25444664279E+02  0.47159728335E+02  0.54063834019E+02  0.00000000000E+00 0.  1.
         14    1    3    3    0    0  0.43906974357E+02 -0.18722226693E+02  0.10221318066E+03  0.11280903541E+03  0.00000000000E+00 0. -1.
        -11    1    4    4    0    0  0.14561451360E+03  0.79768288856E+02 -0.51746335252E+02  0.17390873955E+03  0.00000000000E+00 0. -1.
         11    1    4    4    0    0  0.27228585126E+02 -0.23541986222E+01 -0.56450617531E+02  0.62718500610E+02  0.00000000000E+00 0.  1.
          1    1    1    2  501    0 -0.20957879482E+03 -0.84136527820E+02  0.16654942812E+03  0.28060815840E+03  0.00000000000E+00 0. -1.
<scales pt_clust_5="13000.00000" pt_clust_6="13000.00000" pt_clust_7="13000.00000" pt_clust_8="13000.00000" pt_clust_9="197.49155"></scales>
<clustering>
<clus scale="   64.340">  5  6 -1 -1</clus>
<clus scale="   74.393">  1  5  2 -1</clus>
<clus scale="   91.751">  7  8 -1 -1</clus>
<clus scale="  197.492">  2  9  1 -1</clus>
<clus scale="  197.492">  2  5  1 -1</clus>
</clustering>
</event>
<event>
 9    2  0.1488992E-004  0.1559655E+03  0.7546771E-02  0.1193915E+00
          2   -1    0    0  502    0 -0.00000000000E+00  0.00000000000E+00  0.89227185227E+03  0.89227185227E+03  0.00000000000E+00 0. -1.
         21   -1    0    0  501  502  0.00000000000E+00 -0.00000000000E+00 -0.47590505947E+02  0.47590505947E+02  0.00000000000E+00 0. -1.
         23    2    1    2    0    0  0.89183670699E+02 -0.85231929220E+02  0.53045161931E+03  0.55238614192E+03  0.92375973497E+02 0.  0.
         24    2    1    2    0    0 -0.74228065788E+02  0.11356680077E+03  0.15270106804E+03  0.22280064819E+03  0.88967908053E+02 0.  0.
        -11    1    4    4    0    0 -0.50240010433E+02  0.55049207609E+01  0.59740656825E+02  0.78251574290E+02  0.00000000000E+00 0.  1.
         12    1    4    4    0    0 -0.23988055355E+02  0.10806188001E+03  0.92960411220E+02  0.14454907390E+03  0.00000000000E+00 0. -1.
        -13    1    3    3    0    0  0.23172870322E+02  0.22056544502E+01  0.21205251702E+02  0.31488244318E+02  0.00000000000E+00 0.  1.
         13    1    3    3    0    0  0.66010800377E+02 -0.87437583670E+02  0.50924636761E+03  0.52089789760E+03  0.00000000000E+00 0. -1.
          1    1    1    2  501    0 -0.14955604911E+02 -0.28334871550E+02  0.16152865897E+03  0.16467556811E+03  0.00000000000E+00 0. -1.
<scales pt_clust_5="13000.00000" pt_clust_6="13000.00000" pt_clust_7="13000.00000" pt_clust_8="13000.00000" pt_clust_9="32.03960"></scales>
<clustering>
<clus scale="   32.040">  2  9  1 -1</clus>
<clus scale="   88.968">  5  6 -1 -1</clus>
<clus scale="   92.376">  7  8 -1 -1</clus>
<clus scale="  153.971">  2  5  1 -1</clus>
<clus scale="   32.040">  2  5  1 -1</clus>
</clustering>
</event>
<event>
 9    2  0.1488992E-004  0.1938624E+03  0.7546771E-02  0.1191989E+00
          2   -1    0    0  502    0 -0.00000000000E+00  0.00000000000E+00  0.68338070993E+03  0.68338070993E+03  0.00000000000E+00 0. -1.
         21   -1    0    0  501  502  0.00000000000E+00 -0.00000000000E+00 -0.74135428740E+02  0.74135428740E+02  0.00000000000E+00 0.  1.
         24    2    1    2    0    0  0.29405839507E+02 -0.11503873718E+01  0.10753392300E+03  0.13623332228E+03  0.78293976244E+02 0.  0.
         23    2    1    2    0    0  0.13224741836E+02  0.16902617022E+03  0.24900071362E+03  0.31491324412E+03  0.91783745402E+02 0.  0.
        -13    1    3    3    0    0  0.22444363239E+02 -0.24427673025E+02  0.84753696764E+01  0.34238757889E+02  0.00000000000E+00 0.  1.
         14    1    3    3    0    0  0.69614762673E+01  0.23277285654E+02  0.99058553321E+02  0.10199456439E+03  0.00000000000E+00 0. -1.
        -11    1    4    4    0    0 -0.14873629856E+02  0.70224087419E+02  0.40343147462E+02  0.82342072272E+02  0.00000000000E+00 0. -1.
         11    1    4    4    0    0  0.28098371693E+02  0.98802082805E+02  0.20865756616E+03  0.23257117184E+03  0.00000000000E+00 0.  1.
          1    1    1    2  501    0 -0.42630581343E+02 -0.16787578285E+03  0.25271064457E+03  0.30636957227E+03  0.00000000000E+00 0. -1.
<scales pt_clust_5="13000.00000" pt_clust_6="13000.00000" pt_clust_7="13000.00000" pt_clust_8="13000.00000" pt_clust_9="170.75837"></scales>
<clustering>
<clus scale="   78.294">  5  6 -1 -1</clus>
<clus scale="   83.642">  1  5  2 -1</clus>
<clus scale="   91.784">  7  8 -1 -1</clus>
<clus scale="  170.758">  2  9  1 -1</clus>
<clus scale="  170.758">  2  5  1 -1</clus>
</clustering>
</event>
<event>
 9    2  0.1488992E-004  0.1453311E+03  0.7546771E-02  0.1225691E+00
         -1   -1    0    0    0  501 -0.00000000000E+00  0.00000000000E+00  0.13382701058E+03  0.13382701058E+03  0.00000000000E+00 0.  1.
         21   -1    0    0  501  502  0.00000000000E+00 -0.00000000000E+00 -0.32721800491E+03  0.32721800491E+03  0.00000000000E+00 0.  1.
         23    2    1    2    0    0 -0.31177242371E+02  0.13888870672E+02 -0.13692851297E+03  0.16752734153E+03  0.90283283750E+02 0.  0.
         24    2    1    2    0    0  0.10693105129E+03 -0.83562546925E+02 -0.96349029521E+02  0.18313652768E+03  0.76412716895E+02 0.  0.
        -13    1    4    4    0    0  0.10754998956E+03 -0.71048296547E+02 -0.55375533984E+02  0.14029009395E+03  0.00000000000E+00 0.  1.
         14    1    4    4    0    0 -0.61893826813E+00 -0.12514250378E+02 -0.40973495536E+02  0.42846433732E+02  0.00000000000E+00 0. -1.
        -13    1    3    3    0    0  0.28881797019E+02  0.21145218632E+02 -0.45414537897E+02  0.57825242952E+02  0.00000000000E+00 0. -1.
         13    1    3    3    0    0 -0.60059039390E+02 -0.72563479597E+01 -0.91513975078E+02  0.10970209858E+03  0.00000000000E+00 0.  1.
         -2    1    1    2    0  502 -0.75753808922E+02  0.69673676253E+02  0.39886548163E+02  0.11038114628E+03  0.00000000000E+00 0.  1.
<scales pt_clust_5="13000.00000" pt_clust_6="13000.00000" pt_clust_7="13000.00000" pt_clust_8="13000.00000" pt_clust_9="123.62136"></scales>
<clustering>
<clus scale="   76.413">  5  6 -1 -1</clus>
<clus scale="   90.283">  7  8 -1 -1</clus>
<clus scale="   96.519">  1  7  2 -1</clus>
<clus scale="  123.621">  2  9  1 -1</clus>
<clus scale="  123.621">  2  5  1 -1</clus>
</clustering>
</event>
<event>
 9    2  0.1488992E-004  0.1089408E+03  0.7546771E-02  0.1265888E+00
         21   -1    0    0  501  502  0.00000000000E+00  0.00000000000E+00  0.14689645975E+03  0.14689645975E+03  0.00000000000E+00 0.  1.
         -1   -1    0    0    0  501 -0.00000000000E+00 -0.00000000000E+00 -0.42838504815E+03  0.42838504815E+03  0.00000000000E+00 0.  1.
         23    2    1    2    0    0 -0.11898273712E+02 -0.53117511973E+02 -0.28835545357E+03  0.30747615419E+03  0.91813282237E+02 0.  0.
         24    2    1    2    0    0  0.31949208398E+02  0.62512344671E+02 -0.10639459482E+03  0.15239971614E+03  0.83530344897E+02 0.  0.
        -11    1    4    4    0    0  0.17036076725E+02  0.49455500740E+02 -0.11825072790E+03  0.12930316745E+03  0.00000000000E+00 0.  1.
         12    1    4    4    0    0  0.14913131672E+02  0.13056843931E+02  0.11856133081E+02  0.23096548689E+02  0.00000000000E+00 0. -1.
        -13    1    3    3    0    0 -0.30341796756E+02 -0.72245510861E+02 -0.18831632312E+03  0.20396832112E+03  0.00000000000E+00 0.  1.
         13    1    3    3    0    0  0.18443523043E+02  0.19127998888E+02 -0.10003913046E+03  0.10350783307E+03  0.00000000000E+00 0. -1.
         -2    1    1    2    0  502 -0.20050934685E+02 -0.93948326981E+01  0.11326146000E+03  0.11540563757E+03  0.00000000000E+00 0.  1.
<scales pt_clust_5="13000.00000" pt_clust_6="13000.00000" pt_clust_7="13000.00000" pt_clust_8="13000.00000" pt_clust_9="22.14278"></scales>
<clustering>
<clus scale="   22.143">  1  9  2 -1</clus>
<clus scale="   83.530">  5  6 -1 -1</clus>
<clus scale="   91.813">  7  8 -1 -1</clus>
<clus scale="  102.058">  1  5  2 -1</clus>
<clus scale="   22.143">  1  5  2 -1</clus>
</clustering>
</event>
<event>
 9    2  0.1488992E-004  0.1306172E+03  0.7546771E-02  0.1229751E+00
          4   -1    0    0  502    0 -0.00000000000E+00  0.00000000000E+00  0.41842162708E+03  0.41842162708E+03  0.00000000000E+00 0. -1.
         21   -1    0    0  501  502  0.00000000000E+00 -0.00000000000E+00 -0.14103549272E+03  0.14103549272E+03  0.00000000000E+00 0. -1.
         24    2    1    2    0    0 -0.77484518451E+02 -0.55245575835E+02  0.36004742901E+03  0.38078627906E+03  0.79423642147E+02 0.  0.
         23    2    1    2    0    0  0.59289982832E+02  0.31555171558E+02 -0.93125366036E+02  0.14702004026E+03  0.91823349544E+02 0.  0.
        -11    1    3    3    0    0 -0.28210594564E+02 -0.47502773392E+02  0.28741257926E+03  0.29267446394E+03  0.00000000000E+00 0.  1.
         12    1    3    3    0    0 -0.49273923887E+02 -0.77428024421E+01  0.72634849750E+02  0.88111815116E+02  0.00000000000E+00 0. -1.
        -13    1    4    4    0    0  0.37070891871E+02  0.62494290793E+02 -0.76346916268E+02  0.10539752857E+03  0.00000000000E+00 0.  1.
         13    1    4    4    0    0  0.22219090961E+02 -0.30939119235E+02 -0.16778449767E+02  0.41622511683E+02  0.00000000000E+00 0. -1.
          3    1    1    2  501    0  0.18194535619E+02  0.23690404277E+02  0.10464071383E+02  0.31650800481E+02  0.00000000000E+00 0. -1.
<scales pt_clust_5="13000.00000" pt_clust_6="13000.00000" pt_clust_7="13000.00000" pt_clust_8="13000.00000" pt_clust_9="29.87100"></scales>
<clustering>
<clus scale="   29.871">  2  9  1 -1</clus>
<clus scale="   79.424">  5  6 -1 -1</clus>
<clus scale="   91.823">  7  8 -1 -1</clus>
<clus scale="  122.219">  1  5  2 -1</clus>
<clus scale="   29.871">  2  5  1 -1</clus>
</clustering>
</event>
<event>
 9    2  0.1488992E-004  0.1049056E+03  0.7546771E-02  0.1274276E+00
         21   -1    0    0  501  502  0.00000000000E+00  0.00000000000E+00  0.41389801702E+02  0.41389801702E+02  0.00000000000E+00 0. -1.
          2   -1    0    0  502    0 -0.00000000000E+00 -0.00000000000E+00 -0.65125232595E+03  0.65125232595E+03  0.00000000000E+00 0. -1.
         24    2    1    2    0    0  0.18909680459E+02  0.66779112309E+02 -0.29363154070E+03  0.31232594358E+03  0.80690690189E+02 0.  0.
         23    2    1    2    0    0  0.60998547102E+02 -0.31948742741E+02 -0.23644743012E+03  0.26214725891E+03  0.89845719056E+02 0.  0.
        -13    1    3    3    0    0  0.47409992829E-01  0.42799500810E+02 -0.46036331275E+02  0.62858120514E+02  0.00000000000E+00 0.  1.
         14    1    3    3    0    0  0.18862270466E+02  0.23979611498E+02 -0.24759520942E+03  0.24946782306E+03  0.00000000000E+00 0. -1.
        -11    1    4    4    0    0  0.17057880383E+02  0.31123450408E+02 -0.60516259791E+02  0.70155955895E+02  0.00000000000E+00 0.  1.
         11    1    4    4    0    0  0.43940666719E+02 -0.63072193149E+02 -0.17593117033E+03  0.19199130302E+03  0.00000000000E+00 0. -1.
          1    1    1    2  501    0 -0.79908227561E+02 -0.34830369568E+02 -0.79783553422E+02  0.11816892516E+03  0.00000000000E+00 0. -1.
<scales pt_clust_5="13000.00000" pt_clust_6="13000.00000" pt_clust_7="13000.00000" pt_clust_8="13000.00000" pt_clust_9="87.16926"></scales>
<clustering>
<clus scale="   80.691">  5  6 -1 -1</clus>
<clus scale="   87.169">  1  9  2 -1</clus>
<clus scale="   89.846">  7  8 -1 -1</clus>
<clus scale="   97.180">  2  5  1 -1</clus>
<clus scale="   87.169">  1  5  2 -1</clus>
</clustering>
</event>
<event>
 9    2  0.1488992E-004  0.1436749E+03  0.7546771E-02  0.1210289E+00
         -1   -1    0    0    0  501 -0.00000000000E+00  0.00000000000E+00  0.24052291767E+03  0.24052291767E+03  0.00000000000E+00 0.  1.
         21   -1    0    0  501  502  0.00000000000E+00 -0.00000000000E+00 -0.10532724779E+03  0.10532724779E+03  0.00000000000E+00 0.  1.
         23    2    1    2    0    0 -0.65471162165E+02 -0.88789952805E+02  0.61793036499E+02  0.15510378474E+03  0.89825808572E+02 0.  0.
         24    2    1    2    0    0  0.50981577755E+02  0.10340751423E+03  0.31772908445E+02  0.14430657930E+03  0.80762837056E+02 0.  0.
        -11    1    4    4    0    0  0.46377582546E+02  0.94181448122E+02  0.55273772274E+02  0.11864322667E+03  0.00000000000E+00 0.  1.
         12    1    4    4    0    0  0.46039952086E+01  0.92260661093E+01 -0.23500863828E+02  0.25663352634E+02  0.00000000000E+00 0. -1.
        -11    1    3    3    0    0 -0.51582569172E+02 -0.10732674929E+03  0.50725774024E+02  0.12943298152E+03  0.00000000000E+00 0.  1.
         11    1    3    3    0    0 -0.13888592993E+02  0.18536796482E+02  0.11067262476E+02  0.25670803217E+02  0.00000000000E+00 0. -1.
         -2    1    1    2    0  502  0.14489584410E+02 -0.14617561427E+02  0.41629724930E+02  0.46439801423E+02  0.00000000000E+00 0.  1.
<scales pt_clust_5="13000.00000" pt_clust_6="13000.00000" pt_clust_7="13000.00000" pt_clust_8="13000.00000" pt_clust_9="20.58207"></scales>
<clustering>
<clus scale="   20.582">  2  9  1 -1</clus>
<clus scale="   80.763">  5  6 -1 -1</clus>
<clus scale="   89.826">  7  8 -1 -1</clus>
<clus scale="  138.190">  2  5  1 -1</clus>
<clus scale="   20.582">  2  5  1 -1</clus>
</clustering>
</event>
<event>
 9    2  0.1488992E-004  0.1153072E+03  0.7546771E-02  0.1254934E+00
         21   -1    0    0  501  502  0.00000000000E+00  0.00000000000E+00  0.29493041788E+03  0.29493041788E+03  0.00000000000E+00 0.  1.
          2   -1    0    0  502    0 -0.00000000000E+00 -0.00000000000E+00 -0.15028437974E+03  0.15028437974E+03  0.00000000000E+00 0. -1.
         23    2    1    2    0    0 -0.68217008584E+02  0.27471400794E+02 -0.10916866248E+03  0.16011298268E+03  0.91159926687E+02 0.  0.
         24    2    1    2    0    0  0.37893746584E+02 -0.22594208646E+02  0.22555199922E+03  0.24336373267E+03  0.80036040211E+02 0.  0.
        -11    1    4    4    0    0  0.39988787580E+02 -0.26197996397E+02  0.23134165460E+03  0.23622954790E+03  0.00000000000E+00 0.  1.
         12    1    4    4    0    0 -0.20950409958E+01  0.36037877506E+01 -0.57896553806E+01  0.71341847714E+01  0.00000000000E+00 0. -1.
        -13    1    3    3    0    0 -0.76655814184E+02 -0.95960452413E+01 -0.85954025330E+02  0.11556942677E+03  0.00000000000E+00 0.  1.
         13    1    3    3    0    0  0.84388056005E+01  0.37067446035E+02 -0.23214637149E+02  0.44543555915E+02  0.00000000000E+00 0. -1.
          1    1    1    2  501    0  0.30323262000E+02 -0.48771921478E+01  0.28262701398E+02  0.41738082273E+02  0.00000000000E+00 0. -1.
<scales pt_clust_5="13000.00000" pt_clust_6="13000.00000" pt_clust_7="13000.00000" pt_clust_8="13000.00000" pt_clust_9="30.71298"></scales>
<clustering>
<clus scale="   30.713">  1  9  2 -1</clus>
<clus scale="   80.036">  5  6 -1 -1</clus>
<clus scale="   91.160">  7  8 -1 -1</clus>
<clus scale="  106.730">  1  5  2 -1</clus>
<clus scale="   30.713">  1  5  2 -1</clus>
</clustering>
</event>
<event>
 9    2  0.1488992E-004  0.1617656E+03  0.7546771E-02  0.1212243E+00
         -1   -1    0    0    0  501 -0.00000000000E+00  0.00000000000E+00  0.12038299807E+03  0.12038299807E+03  0.00000000000E+00 0.  1.
         21   -1    0    0  501  502  0.00000000000E+00 -0.00000000000E+00 -0.35580282447E+03  0.35580282447E+03  0.00000000000E+00 0.  1.
         24    2    1    2    0    0 -0.25597997661E+00 -0.45860201102E+02 -0.43290074930E+02  0.10246452933E+03  0.80757201617E+02 0.  0.
         23    2    1    2    0    0 -0.73278280603E+02  0.14513014594E+03 -0.66842725025E+02  0.19777059437E+03  0.90624458279E+02 0.  0.
        -11    1    3    3    0    0  0.16293267902E+01 -0.49033007331E+02 -0.64442728157E+02  0.80992318932E+02  0.00000000000E+00 0.  1.
         12    1    3    3    0    0 -0.18853067668E+01  0.31728062290E+01  0.21152653227E+02  0.21472210401E+02  0.00000000000E+00 0. -1.
        -11    1    4    4    0    0 -0.34744346658E+02  0.13758135802E+03 -0.70285531634E+02  0.15835357797E+03  0.00000000000E+00 0.  1.
         11    1    4    4    0    0 -0.38533933945E+02  0.75487879248E+01  0.34428066093E+01  0.39417016398E+02  0.00000000000E+00 0. -1.
         -2    1    1    2    0  502  0.73534260579E+02 -0.99269944838E+02 -0.12528702644E+03  0.17595069884E+03  0.00000000000E+00 0.  1.
<scales pt_clust_5="13000.00000" pt_clust_6="13000.00000" pt_clust_7="13000.00000" pt_clust_8="13000.00000" pt_clust_9="133.99746"></scales>
<clustering>
<clus scale="   80.757">  5  6 -1 -1</clus>
<clus scale="   90.624">  7  8 -1 -1</clus>
<clus scale="   92.871">  1  5  2 -1</clus>
<clus scale="  133.997">  2  9  1 -1</clus>
<clus scale="  133.997">  2  5  1 -1</clus>
</clustering>
</event>
<event>
 9    2  0.1488992E-004  0.3495593E+03  0.7546771E-02  0.1116151E+00
         21   -1    0    0  501  502  0.00000000000E+00  0.00000000000E+00  0.35099568415E+03  0.35099568415E+03  0.00000000000E+00 0. -1.
          2   -1    0    0  502    0 -0.00000000000E+00 -0.00000000000E+00 -0.52333921557E+03  0.52333921557E+03  0.00000000000E+00 0. -1.
         24    2    1    2    0    0 -0.30298138132E+02 -0.79655976119E+00  0.16291595735E+02  0.86655532838E+02  0.79530834260E+02 0.  0.
         23    2    1    2    0    0 -0.31500351877E+03 -0.34861178921E+02 -0.27681105436E+03  0.42951780736E+03  0.86131692124E+02 0.  0.
        -11    1    3    3    0    0 -0.28628587397E+02 -0.29805137794E+02  0.33223232117E+02  0.53025705159E+02  0.00000000000E+00 0.  1.
         12    1    3    3    0    0 -0.16695507343E+01  0.29008578033E+02 -0.16931636382E+02  0.33629827679E+02  0.00000000000E+00 0. -1.
        -13    1    4    4    0    0 -0.14250315247E+03  0.27575699698E+01 -0.17504735755E+03  0.22573508819E+03  0.00000000000E+00 0.  1.
         13    1    4    4    0    0 -0.17250036630E+03 -0.37618748891E+02 -0.10176369681E+03  0.20378271917E+03  0.00000000000E+00 0. -1.
          1    1    1    2  501    0  0.34530165690E+03  0.35657738683E+02  0.88175927197E+02  0.35816155953E+03  0.00000000000E+00 0. -1.
<scales pt_clust_5="13000.00000" pt_clust_6="13000.00000" pt_clust_7="13000.00000" pt_clust_8="13000.00000" pt_clust_9="338.78167"></scales>
<clustering>
<clus scale="   79.531">  5  6 -1 -1</clus>
<clus scale="   85.110">  2  5  1 -1</clus>
<clus scale="   86.132">  7  8 -1 -1</clus>
<clus scale="  338.782">  1  9  2 -1</clus>
<clus scale="  338.782">  1  5  2 -1</clus>
</clustering>
</event>
<event>
 9    2  0.1488992E-004  0.1103308E+03  0.7546771E-02  0.1263698E+00
         -3   -1    0    0    0  501 -0.00000000000E+00  0.00000000000E+00  0.88173727202E+02  0.88173727202E+02  0.00000000000E+00 0.  1.
         21   -1    0    0  501  502  0.00000000000E+00 -0.00000000000E+00 -0.34556456838E+03  0.34556456838E+03  0.00000000000E+00 0.  1.
         23    2    1    2    0    0  0.13133087919E+02  0.79167114044E+02  0.26087538384E+01  0.12005287850E+03  0.89252328229E+02 0.  0.
         24    2    1    2    0    0 -0.48206462622E+02 -0.69015539782E+01 -0.16301589901E+03  0.18775571417E+03  0.79413666262E+02 0.  0.
        -13    1    4    4    0    0 -0.21262920970E+02 -0.16967118798E+02 -0.15572582118E+03  0.15808392173E+03  0.00000000000E+00 0.  1.
         14    1    4    4    0    0 -0.26943541651E+02  0.10065564820E+02 -0.72900778299E+01  0.29671792440E+02  0.00000000000E+00 0. -1.
        -11    1    3    3    0    0  0.36868306006E+02  0.75849731576E+02  0.24259808927E+02  0.87755296690E+02  0.00000000000E+00 0.  1.
         11    1    3    3    0    0 -0.23735218087E+02  0.33173824679E+01 -0.21651055088E+02  0.32297581806E+02  0.00000000000E+00 0. -1.
         -4    1    1    2    0  502  0.35073374703E+02 -0.72265560066E+02 -0.96983696007E+02  0.12592970291E+03  0.00000000000E+00 0.  1.
<scales pt_clust_5="13000.00000" pt_clust_6="13000.00000" pt_clust_7="13000.00000" pt_clust_8="13000.00000" pt_clust_9="80.32716"></scales>
<clustering>
<clus scale="   79.414">  5  6 -1 -1</clus>
<clus scale="   80.327">  2  9  1 -1</clus>
<clus scale="   89.252">  7  8 -1 -1</clus>
<clus scale="  102.535">  2  5  1 -1</clus>
<clus scale="   80.327">  2  5  1 -1</clus>
</clustering>
</event>
<event>
 9    2  0.1488992E-004  0.9449705E+02  0.7546771E-02  0.1299802E+00
         21   -1    0    0  501  502  0.00000000000E+00  0.00000000000E+00  0.24404691699E+02  0.24404691699E+02  0.00000000000E+00 0. -1.
          4   -1    0    0  502    0 -0.00000000000E+00 -0.00000000000E+00 -0.58632785519E+03  0.58632785519E+03  0.00000000000E+00 0. -1.
         23    2    1    2    0    0 -0.64362240811E+01 -0.31262691640E+02 -0.38589478569E+03  0.39809966491E+03  0.92465002601E+02 0.  0.
         24    2    1    2    0    0 -0.57047673590E+01 -0.56200861165E+01 -0.11357729014E+03  0.13909458368E+03  0.79896011373E+02 0.  0.
        -11    1    4    4    0    0  0.33835867599E+02  0.12389641331E+02 -0.41758478785E+02  0.55155595354E+02  0.00000000000E+00 0.  1.
         12    1    4    4    0    0 -0.39540634958E+02 -0.18009727448E+02 -0.71818811357E+02  0.83938988321E+02  0.00000000000E+00 0. -1.
        -13    1    3    3    0    0  0.34529794486E+02 -0.39109165698E+02 -0.15716715925E+03  0.16559996828E+03  0.00000000000E+00 0. -1.
         13    1    3    3    0    0 -0.40966018567E+02  0.78464740574E+01 -0.22872762644E+03  0.23249969662E+03  0.00000000000E+00 0.  1.
          3    1    1    2  501    0  0.12140991440E+02  0.36882777757E+02 -0.62451087656E+02  0.73538298305E+02  0.00000000000E+00 0. -1.
<scales pt_clust_5="13000.00000" pt_clust_6="13000.00000" pt_clust_7="13000.00000" pt_clust_8="13000.00000" pt_clust_9="38.82967"></scales>
<clustering>
<clus scale="   38.830">  1  9  2 -1</clus>
<clus scale="   79.896">  5  6 -1 -1</clus>
<clus scale="   82.239">  1  5  2 -1</clus>
<clus scale="   92.465">  7  8 -1 -1</clus>
<clus scale="   38.830">  1  5  2 -1</clus>
</clustering>
</event>
<event>
 9    2  0.1488992E-004  0.1530087E+03  0.7546771E-02  0.1198918E+00
         21   -1    0    0  501  502  0.00000000000E+00  0.00000000000E+00  0.47891343810E+03  0.47891343810E+03  0.00000000000E+00 0. -1.
         -3   -1    0    0    0  501 -0.00000000000E+00 -0.00000000000E+00 -0.76941310774E+02  0.76941310774E+02  0.00000000000E+00 0.  1.
         24    2    1    2    0    0 -0.81745111841E+02 -0.84060728013E+02  0.89805104542E+02  0.16754218293E+03  0.79100928917E+02 0.  0.
         23    2    1    2    0    0  0.13126107639E+03  0.56402930600E+02  0.26502972634E+03  0.31456496111E+03  0.91102130373E+02 0.  0.
        -11    1    3    3    0    0 -0.26281706184E+02 -0.34236246795E+02 -0.86740451293E+01  0.44023717851E+02  0.00000000000E+00 0.  1.
         12    1    3    3    0    0 -0.55463405657E+02 -0.49824481218E+02  0.98479149671E+02  0.12351846508E+03  0.00000000000E+00 0. -1.
        -11    1    4    4    0    0  0.12221522820E+03  0.76364436746E+02  0.20439127964E+03  0.25008775339E+03  0.00000000000E+00 0.  1.
         11    1    4    4    0    0  0.90458481931E+01 -0.19961506146E+02  0.60638446697E+02  0.64477207717E+02  0.00000000000E+00 0. -1.
         -4    1    1    2    0  502 -0.49515964548E+02  0.27657797412E+02  0.47137296448E+02  0.73747604838E+02  0.00000000000E+00 0.  1.
<scales pt_clust_5="13000.00000" pt_clust_6="13000.00000" pt_clust_7="13000.00000" pt_clust_8="13000.00000" pt_clust_9="56.71673"></scales>
<clustering>
<clus scale="   56.717">  1  9  2 -1</clus>
<clus scale="   79.101">  5  6 -1 -1</clus>
<clus scale="   91.102">  7  8 -1 -1</clus>
<clus scale="  146.181">  2  5  1 -1</clus>
<clus scale="   56.717">  1  5  2 -1</clus>
</clustering>
</event>
<event>
 9    2  0.1488992E-004  0.9643835E+02  0.7546771E-02  0.1296500E+00
         21   -1    0    0  501  502  0.00000000000E+00  0.00000000000E+00  0.18281341201E+03  0.18281341201E+03  0.00000000000E+00 0. -1.
          2   -1    0    0  502    0 -0.00000000000E+00 -0.00000000000E+00 -0.24998714361E+03  0.24998714361E+03  0.00000000000E+00 0. -1.
         24    2    1    2    0    0 -0.98987488688E+00  0.17399224968E+02 -0.19524193769E+03  0.21150294268E+03  0.79437822533E+02 0.  0.
         23    2    1    2    0    0  0.31669910254E+02 -0.57204248910E+02  0.42730679583E+02  0.12226126642E+03  0.94056350020E+02 0.  0.
        -13    1    3    3    0    0 -0.13503681823E+02  0.45356249525E+02 -0.14632783302E+03  0.15379003059E+03  0.00000000000E+00 0.  1.
         14    1    3    3    0    0  0.12513806936E+02 -0.27957024558E+02 -0.48914104672E+02  0.57712912091E+02  0.00000000000E+00 0. -1.
        -13    1    4    4    0    0  0.29040604529E+02 -0.82069777876E+02  0.43343730240E+02  0.97249596930E+02  0.00000000000E+00 0. -1.
         13    1    4    4    0    0  0.26293057255E+01  0.24865528966E+02 -0.61305065715E+00  0.25011669485E+02  0.00000000000E+00 0.  1.
          1    1    1    2  501    0 -0.30680035367E+02  0.39805023942E+02  0.85337526508E+02  0.99036346518E+02  0.00000000000E+00 0. -1.
<scales pt_clust_5="13000.00000" pt_clust_6="13000.00000" pt_clust_7="13000.00000" pt_clust_8="13000.00000" pt_clust_9="50.25639"></scales>
<clustering>
<clus scale="   50.256">  1  9  2 -1</clus>
<clus scale="   79.438">  5  6 -1 -1</clus>
<clus scale="   82.244">  2  5  1 -1</clus>
<clus scale="   94.056">  7  8 -1 -1</clus>
<clus scale="   50.256">  1  5  2 -1</clus>
</clustering>
</event>
<event>
 9    2  0.2005023E-004  0.2204627E+03  0.7546771E-02  0.1134279E+00
         21   -1    0    0  501  502  0.00000000000E+00  0.00000000000E+00  0.13424693229E+03  0.13424693229E+03  0.00000000000E+00 0.  1.
          2   -1    0    0  502    0 -0.00000000000E+00 -0.00000000000E+00 -0.14867576860E+04  0.14867576860E+04  0.00000000000E+00 0. -1.
         24    2    1    2    0    0  0.20253873229E+03 -0.11856023593E+02 -0.13675735030E+04  0.13849127902E+04  0.81016337638E+02 0.  0.
         23    2    1    2    0    0 -0.17517260371E+03 -0.12751564909E+02  0.20500561897E+02  0.19888956725E+03  0.91042536342E+02 0.  0.
        -11    1    3    3    0    0  0.30375273565E+02 -0.45499205293E+01 -0.77219192212E+02  0.83103325246E+02  0.00000000000E+00 0.  1.
         12    1    3    3    0    0  0.17216345872E+03 -0.73061030635E+01 -0.12903543108E+04  0.13018094650E+04  0.00000000000E+00 0. -1.
        -11    1    4    4    0    0 -0.40786335312E+02  0.11640452806E+02 -0.31406319774E+02  0.52776720355E+02  0.00000000000E+00 0. -1.
         11    1    4    4    0    0 -0.13438626840E+03 -0.24392017715E+02  0.51906881671E+02  0.14611284689E+03  0.00000000000E+00 0.  1.
          1    1    1    2  501    0 -0.27366128580E+02  0.24607588502E+02 -0.54378125985E+01  0.37202260834E+02  0.00000000000E+00 0. -1.
<scales pt_clust_5="13000.00000" pt_clust_6="13000.00000" pt_clust_7="13000.00000" pt_clust_8="13000.00000" pt_clust_9="36.80270"></scales>
<clustering>
<clus scale="   36.803">  1  9  2 -1</clus>
<clus scale="   81.016">  5  6 -1 -1</clus>
<clus scale="   91.043">  7  8 -1 -1</clus>
<clus scale="  216.515">  2  5  1 -1</clus>
<clus scale="   36.803">  1  5  2 -1</clus>
</clustering>
</event>
<event>
 9    2  0.1488992E-004  0.1643736E+03  0.7546771E-02  0.1185099E+00
         -1   -1    0    0    0  501 -0.00000000000E+00  0.00000000000E+00  0.31109211829E+03  0.31109211829E+03  0.00000000000E+00 0.  1.
         21   -1    0    0  501  502  0.00000000000E+00 -0.00000000000E+00 -0.54828940411E+03  0.54828940411E+03  0.00000000000E+00 0.  1.
         23    2    1    2    0    0 -0.11648019776E+03 -0.91356741248E+02  0.24721781305E+03  0.30179355767E+03  0.89716295735E+02 0.  0.
         24    2    1    2    0    0  0.50663308662E+02  0.84031600670E+02 -0.85832943360E+02  0.15354185936E+03  0.81115520433E+02 0.  0.
        -13    1    4    4    0    0 -0.29276444257E+01  0.63465508225E+02 -0.68841524235E+02  0.93678158048E+02  0.00000000000E+00 0.  1.
         14    1    4    4    0    0  0.53590953088E+02  0.20566092444E+02 -0.16991419125E+02  0.59863701315E+02  0.00000000000E+00 0. -1.
        -13    1    3    3    0    0 -0.29643795506E+02  0.16330493564E+02  0.37025005141E+02  0.50162641854E+02  0.00000000000E+00 0. -1.
         13    1    3    3    0    0 -0.86836402250E+02 -0.10768723481E+03  0.21019280791E+03  0.25163091581E+03  0.00000000000E+00 0.  1.
         -2    1    1    2    0  502  0.65816889094E+02  0.73251405782E+01 -0.39858215551E+03  0.40404610537E+03  0.00000000000E+00 0.  1.
<scales pt_clust_5="13000.00000" pt_clust_6="13000.00000" pt_clust_7="13000.00000" pt_clust_8="13000.00000" pt_clust_9="66.22326"></scales>
<clustering>
<clus scale="   66.223">  2  9  1 -1</clus>
<clus scale="   81.116">  5  6 -1 -1</clus>
<clus scale="   89.716">  7  8 -1 -1</clus>
<clus scale="  159.842">  2  5  1 -1</clus>
<clus scale="   66.223">  2  5  1 -1</clus>
</clustering>
</event>
<event>
 9    2  0.1488992E-004  0.1994752E+03  0.7546771E-02  0.1151030E+00
          2   -1    0    0  502    0 -0.00000000000E+00  0.00000000000E+00  0.11097983074E+04  0.11097983074E+04  0.00000000000E+00 0. -1.
         21   -1    0    0  501  502  0.00000000000E+00 -0.00000000000E+00 -0.11489285256E+03  0.11489285256E+03  0.00000000000E+00 0.  1.
         23    2    1    2    0    0 -0.17404927772E+03  0.43568190998E+02  0.92341484966E+03  0.94491560103E+03  0.89326200843E+02 0.  0.
         24    2    1    2    0    0  0.14942650532E+03 -0.10366436391E+03  0.80113400453E+02  0.21426080095E+03  0.80093402074E+02 0.  0.
        -11    1    4    4    0    0  0.10069333708E+03 -0.10878778405E+03  0.71224751991E+02  0.16445940346E+03  0.00000000000E+00 0.  1.
         12    1    4    4    0    0  0.48733168239E+02  0.51234201408E+01  0.88886484624E+01  0.49801397491E+02  0.00000000000E+00 0. -1.
        -11    1    3    3    0    0 -0.10087827708E+03  0.69820679925E+02  0.56812042306E+03  0.58121611233E+03  0.00000000000E+00 0. -1.
         11    1    3    3    0    0 -0.73171000647E+02 -0.26252488927E+02  0.35529442660E+03  0.36369948870E+03  0.00000000000E+00 0.  1.
          1    1    1    2  501    0  0.24622772402E+02  0.60096172908E+02 -0.86227952397E+01  0.65514758007E+02  0.00000000000E+00 0. -1.
<scales pt_clust_5="13000.00000" pt_clust_6="13000.00000" pt_clust_7="13000.00000" pt_clust_8="13000.00000" pt_clust_9="64.94483"></scales>
<clustering>
<clus scale="   64.945">  2  9  1 -1</clus>
<clus scale="   80.093">  5  6 -1 -1</clus>
<clus scale="   89.326">  7  8 -1 -1</clus>
<clus scale="  195.515">  2  5  1 -1</clus>
<clus scale="   64.945">  2  5  1 -1</clus>
</clustering>
</event>
<event>
 9    2  0.1488992E-004  0.9700049E+02  0.7546771E-02  0.1292141E+00
          2   -1    0    0  502    0 -0.00000000000E+00  0.00000000000E+00  0.11510896958E+03  0.11510896958E+03  0.00000000000E+00 0. -1.
         21   -1    0    0  501  502  0.00000000000E+00 -0.00000000000E+00 -0.10337515418E+03  0.10337515418E+03  0.00000000000E+00 0.  1.
         23    2    1    2    0    0 -0.27071297880E+02  0.92714999975E+01  0.37880390003E+02  0.10262459722E+03  0.90983889380E+02 0.  0.
         24    2    1    2    0    0  0.44434176635E+02  0.12224629554E+01 -0.24306009029E+02  0.95488456392E+02  0.80940550779E+02 0.  0.
        -11    1    4    4    0    0  0.27785425555E+02  0.23455660455E+02 -0.47137926949E+02  0.59533033164E+02  0.00000000000E+00 0.  1.
         12    1    4    4    0    0  0.16648751080E+02 -0.22233197500E+02  0.22831917920E+02  0.35955423228E+02  0.00000000000E+00 0. -1.
        -13    1    3    3    0    0  0.13414880779E+02 -0.33055506426E+02  0.67970989072E+01  0.36315645181E+02  0.00000000000E+00 0.  1.
         13    1    3    3    0    0 -0.40486178659E+02  0.42327006423E+02  0.31083291096E+02  0.66308952039E+02  0.00000000000E+00 0. -1.
          1    1    1    2  501    0 -0.17362878755E+02 -0.10493962953E+02 -0.18405655714E+01  0.20371070142E+02  0.00000000000E+00 0. -1.
<scales pt_clust_5="13000.00000" pt_clust_6="13000.00000" pt_clust_7="13000.00000" pt_clust_8="13000.00000" pt_clust_9="20.28775"></scales>
<clustering>
<clus scale="   20.288">  2  9  1 -1</clus>
<clus scale="   80.941">  5  6 -1 -1</clus>
<clus scale="   87.649">  2  5  1 -1</clus>
<clus scale="   90.984">  7  8 -1 -1</clus>
<clus scale="   20.288">  2  5  1 -1</clus>
</clustering>
</event>
<event>
 9    2  0.1488992E-004  0.9174369E+02  0.7546771E-02  0.1305315E+00
         -3   -1    0    0    0  501 -0.00000000000E+00  0.00000000000E+00  0.83205885888E+02  0.83205885888E+02  0.00000000000E+00 0.  1.
         21   -1    0    0  501  502  0.00000000000E+00 -0.00000000000E+00 -0.40106878285E+03  0.40106878285E+03  0.00000000000E+00 0. -1.
         24    2    1    2    0    0  0.65257598581E+01  0.10593923395E+02  0.12552379755E+02  0.82969620769E+02  0.81065276034E+02 0.  0.
         23    2    1    2    0    0  0.21513941259E+02  0.60249095504E+02 -0.29844985977E+03  0.31868092289E+03  0.91610090243E+02 0.  0.
        -13    1    3    3    0    0  0.98250639415E+01 -0.32812846146E+02  0.18669740883E+02  0.39009921537E+02  0.00000000000E+00 0.  1.
         14    1    3    3    0    0 -0.32993040834E+01  0.43406769541E+02 -0.61173611282E+01  0.43959699233E+02  0.00000000000E+00 0. -1.
        -13    1    4    4    0    0  0.36221680936E+02  0.77165280741E+01 -0.22019681270E+03  0.22328947870E+03  0.00000000000E+00 0. -1.
         13    1    4    4    0    0 -0.14707739677E+02  0.52532567430E+02 -0.78253047076E+02  0.95391444186E+02  0.00000000000E+00 0.  1.
         -4    1    1    2    0  502 -0.28039701117E+02 -0.70843018900E+02 -0.31965416945E+02  0.82624125085E+02  0.00000000000E+00 0.  1.
<scales pt_clust_5="13000.00000" pt_clust_6="13000.00000" pt_clust_7="13000.00000" pt_clust_8="13000.00000" pt_clust_9="76.19031"></scales>
<clustering>
<clus scale="   76.190">  2  9  1 -1</clus>
<clus scale="   81.065">  5  6 -1 -1</clus>
<clus scale="   81.216">  1  5  2 -1</clus>
<clus scale="   91.610">  7  8 -1 -1</clus>
<clus scale="   76.190">  2  5  1 -1</clus>
</clustering>
</event>
<event>
 9    2  0.1488992E-004  0.1222341E+03  0.7546771E-02  0.1239457E+00
         21   -1    0    0  501  502  0.00000000000E+00  0.00000000000E+00  0.15081207746E+03  0.15081207746E+03  0.00000000000E+00 0. -1.
          2   -1    0    0  502    0 -0.00000000000E+00 -0.00000000000E+00 -0.35263328614E+03  0.35263328614E+03  0.00000000000E+00 0. -1.
         24    2    1    2    0    0  0.59719302057E+02  0.55568988314E+02 -0.28914127745E+03  0.31414451429E+03  0.91813888019E+02 0.  0.
         23    2    1    2    0    0 -0.73029848801E+02 -0.26102092857E+02  0.98184891488E+02  0.15519054360E+03  0.91810423372E+02 0.  0.
        -11    1    3    3    0    0 -0.77459679969E+01  0.31123003887E+02 -0.18447454812E+03  0.18724182304E+03  0.00000000000E+00 0.  1.
         12    1    3    3    0    0  0.67465270054E+02  0.24445984426E+02 -0.10466672933E+03  0.12690269125E+03  0.00000000000E+00 0. -1.
        -13    1    4    4    0    0  0.17191215284E+02  0.13114176459E+02  0.14479064275E+02  0.26022352111E+02  0.00000000000E+00 0.  1.
         13    1    4    4    0    0 -0.90221064085E+02 -0.39216269317E+02  0.83705827213E+02  0.12916819149E+03  0.00000000000E+00 0. -1.
          1    1    1    2  501    0  0.13310546744E+02 -0.29466895456E+02 -0.10864822715E+02  0.34110305702E+02  0.00000000000E+00 0. -1.
<scales pt_clust_5="13000.00000" pt_clust_6="13000.00000" pt_clust_7="13000.00000" pt_clust_8="13000.00000" pt_clust_9="32.33371"></scales>
<clustering>
<clus scale="   32.334">  1  9  2 -1</clus>
<clus scale="   91.810">  7  8 -1 -1</clus>
<clus scale="   91.814">  5  6 -1 -1</clus>
<clus scale="  122.232">  1  7  2 -1</clus>
<clus scale="   32.334">  1  5  2 -1</clus>
</clustering>
</event>
<event>
 9    2  0.1488992E-004  0.1159885E+03  0.7546771E-02  0.1253574E+00
          2   -1    0    0  502    0 -0.00000000000E+00  0.00000000000E+00  0.34421407630E+03  0.34421407630E+03  0.00000000000E+00 0. -1.
         21   -1    0    0  501  502  0.00000000000E+00 -0.00000000000E+00 -0.68008925947E+02  0.68008925947E+02  0.00000000000E+00 0. -1.
         23    2    1    2    0    0 -0.49379692603E+02  0.22393134959E+01  0.99788611816E+02  0.14435430950E+03  0.91853312722E+02 0.  0.
         24    2    1    2    0    0  0.79449715558E+02 -0.57766810736E+02  0.15615604715E+03  0.20155129878E+03  0.81172367545E+02 0.  0.
        -11    1    4    4    0    0  0.46331475011E+02 -0.68001368651E+02  0.14198017794E+03  0.16410107448E+03  0.00000000000E+00 0.  1.
         12    1    4    4    0    0  0.33118240546E+02  0.10234557915E+02  0.14175869208E+02  0.37450224304E+02  0.00000000000E+00 0. -1.
        -11    1    3    3    0    0  0.11921409783E+02  0.29759126022E+02  0.13000458690E+02  0.34593894244E+02  0.00000000000E+00 0.  1.
         11    1    3    3    0    0 -0.61301102386E+02 -0.27519812526E+02  0.86788153127E+02  0.10976041526E+03  0.00000000000E+00 0. -1.
          1    1    1    2  501    0 -0.30070022955E+02  0.55527497240E+02  0.20260491380E+02  0.66317393957E+02  0.00000000000E+00 0. -1.
<scales pt_clust_5="13000.00000" pt_clust_6="13000.00000" pt_clust_7="13000.00000" pt_clust_8="13000.00000" pt_clust_9="63.14673"></scales>
<clustering>
<clus scale="   63.147">  2  9  1 -1</clus>
<clus scale="   81.172">  5  6 -1 -1</clus>
<clus scale="   91.853">  7  8 -1 -1</clus>
<clus scale="  107.728">  2  5  1 -1</clus>
<clus scale="   63.147">  2  5  1 -1</clus>
</clustering>
</event>
<event>
 9    2  0.1488992E-004  0.2527196E+03  0.7546771E-02  0.1111598E+00
          2   -1    0    0  502    0 -0.00000000000E+00  0.00000000000E+00  0.15863308514E+04  0.15863308514E+04  0.00000000000E+00 0. -1.
         21   -1    0    0  501  502  0.00000000000E+00 -0.00000000000E+00 -0.30623414950E+02  0.30623414950E+02  0.00000000000E+00 0.  1.
         24    2    1    2    0    0 -0.11023403978E+03 -0.16143589849E+02  0.34856282903E+03  0.37449721474E+03  0.79623859814E+02 0.  0.
         23    2    1    2    0    0 -0.66493982001E+02 -0.15073250612E+02  0.39905755035E+03  0.41468173389E+03  0.89807346054E+02 0.  0.
        -11    1    3    3    0    0 -0.10258021604E+03 -0.35047209811E+02  0.23090017167E+03  0.25508017742E+03  0.00000000000E+00 0.  1.
         12    1    3    3    0    0 -0.76538237426E+01  0.18903619962E+02  0.11766265736E+03  0.11941703732E+03  0.00000000000E+00 0. -1.
        -11    1    4    4    0    0 -0.48591801567E+02 -0.37824586879E+02  0.36420398248E+03  0.36937298684E+03  0.00000000000E+00 0.  1.
         11    1    4    4    0    0 -0.17902180434E+02  0.22751336267E+02  0.34853567872E+02  0.45308747054E+02  0.00000000000E+00 0. -1.
          1    1    1    2  501    0  0.17672802178E+03  0.31216840461E+02  0.80808705709E+03  0.82777531773E+03  0.00000000000E+00 0. -1.
<scales pt_clust_5="13000.00000" pt_clust_6="13000.00000" pt_clust_7="13000.00000" pt_clust_8="13000.00000" pt_clust_9="179.46397"></scales>
<clustering>
<clus scale="   79.624">  5  6 -1 -1</clus>
<clus scale="   89.807">  7  8 -1 -1</clus>
<clus scale="   93.706">  5  7 -1 -1</clus>
<clus scale="  179.464">  2  9  1 -1</clus>
<clus scale="  179.464">  2  5  1 -1</clus>
</clustering>
</event>
<event>
 9    2  0.1488992E-004  0.1496404E+03  0.7546771E-02  0.1202755E+00
         -1   -1    0    0    0  501 -0.00000000000E+00  0.00000000000E+00  0.37998932563E+03  0.37998932563E+03  0.00000000000E+00 0.  1.
         21   -1    0    0  501  502  0.00000000000E+00 -0.00000000000E+00 -0.14014133864E+03  0.14014133864E+03  0.00000000000E+00 0.  1.
         23    2    1    2    0    0 -0.12341484766E+03  0.27536592397E+02  0.28857112779E+03  0.32836007353E+03  0.92507045970E+02 0.  0.
         24    2    1    2    0    0  0.72967347439E+02 -0.57842939990E+02 -0.19520368844E+02  0.12607259326E+03  0.82723723759E+02 0.  0.
        -11    1    4    4    0    0  0.26483545617E+02 -0.71381735227E+02 -0.12128919151E+02  0.77096309848E+02  0.00000000000E+00 0.  1.
         12    1    4    4    0    0  0.46483801822E+02  0.13538795237E+02 -0.73914496935E+01  0.48976283412E+02  0.00000000000E+00 0. -1.
        -13    1    3    3    0    0 -0.34356157951E+02  0.17650061548E+00  0.18861005333E+03  0.19171366399E+03  0.00000000000E+00 0.  1.
         13    1    3    3    0    0 -0.89058689712E+02  0.27360091781E+02  0.99961074454E+02  0.13664640954E+03  0.00000000000E+00 0. -1.
         -2    1    1    2    0  502  0.50447500223E+02  0.30306347593E+02 -0.29202771947E+02  0.65697997478E+02  0.00000000000E+00 0.  1.
<scales pt_clust_5="13000.00000" pt_clust_6="13000.00000" pt_clust_7="13000.00000" pt_clust_8="13000.00000" pt_clust_9="58.85087"></scales>
<clustering>
<clus scale="   58.851">  2  9  1 -1</clus>
<clus scale="   82.724">  5  6 -1 -1</clus>
<clus scale="   92.507">  7  8 -1 -1</clus>
<clus scale="  143.798">  2  5  1 -1</clus>
<clus scale="   58.851">  2  5  1 -1</clus>
</clustering>
</event>
<event>
 9    2  0.1488992E-004  0.1818777E+03  0.7546771E-02  0.1167208E+00
         -1   -1    0    0    0  501 -0.00000000000E+00  0.00000000000E+00  0.13460790936E+04  0.13460790936E+04  0.00000000000E+00 0.  1.
         21   -1    0    0  501  502  0.00000000000E+00 -0.00000000000E+00 -0.48490271424E+02  0.48490271424E+02  0.00000000000E+00 0. -1.
         24    2    1    2    0    0  0.11997792406E+03 -0.22066482849E+02  0.28915720330E+03  0.32398447309E+03  0.80451343404E+02 0.  0.
         23    2    1    2    0    0 -0.21138776075E+03 -0.38551774762E+02  0.51926594401E+03  0.56927322354E+03  0.90905762742E+02 0.  0.
        -11    1    3    3    0    0  0.93741547449E+02 -0.48823503795E+02  0.18200651445E+03  0.21046991125E+03  0.00000000000E+00 0.  1.
         12    1    3    3    0    0  0.26236376610E+02  0.26757020946E+02  0.10715068885E+03  0.11351456184E+03  0.00000000000E+00 0. -1.
        -13    1    4    4    0    0 -0.43456514209E+02 -0.21201617600E+02  0.45768690902E+02  0.66578902686E+02  0.00000000000E+00 0.  1.
         13    1    4    4    0    0 -0.16793124654E+03 -0.17350157162E+02  0.47349725311E+03  0.50269432086E+03  0.00000000000E+00 0. -1.
         -2    1    1    2    0  502  0.91409836694E+02  0.60618257611E+02  0.48916567486E+03  0.50131166839E+03  0.00000000000E+00 0.  1.
<scales pt_clust_5="13000.00000" pt_clust_6="13000.00000" pt_clust_7="13000.00000" pt_clust_8="13000.00000" pt_clust_9="109.68292"></scales>
<clustering>
<clus scale="   80.451">  5  6 -1 -1</clus>
<clus scale="   90.906">  7  8 -1 -1</clus>
<clus scale="  109.683">  2  9  1 -1</clus>
<clus scale="  176.884">  1  5  2 -1</clus>
<clus scale="  109.683">  2  5  1 -1</clus>
</clustering>
</event>
<event>
 9    2  0.1488992E-004  0.1699984E+03  0.7546771E-02  0.1199179E+00
         21   -1    0    0  501  502  0.00000000000E+00  0.00000000000E+00  0.32789797993E+03  0.32789797993E+03  0.00000000000E+00 0.  1.
         -3   -1    0    0    0  501 -0.00000000000E+00 -0.00000000000E+00 -0.35155969487E+03  0.35155969487E+03  0.00000000000E+00 0.  1.
         23    2    1    2    0    0 -0.48449551890E+01  0.60137366941E+02 -0.24295795734E+03  0.26506774257E+03  0.87134164516E+02 0.  0.
         24    2    1    2    0    0 -0.10742004027E+02  0.10356765781E+03 -0.80337762839E+01  0.13381690105E+03  0.83670610432E+02 0.  0.
        -11    1    4    4    0    0  0.33702329930E+00  0.10985151650E+03  0.11547797129E+02  0.11045732606E+03  0.00000000000E+00 0.  1.
         12    1    4    4    0    0 -0.11079027326E+02 -0.62838586855E+01 -0.19581573413E+02  0.23359574992E+02  0.00000000000E+00 0. -1.
        -13    1    3    3    0    0  0.20877676950E+02  0.32063718750E+02 -0.29696537516E+02  0.48433911625E+02  0.00000000000E+00 0. -1.
         13    1    3    3    0    0 -0.25722632139E+02  0.28073648192E+02 -0.21326141982E+03  0.21663383095E+03  0.00000000000E+00 0.  1.
         -4    1    1    2    0  502  0.15586959216E+02 -0.16370502475E+03  0.22733001868E+03  0.28057303117E+03  0.00000000000E+00 0.  1.
<scales pt_clust_5="13000.00000" pt_clust_6="13000.00000" pt_clust_7="13000.00000" pt_clust_8="13000.00000" pt_clust_9="147.98207"></scales>
<clustering>
<clus scale="   83.671">  5  6 -1 -1</clus>
<clus scale="   87.134">  7  8 -1 -1</clus>
<clus scale="  105.983">  2  7  1 -1</clus>
<clus scale="  147.982">  1  9  2 -1</clus>
<clus scale="  147.982">  1  5  2 -1</clus>
</clustering>
</event>
<event>
 9    2  0.1488992E-004  0.1797974E+03  0.7546771E-02  0.1168362E+00
          2   -1    0    0  502    0 -0.00000000000E+00  0.00000000000E+00  0.82260595205E+02  0.82260595205E+02  0.00000000000E+00 0. -1.
         21   -1    0    0  501  502  0.00000000000E+00 -0.00000000000E+00 -0.53562582778E+03  0.53562582778E+03  0.00000000000E+00 0.  1.
         23    2    1    2    0    0 -0.10891493323E+03 -0.95512758651E+02 -0.10906001540E+03  0.20279808770E+03  0.90817551560E+02 0.  0.
         24    2    1    2    0    0  0.14019747923E+03  0.10533595500E+03 -0.26855269112E+03  0.33254417695E+03  0.87829864611E+02 0.  0.
        -11    1    4    4    0    0  0.12093137705E+03  0.39240773691E+02 -0.16814656139E+03  0.21080204548E+03  0.00000000000E+00 0.  1.
         12    1    4    4    0    0  0.19266102183E+02  0.66095181313E+02 -0.10040612973E+03  0.12174213147E+03  0.00000000000E+00 0. -1.
        -11    1    3    3    0    0 -0.80527362593E+02 -0.16312359078E+02 -0.77477499990E+02  0.11293144907E+03  0.00000000000E+00 0.  1.
         11    1    3    3    0    0 -0.28387570637E+02 -0.79200399573E+02 -0.31582515411E+02  0.89866638631E+02  0.00000000000E+00 0. -1.
          1    1    1    2  501    0 -0.31282545999E+02 -0.98231963535E+01 -0.75752526062E+02  0.82544158337E+02  0.00000000000E+00 0. -1.
<scales pt_clust_5="13000.00000" pt_clust_6="13000.00000" pt_clust_7="13000.00000" pt_clust_8="13000.00000" pt_clust_9="32.78861"></scales>
<clustering>
<clus scale="   32.789">  2  9  1 -1</clus>
<clus scale="   87.830">  5  6 -1 -1</clus>
<clus scale="   90.818">  7  8 -1 -1</clus>
<clus scale="  178.307">  2  5  1 -1</clus>
<clus scale="   32.789">  2  5  1 -1</clus>
</clustering>
</event>
<event>
 9    2  0.1488992E-004  0.1489370E+03  0.7546771E-02  0.1203856E+00
         -1   -1    0    0    0  501 -0.00000000000E+00  0.00000000000E+00  0.20836416596E+03  0.20836416596E+03  0.00000000000E+00 0.  1.
         21   -1    0    0  501  502  0.00000000000E+00 -0.00000000000E+00 -0.13187571120E+03  0.13187571120E+03  0.00000000000E+00 0. -1.
         23    2    1    2    0    0  0.12795974986E+03 -0.15960646273E+01  0.94489151691E+02  0.18334140240E+03  0.91157144757E+02 0.  0.
         24    2    1    2    0    0 -0.10132574566E+03 -0.14206107460E+00 -0.13714413901E+02  0.12986583740E+03  0.80063247875E+02 0.  0.
        -13    1    4    4    0    0 -0.71749731738E+02 -0.15126743857E+02  0.26299409115E+02  0.77900586031E+02  0.00000000000E+00 0.  1.
         14    1    4    4    0    0 -0.29576013925E+02  0.14984682782E+02 -0.40013823017E+02  0.51965251373E+02  0.00000000000E+00 0. -1.
        -13    1    3    3    0    0  0.10246481674E+03 -0.28353257231E+02  0.10002269586E+03  0.14597083802E+03  0.00000000000E+00 0.  1.
         13    1    3    3    0    0  0.25494933113E+02  0.26757192603E+02 -0.55335441723E+01  0.37370564373E+02  0.00000000000E+00 0. -1.
         -2    1    1    2    0  502 -0.26634004193E+02  0.17381257019E+01 -0.42862830368E+01  0.27032637359E+02  0.00000000000E+00 0.  1.
<scales pt_clust_5="13000.00000" pt_clust_6="13000.00000" pt_clust_7="13000.00000" pt_clust_8="13000.00000" pt_clust_9="26.69066"></scales>
<clustering>
<clus scale="   26.691">  2  9  1 -1</clus>
<clus scale="   80.063">  5  6 -1 -1</clus>
<clus scale="   91.157">  7  8 -1 -1</clus>
<clus scale="  142.417">  2  5  1 -1</clus>
<clus scale="   26.691">  2  5  1 -1</clus>
</clustering>
</event>
<event>
 9    2  0.1488992E-004  0.9308089E+02  0.7546771E-02  0.1301268E+00
          2   -1    0    0  502    0 -0.00000000000E+00  0.00000000000E+00  0.17482342863E+03  0.17482342863E+03  0.00000000000E+00 0. -1.
         21   -1    0    0  501  502  0.00000000000E+00 -0.00000000000E+00 -0.10831342303E+03  0.10831342303E+03  0.00000000000E+00 0.  1.
         24    2    1    2    0    0 -0.35078701181E+01 -0.19635474507E+02  0.11874069261E+03  0.14560103255E+03  0.81868501787E+02 0.  0.
         23    2    1    2    0    0  0.23687386021E+02 -0.22435557865E+01 -0.51933950804E+02  0.10777018656E+03  0.91384638017E+02 0.  0.
        -11    1    3    3    0    0 -0.22996976097E+02 -0.38608315604E+02  0.33289291574E+02  0.55925306230E+02  0.00000000000E+00 0.  1.
         12    1    3    3    0    0  0.19489105979E+02  0.18972841097E+02  0.85451401040E+02  0.89675726319E+02  0.00000000000E+00 0. -1.
        -13    1    4    4    0    0  0.80249287499E+01 -0.23838453945E+02  0.19300400736E+02  0.31704523913E+02  0.00000000000E+00 0.  1.
         13    1    4    4    0    0  0.15662457271E+02  0.21594898159E+02 -0.71234351541E+02  0.76065662646E+02  0.00000000000E+00 0. -1.
          1    1    1    2  501    0 -0.20179515903E+02  0.21879030294E+02 -0.29673620459E+00  0.29765632549E+02  0.00000000000E+00 0. -1.
<scales pt_clust_5="13000.00000" pt_clust_6="13000.00000" pt_clust_7="13000.00000" pt_clust_8="13000.00000" pt_clust_9="29.76415"></scales>
<clustering>
<clus scale="   29.764">  2  9  1 -1</clus>
<clus scale="   81.869">  5  6 -1 -1</clus>
<clus scale="   83.758">  1  5  2 -1</clus>
<clus scale="   91.385">  7  8 -1 -1</clus>
<clus scale="   29.764">  2  5  1 -1</clus>
</clustering>
</event>
<event>
 9    2  0.1488992E-004  0.1426395E+03  0.7546771E-02  0.1231700E+00
         -1   -1    0    0    0  501 -0.00000000000E+00  0.00000000000E+00  0.41614631645E+03  0.41614631645E+03  0.00000000000E+00 0.  1.
         21   -1    0    0  501  502  0.00000000000E+00 -0.00000000000E+00 -0.13843996179E+03  0.13843996179E+03  0.00000000000E+00 0.  1.
         23    2    1    2    0    0 -0.30923004284E+02 -0.16891462036E+02 -0.56549060150E+02  0.10641825487E+03  0.82978883355E+02 0.  0.
         24    2    1    2    0    0  0.12510707287E+03  0.36159384869E+02  0.69783773495E+02  0.16676592549E+03  0.77342214003E+02 0.  0.
        -11    1    4    4    0    0  0.12206278435E+03  0.11883430283E+02  0.71977608529E+02  0.14220167147E+03  0.00000000000E+00 0.  1.
         12    1    4    4    0    0  0.30442885162E+01  0.24275954586E+02 -0.21938350342E+01  0.24564254025E+02  0.00000000000E+00 0. -1.
        -13    1    3    3    0    0  0.13838051341E+02 -0.20430414596E+02 -0.56351199833E+02  0.61517080784E+02  0.00000000000E+00 0.  1.
         13    1    3    3    0    0 -0.44761055625E+02  0.35389525604E+01 -0.19786031616E+00  0.44901174090E+02  0.00000000000E+00 0. -1.
         -2    1    1    2    0  502 -0.94184068582E+02 -0.19267922834E+02  0.26447164131E+03  0.28140209787E+03  0.00000000000E+00 0.  1.
<scales pt_clust_5="13000.00000" pt_clust_6="13000.00000" pt_clust_7="13000.00000" pt_clust_8="13000.00000" pt_clust_9="119.85084"></scales>
<clustering>
<clus scale="   77.342">  5  6 -1 -1</clus>
<clus scale="   82.979">  7  8 -1 -1</clus>
<clus scale="   90.150">  1  7  2 -1</clus>
<clus scale="  119.851">  2  9  1 -1</clus>
<clus scale="  119.851">  2  5  1 -1</clus>
</clustering>
</event>
<event>
 9    2  0.1488992E-004  0.1624691E+03  0.7546771E-02  0.1187486E+00
          2   -1    0    0  502    0 -0.00000000000E+00  0.00000000000E+00  0.70067386620E+03  0.70067386620E+03  0.00000000000E+00 0. -1.
         21   -1    0    0  501  502  0.00000000000E+00 -0.00000000000E+00 -0.11423126114E+03  0.11423126114E+03  0.00000000000E+00 0.  1.
         23    2    1    2    0    0  0.57313707663E+02 -0.10965310336E+03  0.47544453067E+03  0.49941617364E+03  0.89779444110E+02 0.  0.
         24    2    1    2    0    0 -0.83766011563E+02  0.17049958000E+03  0.13355259147E+03  0.24541239313E+03  0.79398340917E+02 0.  0.
        -11    1    4    4    0    0 -0.65187128479E+02  0.12664564160E+03  0.13704049145E+03  0.19765772576E+03  0.00000000000E+00 0.  1.
         12    1    4    4    0    0 -0.18578883084E+02  0.43853938402E+02 -0.34878999733E+01  0.47754667376E+02  0.00000000000E+00 0. -1.
        -11    1    3    3    0    0 -0.15032521185E+02 -0.24571221977E+02  0.36556627086E+02  0.46541472114E+02  0.00000000000E+00 0.  1.
         11    1    3    3    0    0  0.72346228848E+02 -0.85081881386E+02  0.43888790359E+03  0.45287470153E+03  0.00000000000E+00 0. -1.
          1    1    1    2  501    0  0.26452303900E+02 -0.60846476639E+02 -0.22554517085E+02  0.70076560574E+02  0.00000000000E+00 0. -1.
<scales pt_clust_5="13000.00000" pt_clust_6="13000.00000" pt_clust_7="13000.00000" pt_clust_8="13000.00000" pt_clust_9="66.34771"></scales>
<clustering>
<clus scale="   66.348">  2  9  1 -1</clus>
<clus scale="   79.398">  5  6 -1 -1</clus>
<clus scale="   89.779">  7  8 -1 -1</clus>
<clus scale="  156.971">  2  5  1 -1</clus>
<clus scale="   66.348">  2  5  1 -1</clus>
</clustering>
</event>
<event>
 9    2  0.1488992E-004  0.1161087E+03  0.7546771E-02  0.1249922E+00
          2   -1    0    0  502    0 -0.00000000000E+00  0.00000000000E+00  0.11201291997E+04  0.11201291997E+04  0.00000000000E+00 0. -1.
         21   -1    0    0  501  502  0.00000000000E+00 -0.00000000000E+00 -0.18341214695E+02  0.18341214695E+02  0.00000000000E+00 0. -1.
         24    2    1    2    0    0  0.47077618315E+02  0.50935312595E+02  0.59742755688E+03  0.60744969765E+03  0.85233451394E+02 0.  0.
         23    2    1    2    0    0 -0.70999416533E+02 -0.59149560478E+02  0.47836469366E+03  0.49475083242E+03  0.86058226747E+02 0.  0.
        -11    1    3    3    0    0  0.22557965005E+02  0.41923027178E+02  0.11703136555E+03  0.12634374743E+03  0.00000000000E+00 0.  1.
         12    1    3    3    0    0  0.24519653310E+02  0.90122854175E+01  0.48039619133E+03  0.48110595021E+03  0.00000000000E+00 0. -1.
        -13    1    4    4    0    0  0.83037146415E+01 -0.42088882354E+02  0.12369881295E+03  0.13092678114E+03  0.00000000000E+00 0. -1.
         13    1    4    4    0    0 -0.79303131175E+02 -0.17060678124E+02  0.35466588071E+03  0.36382405128E+03  0.00000000000E+00 0.  1.
          1    1    1    2  501    0  0.23921798218E+02  0.82142478822E+01  0.25995734450E+02  0.36269884310E+02  0.00000000000E+00 0. -1.
<scales pt_clust_5="13000.00000" pt_clust_6="13000.00000" pt_clust_7="13000.00000" pt_clust_8="13000.00000" pt_clust_9="25.29281"></scales>
<clustering>
<clus scale="   25.293">  2  9  1 -1</clus>
<clus scale="   85.233">  5  6 -1 -1</clus>
<clus scale="   86.058">  7  8 -1 -1</clus>
<clus scale="  115.499">  1  5  2 -1</clus>
<clus scale="   25.293">  2  5  1 -1</clus>
</clustering>
</event>
<event>
 9    2  0.1488992E-004  0.1561545E+03  0.7546771E-02  0.1218975E+00
          2   -1    0    0  502    0 -0.00000000000E+00  0.00000000000E+00  0.10024440633E+04  0.10024440633E+04  0.00000000000E+00 0. -1.
         21   -1    0    0  501  502  0.00000000000E+00 -0.00000000000E+00 -0.43218872270E+02  0.43218872270E+02  0.00000000000E+00 0. -1.
         24    2    1    2    0    0 -0.27686817741E+02 -0.30246683915E+02  0.28444512898E+03  0.29820636284E+03  0.79602648628E+02 0.  0.
         23    2    1    2    0    0 -0.30215947370E+02 -0.10948353630E+03  0.19448790424E+03  0.24391132006E+03  0.93635137420E+02 0.  0.
        -13    1    3    3    0    0 -0.24123137986E+02  0.24671021321E+02  0.11118904369E+03  0.11641988025E+03  0.00000000000E+00 0.  1.
         14    1    3    3    0    0 -0.35636797552E+01 -0.54917705235E+02  0.17325608529E+03  0.18178648259E+03  0.00000000000E+00 0. -1.
        -13    1    4    4    0    0 -0.43648557362E+02 -0.54382841468E+02  0.16681951273E+03  0.18080774274E+03  0.00000000000E+00 0.  1.
         13    1    4    4    0    0  0.13432609992E+02 -0.55100694828E+02  0.27668391512E+02  0.63103577321E+02  0.00000000000E+00 0. -1.
          1    1    1    2  501    0  0.57902765111E+02  0.13973022021E+03  0.48029215784E+03  0.50354525271E+03  0.00000000000E+00 0. -1.
<scales pt_clust_5="13000.00000" pt_clust_6="13000.00000" pt_clust_7="13000.00000" pt_clust_8="13000.00000" pt_clust_9="124.96678"></scales>
<clustering>
<clus scale="   79.603">  5  6 -1 -1</clus>
<clus scale="   89.543">  1  5  2 -1</clus>
<clus scale="   93.635">  7  8 -1 -1</clus>
<clus scale="  124.967">  2  9  1 -1</clus>
<clus scale="  124.967">  2  5  1 -1</clus>
</clustering>
</event>
<event>
 9    2  0.1488992E-004  0.9391321E+02  0.7546771E-02  0.1301287E+00
         -1   -1    0    0    0  501 -0.00000000000E+00  0.00000000000E+00  0.91040110325E+02  0.91040110325E+02  0.00000000000E+00 0.  1.
         21   -1    0    0  501  502  0.00000000000E+00 -0.00000000000E+00 -0.30460628123E+03  0.30460628123E+03  0.00000000000E+00 0.  1.
         23    2    1    2    0    0 -0.16741499383E+02  0.72858263310E+01  0.44965373567E+02  0.10465673399E+03  0.92724247543E+02 0.  0.
         24    2    1    2    0    0 -0.16136990767E+02 -0.40893240379E+01 -0.23896263995E+03  0.25259493442E+03  0.80149438918E+02 0.  0.
        -11    1    4    4    0    0  0.15029039254E+02  0.27509273799E+02 -0.14922383928E+03  0.15248077379E+03  0.00000000000E+00 0.  1.
         12    1    4    4    0    0 -0.31166030020E+02 -0.31598597837E+02 -0.89738800674E+02  0.10011416063E+03  0.00000000000E+00 0. -1.
        -13    1    3    3    0    0  0.37664097485E+02  0.59394518220E+01  0.29111473283E+02  0.47972275369E+02  0.00000000000E+00 0. -1.
         13    1    3    3    0    0 -0.54405596869E+02  0.13463745090E+01  0.15853900283E+02  0.56684458621E+02  0.00000000000E+00 0.  1.
         -2    1    1    2    0  502  0.32878490150E+02 -0.31965022931E+01 -0.19568904519E+02  0.38394723147E+02  0.00000000000E+00 0.  1.
<scales pt_clust_5="13000.00000" pt_clust_6="13000.00000" pt_clust_7="13000.00000" pt_clust_8="13000.00000" pt_clust_9="33.03353"></scales>
<clustering>
<clus scale="   33.034">  2  9  1 -1</clus>
<clus scale="   80.149">  5  6 -1 -1</clus>
<clus scale="   81.522">  2  5  1 -1</clus>
<clus scale="   92.724">  7  8 -1 -1</clus>
<clus scale="   33.034">  2  5  1 -1</clus>
</clustering>
</event>
<event>
 9    2  0.1488992E-004  0.8978503E+02  0.7546771E-02  0.1308674E+00
         21   -1    0    0  501  502  0.00000000000E+00  0.00000000000E+00  0.35447411653E+02  0.35447411653E+02  0.00000000000E+00 0. -1.
          2   -1    0    0  502    0 -0.00000000000E+00 -0.00000000000E+00 -0.71219063901E+03  0.71219063901E+03  0.00000000000E+00 0. -1.
         24    2    1    2    0    0  0.15315219806E+02  0.66798923287E+01 -0.49681964047E+03  0.50364017917E+03  0.80898071631E+02 0.  0.
         23    2    1    2    0    0  0.82151886414E+01  0.25869679964E+02 -0.18121699363E+03  0.20381295294E+03  0.89237835810E+02 0.  0.
        -13    1    3    3    0    0  0.62996096108E+01 -0.22326236642E+02 -0.43456812566E+02  0.49260942766E+02  0.00000000000E+00 0.  1.
         14    1    3    3    0    0  0.90156101950E+01  0.29006128971E+02 -0.45336282791E+03  0.45437923640E+03  0.00000000000E+00 0. -1.
        -11    1    4    4    0    0 -0.48951045656E+01 -0.32695089719E+02 -0.70876420223E+02  0.78207403000E+02  0.00000000000E+00 0.  1.
         11    1    4    4    0    0  0.13110293207E+02  0.58564769682E+02 -0.11034057341E+03  0.12560554994E+03  0.00000000000E+00 0. -1.
          1    1    1    2  501    0 -0.23530408447E+02 -0.32549572292E+02  0.12934067482E+01  0.40184918553E+02  0.00000000000E+00 0. -1.
<scales pt_clust_5="13000.00000" pt_clust_6="13000.00000" pt_clust_7="13000.00000" pt_clust_8="13000.00000" pt_clust_9="40.16410"></scales>
<clustering>
<clus scale="   40.164">  1  9  2 -1</clus>
<clus scale="   80.898">  5  6 -1 -1</clus>
<clus scale="   81.501">  2  5  1 -1</clus>
<clus scale="   89.238">  7  8 -1 -1</clus>
<clus scale="   40.164">  1  5  2 -1</clus>
</clustering>
</event>
<event>
 9    2  0.1488992E-004  0.1184252E+03  0.7546771E-02  0.1255645E+00
         -1   -1    0    0    0  501 -0.00000000000E+00  0.00000000000E+00  0.15366238702E+03  0.15366238702E+03  0.00000000000E+00 0.  1.
         21   -1    0    0  501  502  0.00000000000E+00 -0.00000000000E+00 -0.15346372759E+03  0.15346372759E+03  0.00000000000E+00 0. -1.
         23    2    1    2    0    0  0.62588845737E+02 -0.46807494961E+02  0.79059380884E+02  0.15060862062E+03  0.10160839386E+03 0.  0.
         24    2    1    2    0    0 -0.16574067129E+02  0.17232740457E+02 -0.56272761957E+02  0.97337751940E+02  0.75738676842E+02 0.  0.
        -13    1    4    4    0    0 -0.40340947483E+02  0.44661278941E+01 -0.57441251786E+02  0.70333745449E+02  0.00000000000E+00 0.  1.
         14    1    4    4    0    0  0.23766880354E+02  0.12766612563E+02  0.11684898296E+01  0.27004006491E+02  0.00000000000E+00 0. -1.
        -13    1    3    3    0    0  0.38445024221E+02  0.37067480236E+00 -0.16103840571E+02  0.41683221664E+02  0.00000000000E+00 0. -1.
         13    1    3    3    0    0  0.24143821516E+02 -0.47178169763E+02  0.95163221455E+02  0.10892539895E+03  0.00000000000E+00 0.  1.
         -2    1    1    2    0  502 -0.46014778609E+02  0.29574754504E+02 -0.22587959500E+02  0.59179742047E+02  0.00000000000E+00 0.  1.
<scales pt_clust_5="13000.00000" pt_clust_6="13000.00000" pt_clust_7="13000.00000" pt_clust_8="13000.00000" pt_clust_9="54.69941"></scales>
<clustering>
<clus scale="   54.699">  2  9  1 -1</clus>
<clus scale="   75.739">  5  6 -1 -1</clus>
<clus scale="   97.142">  2  5  1 -1</clus>
<clus scale="  101.608">  7  8 -1 -1</clus>
<clus scale="   54.699">  2  5  1 -1</clus>
</clustering>
</event>
<event>
 9    2  0.1488992E-004  0.3301395E+03  0.7546771E-02  0.1071404E+00
         21   -1    0    0  501  502  0.00000000000E+00  0.00000000000E+00  0.23509729805E+03  0.23509729805E+03  0.00000000000E+00 0.  1.
         -1   -1    0    0    0  501 -0.00000000000E+00 -0.00000000000E+00 -0.92550982458E+03  0.92550982458E+03  0.00000000000E+00 0.  1.
         24    2    1    2    0    0 -0.31861660691E+03 -0.63416698117E+02 -0.43633936081E+03  0.54995856122E+03  0.80772281532E+02 0.  0.
         23    2    1    2    0    0  0.31495088078E+03 -0.64421662023E+02 -0.32338870924E+03  0.46518128522E+03  0.92028055534E+02 0.  0.
        -13    1    3    3    0    0 -0.23976868299E+03 -0.49428238472E+02 -0.38005731586E+03  0.45207934639E+03  0.00000000000E+00 0.  1.
         14    1    3    3    0    0 -0.78847923922E+02 -0.13988459645E+02 -0.56282044956E+02  0.97879214824E+02  0.00000000000E+00 0. -1.
        -13    1    4    4    0    0  0.37069251237E+02  0.11854291023E+02 -0.76041778957E+02  0.85422513132E+02  0.00000000000E+00 0. -1.
         13    1    4    4    0    0  0.27788162955E+03 -0.76275953046E+02 -0.24734693029E+03  0.37975877209E+03  0.00000000000E+00 0.  1.
         -2    1    1    2    0  502  0.36657261228E+01  0.12783836014E+03  0.69315543524E+02  0.14546727620E+03  0.00000000000E+00 0.  1.
<scales pt_clust_5="13000.00000" pt_clust_6="13000.00000" pt_clust_7="13000.00000" pt_clust_8="13000.00000" pt_clust_9="127.89091"></scales>
<clustering>
<clus scale="   80.772">  5  6 -1 -1</clus>
<clus scale="   92.028">  7  8 -1 -1</clus>
<clus scale="  127.891">  1  9  2 -1</clus>
<clus scale="  327.181">  2  5  1 -1</clus>
<clus scale="  127.891">  1  5  2 -1</clus>
</clustering>
</event>
<event>
 9    2  0.1488992E-004  0.1604208E+03  0.7546771E-02  0.1189413E+00
          2   -1    0    0  502    0 -0.00000000000E+00  0.00000000000E+00  0.10683464182E+03  0.10683464182E+03  0.00000000000E+00 0. -1.
         21   -1    0    0  501  502  0.00000000000E+00 -0.00000000000E+00 -0.49062887379E+03  0.49062887379E+03  0.00000000000E+00 0. -1.
         24    2    1    2    0    0 -0.97431213091E+01 -0.12202723999E+03 -0.73438087571E+02  0.16428501413E+03  0.81307056593E+02 0.  0.
         23    2    1    2    0    0 -0.16517236878E+02  0.16710474375E+03 -0.32716083637E+03  0.37836987597E+03  0.89065906428E+02 0.  0.
        -11    1    3    3    0    0  0.25420765998E+02 -0.91142400905E+02 -0.69332916987E+02  0.11730390430E+03  0.00000000000E+00 0.  1.
         12    1    3    3    0    0 -0.35163887307E+02 -0.30884839080E+02 -0.41051705844E+01  0.46981109832E+02  0.00000000000E+00 0. -1.
        -13    1    4    4    0    0  0.55018469205E+01  0.11096644424E+03 -0.28180182606E+03  0.30291267923E+03  0.00000000000E+00 0. -1.
         13    1    4    4    0    0 -0.22019083798E+02  0.56138299516E+02 -0.45359010312E+02  0.75457196743E+02  0.00000000000E+00 0.  1.
          1    1    1    2  501    0  0.26260358187E+02 -0.45077503766E+02  0.16804691963E+02  0.54808625506E+02  0.00000000000E+00 0. -1.
<scales pt_clust_5="13000.00000" pt_clust_6="13000.00000" pt_clust_7="13000.00000" pt_clust_8="13000.00000" pt_clust_9="52.16887"></scales>
<clustering>
<clus scale="   52.169">  2  9  1 -1</clus>
<clus scale="   81.307">  5  6 -1 -1</clus>
<clus scale="   89.066">  7  8 -1 -1</clus>
<clus scale="  156.246">  1  5  2 -1</clus>
<clus scale="   52.169">  2  5  1 -1</clus>
</clustering>
</event>
<event>
 9    2  0.1488992E-004  0.9446248E+02  0.7546771E-02  0.1297218E+00
         -1   -1    0    0    0  501 -0.00000000000E+00  0.00000000000E+00  0.19807414825E+03  0.19807414825E+03  0.00000000000E+00 0.  1.
         21   -1    0    0  501  502  0.00000000000E+00 -0.00000000000E+00 -0.15751387334E+03  0.15751387334E+03  0.00000000000E+00 0. -1.
         23    2    1    2    0    0  0.20755959352E+02 -0.15648957155E+02  0.13626253209E+03  0.16590018277E+03  0.90992819956E+02 0.  0.
         24    2    1    2    0    0 -0.30620511174E+02 -0.61412778038E+01  0.28209568166E+01  0.88302694839E+02  0.82547423466E+02 0.  0.
        -13    1    4    4    0    0 -0.55078437217E+02  0.79042558466E+00 -0.15198970229E+02  0.57142521076E+02  0.00000000000E+00 0.  1.
         14    1    4    4    0    0  0.24457926043E+02 -0.69317033884E+01  0.18019927046E+02  0.31160173763E+02  0.00000000000E+00 0. -1.
        -11    1    3    3    0    0 -0.33181619514E+02 -0.63313070173E+01  0.82627748321E+02  0.89266175648E+02  0.00000000000E+00 0.  1.
         11    1    3    3    0    0  0.53937578865E+02 -0.93176501382E+01  0.53634783767E+02  0.76634007122E+02  0.00000000000E+00 0. -1.
         -2    1    1    2    0  502  0.98645518224E+01  0.21790234959E+02 -0.98523213997E+02  0.10138514397E+03  0.00000000000E+00 0.  1.
<scales pt_clust_5="13000.00000" pt_clust_6="13000.00000" pt_clust_7="13000.00000" pt_clust_8="13000.00000" pt_clust_9="23.91911"></scales>
<clustering>
<clus scale="   23.919">  2  9  1 -1</clus>
<clus scale="   82.547">  5  6 -1 -1</clus>
<clus scale="   86.357">  2  5  1 -1</clus>
<clus scale="   90.993">  7  8 -1 -1</clus>
<clus scale="   23.919">  2  5  1 -1</clus>
</clustering>
</event>
<event>
 9    2  0.1488992E-004  0.1285387E+03  0.7546771E-02  0.1233160E+00
         21   -1    0    0  501  502  0.00000000000E+00  0.00000000000E+00  0.40852104781E+02  0.40852104781E+02  0.00000000000E+00 0. -1.
          2   -1    0    0  502    0 -0.00000000000E+00 -0.00000000000E+00 -0.77291863581E+03  0.77291863581E+03  0.00000000000E+00 0. -1.
         24    2    1    2    0    0  0.91048274798E+02  0.40075885053E+01 -0.59298166677E+03  0.60542456799E+03  0.81276080657E+02 0.  0.
         23    2    1    2    0    0 -0.74384954710E+02 -0.16809442163E+02 -0.14259269474E+03  0.18704221597E+03  0.94002314487E+02 0.  0.
        -13    1    3    3    0    0  0.14371705123E+02 -0.33530807457E+02 -0.19612778187E+03  0.19949177371E+03  0.00000000000E+00 0.  1.
         14    1    3    3    0    0  0.76676569675E+02  0.37538395963E+02 -0.39685388490E+03  0.40593279428E+03  0.00000000000E+00 0. -1.
        -13    1    4    4    0    0 -0.70652346858E+02  0.29560756066E+01 -0.14981873311E+03  0.16566878188E+03  0.00000000000E+00 0.  1.
         13    1    4    4    0    0 -0.37326078520E+01 -0.19765517770E+02  0.72260383726E+01  0.21373434087E+02  0.00000000000E+00 0. -1.
          1    1    1    2  501    0 -0.16663320088E+02  0.12801853658E+02  0.35078304839E+01  0.21303956631E+02  0.00000000000E+00 0. -1.
<scales pt_clust_5="13000.00000" pt_clust_6="13000.00000" pt_clust_7="13000.00000" pt_clust_8="13000.00000" pt_clust_9="21.01318"></scales>
<clustering>
<clus scale="   21.013">  1  9  2 -1</clus>
<clus scale="   81.276">  5  6 -1 -1</clus>
<clus scale="   94.002">  7  8 -1 -1</clus>
<clus scale="  119.547">  2  5  1 -1</clus>
<clus scale="   21.013">  1  5  2 -1</clus>
</clustering>
</event>
<event>
 9    2  0.1488992E-004  0.1192994E+03  0.7546771E-02  0.1246014E+00
         21   -1    0    0  501  502  0.00000000000E+00  0.00000000000E+00  0.16124376780E+03  0.16124376780E+03  0.00000000000E+00 0.  1.
          2   -1    0    0  502    0 -0.00000000000E+00 -0.00000000000E+00 -0.18432557150E+03  0.18432557150E+03  0.00000000000E+00 0. -1.
         24    2    1    2    0    0  0.25656035792E+02 -0.56035682761E+02  0.47541633671E+01  0.10239188596E+03  0.81628832690E+02 0.  0.
         23    2    1    2    0    0 -0.23465387047E+00  0.11998612279E+03  0.32162111906E+02  0.15187753594E+03  0.87382262250E+02 0.  0.
        -13    1    3    3    0    0  0.27655653239E+02 -0.70361435511E+02  0.23079471967E+02  0.79045738591E+02  0.00000000000E+00 0.  1.
         14    1    3    3    0    0 -0.19996174470E+01  0.14325752749E+02 -0.18325308600E+02  0.23346147370E+02  0.00000000000E+00 0. -1.
        -13    1    4    4    0    0 -0.91343620604E+01  0.77282648031E+02  0.61602049682E+02  0.99251482518E+02  0.00000000000E+00 0.  1.
         13    1    4    4    0    0  0.88997081899E+01  0.42703474755E+02 -0.29439937777E+02  0.52626053417E+02  0.00000000000E+00 0. -1.
          1    1    1    2  501    0 -0.25421381921E+02 -0.63950440025E+02 -0.59998078975E+02  0.91299917409E+02  0.00000000000E+00 0. -1.
<scales pt_clust_5="13000.00000" pt_clust_6="13000.00000" pt_clust_7="13000.00000" pt_clust_8="13000.00000" pt_clust_9="68.81795"></scales>
<clustering>
<clus scale="   68.818">  1  9  2 -1</clus>
<clus scale="   81.629">  5  6 -1 -1</clus>
<clus scale="   87.382">  7  8 -1 -1</clus>
<clus scale="  115.152">  2  5  1 -1</clus>
<clus scale="   68.818">  1  5  2 -1</clus>
</clustering>
</event>
<event>
 9    2  0.1488992E-004  0.1198292E+03  0.7546771E-02  0.1244726E+00
         21   -1    0    0  501  502  0.00000000000E+00  0.00000000000E+00  0.43328213468E+02  0.43328213468E+02  0.00000000000E+00 0. -1.
          2   -1    0    0  502    0 -0.00000000000E+00 -0.00000000000E+00 -0.58635235476E+03  0.58635235476E+03  0.00000000000E+00 0. -1.
         23    2    1    2    0    0  0.19791141417E+02  0.89618925431E+02 -0.34660543078E+03  0.37002012489E+03  0.91412948222E+02 0.  0.
         24    2    1    2    0    0 -0.49932317359E+02 -0.42737215607E+02 -0.15770215466E+03  0.19179766341E+03  0.87158867526E+02 0.  0.
        -13    1    4    4    0    0 -0.63108173971E+02 -0.53306102810E+02 -0.15361643325E+03  0.17441958257E+03  0.00000000000E+00 0.  1.
         14    1    4    4    0    0  0.13175856611E+02  0.10568887202E+02 -0.40857214096E+01  0.17378080837E+02  0.00000000000E+00 0. -1.
        -13    1    3    3    0    0 -0.21026873917E+02  0.82132662051E+02 -0.26860294632E+03  0.28166548665E+03  0.00000000000E+00 0. -1.
         13    1    3    3    0    0  0.40818015333E+02  0.74862633797E+01 -0.78002484467E+02  0.88354638238E+02  0.00000000000E+00 0.  1.
          1    1    1    2  501    0  0.30141175943E+02 -0.46881709824E+02 -0.38716555848E+02  0.67862779931E+02  0.00000000000E+00 0. -1.
<scales pt_clust_5="13000.00000" pt_clust_6="13000.00000" pt_clust_7="13000.00000" pt_clust_8="13000.00000" pt_clust_9="55.73495"></scales>
<clustering>
<clus scale="   55.735">  1  9  2 -1</clus>
<clus scale="   87.159">  5  6 -1 -1</clus>
<clus scale="   91.413">  7  8 -1 -1</clus>
<clus scale="  116.616">  1  5  2 -1</clus>
<clus scale="   55.735">  1  5  2 -1</clus>
</clustering>
</event>
<event>
 9    2  0.1488992E-004  0.1246891E+03  0.7546771E-02  0.1237747E+00
          2   -1    0    0  502    0 -0.00000000000E+00  0.00000000000E+00  0.57602448781E+03  0.57602448781E+03  0.00000000000E+00 0. -1.
         21   -1    0    0  501  502  0.00000000000E+00 -0.00000000000E+00 -0.55188773324E+02  0.55188773324E+02  0.00000000000E+00 0. -1.
         23    2    1    2    0    0  0.92718173657E+02 -0.10818811693E+02  0.41380974502E+03  0.43379172330E+03  0.90681021843E+02 0.  0.
         24    2    1    2    0    0 -0.62443064749E+02  0.37334595978E+02  0.11153621169E+03  0.15692448460E+03  0.83017823129E+02 0.  0.
        -11    1    4    4    0    0 -0.52971604881E+02 -0.11690690175E+02  0.83746120289E+02  0.99780137421E+02  0.00000000000E+00 0.  1.
         12    1    4    4    0    0 -0.94714598683E+01  0.49025286153E+02  0.27790091396E+02  0.57144347176E+02  0.00000000000E+00 0. -1.
        -11    1    3    3    0    0  0.30674419702E+01  0.28361987061E+02  0.14380342955E+03  0.14660572247E+03  0.00000000000E+00 0.  1.
         11    1    3    3    0    0  0.89650731687E+02 -0.39180798754E+02  0.27000631546E+03  0.28718600083E+03  0.00000000000E+00 0. -1.
          1    1    1    2  501    0 -0.30275108909E+02 -0.26515784285E+02 -0.45102422171E+01  0.40497053233E+02  0.00000000000E+00 0. -1.
<scales pt_clust_5="13000.00000" pt_clust_6="13000.00000" pt_clust_7="13000.00000" pt_clust_8="13000.00000" pt_clust_9="40.24511"></scales>
<clustering>
<clus scale="   40.245">  2  9  1 -1</clus>
<clus scale="   83.018">  5  6 -1 -1</clus>
<clus scale="   90.681">  7  8 -1 -1</clus>
<clus scale="  119.232">  2  5  1 -1</clus>
<clus scale="   40.245">  2  5  1 -1</clus>
</clustering>
</event>
<event>
 9    2  0.1488992E-004  0.1443946E+03  0.7546771E-02  0.1209615E+00
         -1   -1    0    0    0  501 -0.00000000000E+00  0.00000000000E+00  0.17205079282E+03  0.17205079282E+03  0.00000000000E+00 0.  1.
         21   -1    0    0  501  502  0.00000000000E+00 -0.00000000000E+00 -0.16367416136E+03  0.16367416136E+03  0.00000000000E+00 0. -1.
         24    2    1    2    0    0 -0.90302665780E+02  0.81379991076E+02  0.73892147427E+02  0.16296840489E+03  0.79507088660E+02 0.  0.
         23    2    1    2    0    0  0.74911432575E+02 -0.58946053726E+02 -0.44691517661E+02  0.13849563118E+03  0.89985266149E+02 0.  0.
        -13    1    3    3    0    0  0.53918831809E+01  0.32606158958E+02  0.36498509599E+02  0.49237944810E+02  0.00000000000E+00 0.  1.
         14    1    3    3    0    0 -0.95694548961E+02  0.48773832119E+02  0.37393637828E+02  0.11373046008E+03  0.00000000000E+00 0. -1.
        -11    1    4    4    0    0  0.39313162688E+02  0.19313843347E+02 -0.59837071047E+01  0.44208076819E+02  0.00000000000E+00 0.  1.
         11    1    4    4    0    0  0.35598269888E+02 -0.78259897072E+02 -0.38707810556E+02  0.94287554358E+02  0.00000000000E+00 0. -1.
         -2    1    1    2    0  502  0.15391233205E+02 -0.22433937351E+02 -0.20823998299E+02  0.34260918111E+02  0.00000000000E+00 0.  1.
<scales pt_clust_5="13000.00000" pt_clust_6="13000.00000" pt_clust_7="13000.00000" pt_clust_8="13000.00000" pt_clust_9="27.20609"></scales>
<clustering>
<clus scale="   27.206">  2  9  1 -1</clus>
<clus scale="   79.507">  5  6 -1 -1</clus>
<clus scale="   89.985">  7  8 -1 -1</clus>
<clus scale="  138.108">  1  5  2 -1</clus>
<clus scale="   27.206">  2  5  1 -1</clus>
</clustering>
</event>
<event>
 9    2  0.1488992E-004  0.4829724E+03  0.7546771E-02  0.1046162E+00
         21   -1    0    0  501  502  0.00000000000E+00  0.00000000000E+00  0.22595102527E+03  0.22595102527E+03  0.00000000000E+00 0.  1.
         -3   -1    0    0    0  501 -0.00000000000E+00 -0.00000000000E+00 -0.16707473466E+04  0.16707473466E+04  0.00000000000E+00 0.  1.
         24    2    1    2    0    0  0.63825770527E+02 -0.18499369939E+03 -0.31448023613E+03  0.37935506131E+03  0.81951484572E+02 0.  0.
         23    2    1    2    0    0  0.39209168914E+03 -0.76787108723E+02 -0.79352961737E+03  0.89299160962E+03  0.90070019759E+02 0.  0.
        -11    1    3    3    0    0  0.67411197547E+02 -0.19233735375E+03 -0.29908179286E+03  0.36192243094E+03  0.00000000000E+00 0.  1.
         12    1    3    3    0    0 -0.35854270196E+01  0.73436543526E+01 -0.15398443274E+02  0.17432630364E+02  0.00000000000E+00 0. -1.
        -13    1    4    4    0    0  0.34077629461E+02 -0.12343322561E+02 -0.29312100747E+02  0.46613750029E+02  0.00000000000E+00 0. -1.
         13    1    4    4    0    0  0.35801405968E+03 -0.64443786162E+02 -0.76421751662E+03  0.84637785959E+03  0.00000000000E+00 0.  1.
         -4    1    1    2    0  502 -0.45591745967E+03  0.26178080812E+03 -0.33678646779E+03  0.62435170089E+03  0.00000000000E+00 0.  1.
<scales pt_clust_5="13000.00000" pt_clust_6="13000.00000" pt_clust_7="13000.00000" pt_clust_8="13000.00000" pt_clust_9="474.49944"></scales>
<clustering>
<clus scale="   81.951">  5  6 -1 -1</clus>
<clus scale="   90.070">  7  8 -1 -1</clus>
<clus scale="  212.161">  2  5  1 -1</clus>
<clus scale="  474.499">  1  9  2 -1</clus>
<clus scale="  474.499">  1  5  2 -1</clus>
</clustering>
</event>
<event>
 9    2  0.1488992E-004  0.3232501E+03  0.7546771E-02  0.1074474E+00
         21   -1    0    0  501  502  0.00000000000E+00  0.00000000000E+00  0.34628991471E+03  0.34628991471E+03  0.00000000000E+00 0.  1.
          2   -1    0    0  502    0 -0.00000000000E+00 -0.00000000000E+00 -0.68463131138E+03  0.68463131138E+03  0.00000000000E+00 0. -1.
         24    2    1    2    0    0 -0.30519444519E+03  0.69124435548E+02 -0.54239965282E+03  0.63120573874E+03  0.79381762859E+02 0.  0.
         23    2    1    2    0    0  0.29302757075E+03 -0.50148716881E+02  0.15797608912E+03  0.34841561551E+03  0.89760488923E+02 0.  0.
        -13    1    3    3    0    0 -0.14871533563E+02  0.23337024321E+02 -0.64119732794E+02  0.69836375538E+02  0.00000000000E+00 0.  1.
         14    1    3    3    0    0 -0.29032291163E+03  0.45787411227E+02 -0.47827992003E+03  0.56136936320E+03  0.00000000000E+00 0. -1.
        -11    1    4    4    0    0  0.86759991404E+02 -0.41787957325E+02  0.15385117983E+02  0.97520414997E+02  0.00000000000E+00 0. -1.
         11    1    4    4    0    0  0.20626757935E+03 -0.83607595557E+01  0.14259097114E+03  0.25089520051E+03  0.00000000000E+00 0.  1.
          1    1    1    2  501    0  0.12166874438E+02 -0.18975718667E+02  0.46082167033E+02  0.51299871841E+02  0.00000000000E+00 0. -1.
<scales pt_clust_5="13000.00000" pt_clust_6="13000.00000" pt_clust_7="13000.00000" pt_clust_8="13000.00000" pt_clust_9="22.54131"></scales>
<clustering>
<clus scale="   22.541">  1  9  2 -1</clus>
<clus scale="   79.382">  5  6 -1 -1</clus>
<clus scale="   89.760">  7  8 -1 -1</clus>
<clus scale="  320.523">  2  5  1 -1</clus>
<clus scale="   22.541">  1  5  2 -1</clus>
</clustering>
</event>
<event>
 9    2  0.1488992E-004  0.9973315E+02  0.7546771E-02  0.1288373E+00
         21   -1    0    0  501  502  0.00000000000E+00  0.00000000000E+00  0.16537176869E+03  0.16537176869E+03  0.00000000000E+00 0. -1.
          2   -1    0    0  502    0 -0.00000000000E+00 -0.00000000000E+00 -0.23693202402E+03  0.23693202402E+03  0.00000000000E+00 0. -1.
         24    2    1    2    0    0  0.22499487785E+01 -0.30973238024E+02 -0.20105382204E+03  0.21899503409E+03  0.81066527342E+02 0.  0.
         23    2    1    2    0    0  0.23823339301E+02  0.21551083643E+02  0.88205180453E+02  0.13357623221E+03  0.95028707503E+02 0.  0.
        -13    1    3    3    0    0 -0.17493395518E+02  0.22299213757E+02 -0.88293018357E+02  0.92730420637E+02  0.00000000000E+00 0.  1.
         14    1    3    3    0    0  0.19743344297E+02 -0.53272451781E+02 -0.11276080369E+03  0.12626461345E+03  0.00000000000E+00 0. -1.
        -11    1    4    4    0    0 -0.13842152906E+02 -0.27986831623E+02  0.54483777451E+02  0.62796098180E+02  0.00000000000E+00 0.  1.
         11    1    4    4    0    0  0.37665492208E+02  0.49537915266E+02  0.33721403002E+02  0.70780134025E+02  0.00000000000E+00 0. -1.
          1    1    1    2  501    0 -0.26073288080E+02  0.94221543811E+01  0.41288386255E+02  0.49732526419E+02  0.00000000000E+00 0. -1.
<scales pt_clust_5="13000.00000" pt_clust_6="13000.00000" pt_clust_7="13000.00000" pt_clust_8="13000.00000" pt_clust_9="27.72352"></scales>
<clustering>
<clus scale="   27.724">  1  9  2 -1</clus>
<clus scale="   81.067">  5  6 -1 -1</clus>
<clus scale="   86.533">  2  5  1 -1</clus>
<clus scale="   95.029">  7  8 -1 -1</clus>
<clus scale="   27.724">  1  5  2 -1</clus>
</clustering>
</event>
<event>
 9    2  0.1488992E-004  0.1055899E+03  0.7546771E-02  0.1270976E+00
          4   -1    0    0  502    0 -0.00000000000E+00  0.00000000000E+00  0.19391680430E+03  0.19391680430E+03  0.00000000000E+00 0. -1.
         21   -1    0    0  501  502  0.00000000000E+00 -0.00000000000E+00 -0.24924006628E+03  0.24924006628E+03  0.00000000000E+00 0.  1.
         23    2    1    2    0    0 -0.49145420803E+02  0.40832525115E+02  0.12238322241E+03  0.16232367150E+03  0.85374198148E+02 0.  0.
         24    2    1    2    0    0  0.25837198384E+00 -0.65173523463E+02 -0.19733261849E+03  0.22280206190E+03  0.80330203227E+02 0.  0.
        -13    1    4    4    0    0  0.11822018525E+01 -0.79254593580E+02 -0.19199813394E+03  0.20771608422E+03  0.00000000000E+00 0.  1.
         14    1    4    4    0    0 -0.92382986867E+00  0.14081070117E+02 -0.53344845442E+01  0.15085977682E+02  0.00000000000E+00 0. -1.
        -13    1    3    3    0    0  0.13479595504E+01  0.52662611417E+02  0.45640807529E+02  0.69701154569E+02  0.00000000000E+00 0. -1.
         13    1    3    3    0    0 -0.50493380354E+02 -0.11830086303E+02  0.76742414879E+02  0.92622516933E+02  0.00000000000E+00 0.  1.
          3    1    1    2  501    0  0.48887048819E+02  0.24340998349E+02  0.19626134097E+02  0.58031137181E+02  0.00000000000E+00 0. -1.
<scales pt_clust_5="13000.00000" pt_clust_6="13000.00000" pt_clust_7="13000.00000" pt_clust_8="13000.00000" pt_clust_9="54.61164"></scales>
<clustering>
<clus scale="   54.612">  2  9  1 -1</clus>
<clus scale="   80.330">  5  6 -1 -1</clus>
<clus scale="   85.374">  7  8 -1 -1</clus>
<clus scale="  101.555">  2  5  1 -1</clus>
<clus scale="   54.612">  2  5  1 -1</clus>
</clustering>
</event>
<event>
 9    2  0.1488992E-004  0.1573367E+03  0.7546771E-02  0.1192818E+00
         21   -1    0    0  501  502  0.00000000000E+00  0.00000000000E+00  0.73924108887E+02  0.73924108887E+02  0.00000000000E+00 0. -1.
          2   -1    0    0  502    0 -0.00000000000E+00 -0.00000000000E+00 -0.50249187570E+03  0.50249187570E+03  0.00000000000E+00 0. -1.
         23    2    1    2    0    0  0.80416703837E+02  0.10921772838E+03 -0.29883231276E+03  0.33971144703E+03  0.87793836018E+02 0.  0.
         24    2    1    2    0    0 -0.45213427813E+02 -0.11238525614E+03 -0.58187530370E+02  0.15690222395E+03  0.80980363897E+02 0.  0.
        -13    1    4    4    0    0  0.10862147342E+02 -0.28687738952E+02 -0.46184895239E+02  0.55443819847E+02  0.00000000000E+00 0.  1.
         14    1    4    4    0    0 -0.56075575155E+02 -0.83697517187E+02 -0.12002635131E+02  0.10145840410E+03  0.00000000000E+00 0. -1.
        -13    1    3    3    0    0  0.19281051505E+02 -0.13358604511E+02 -0.59447391041E+02  0.63907773887E+02  0.00000000000E+00 0.  1.
         13    1    3    3    0    0  0.61135652331E+02  0.12257633289E+03 -0.23938492172E+03  0.27580367314E+03  0.00000000000E+00 0. -1.
          1    1    1    2  501    0 -0.35203276024E+02  0.31675277634E+01 -0.71547923681E+02  0.79802313613E+02  0.00000000000E+00 0. -1.
<scales pt_clust_5="13000.00000" pt_clust_6="13000.00000" pt_clust_7="13000.00000" pt_clust_8="13000.00000" pt_clust_9="35.34551"></scales>
<clustering>
<clus scale="   35.346">  1  9  2 -1</clus>
<clus scale="   80.980">  5  6 -1 -1</clus>
<clus scale="   87.794">  7  8 -1 -1</clus>
<clus scale="  153.639">  1  5  2 -1</clus>
<clus scale="   35.346">  1  5  2 -1</clus>
</clustering>
</event>
<event>
 9    2  0.1488992E-004  0.1500334E+03  0.7546771E-02  0.1233694E+00
          2   -1    0    0  502    0 -0.00000000000E+00  0.00000000000E+00  0.10659661517E+04  0.10659661517E+04  0.00000000000E+00 0. -1.
         21   -1    0    0  501  502  0.00000000000E+00 -0.00000000000E+00 -0.34280158492E+02  0.34280158492E+02  0.00000000000E+00 0.  1.
         23    2    1    2    0    0 -0.99021298522E+01 -0.44482060648E+02  0.89662914998E+02  0.11648275795E+03  0.58754477951E+02 0.  0.
         24    2    1    2    0    0  0.12799622636E+03 -0.72757351824E+01  0.43539741679E+03  0.46098764818E+03  0.80639512265E+02 0.  0.
        -13    1    4    4    0    0  0.71709469930E+02  0.25081419163E+02  0.14812743893E+03  0.16647241161E+03  0.00000000000E+00 0.  1.
         14    1    4    4    0    0  0.56286756429E+02 -0.32357154345E+02  0.28726997787E+03  0.29451523657E+03  0.00000000000E+00 0. -1.
        -13    1    3    3    0    0 -0.17737977958E+02 -0.25613820978E+02  0.78120370954E+01  0.32120579240E+02  0.00000000000E+00 0.  1.
         13    1    3    3    0    0  0.78358481055E+01 -0.18868239669E+02  0.81850877903E+02  0.84362178713E+02  0.00000000000E+00 0. -1.
          1    1    1    2  501    0 -0.11809409651E+03  0.51757795830E+02  0.50662566138E+03  0.52277590402E+03  0.00000000000E+00 0. -1.
<scales pt_clust_5="13000.00000" pt_clust_6="13000.00000" pt_clust_7="13000.00000" pt_clust_8="13000.00000" pt_clust_9="126.52001"></scales>
<clustering>
<clus scale="   58.754">  7  8 -1 -1</clus>
<clus scale="   74.356">  1  7  2 -1</clus>
<clus scale="   80.640">  5  6 -1 -1</clus>
<clus scale="  126.520">  2  9  1 -1</clus>
<clus scale="  126.520">  2  5  1 -1</clus>
</clustering>
</event>
<event>
 9    2  0.1488992E-004  0.1145670E+03  0.7546771E-02  0.1256075E+00
         21   -1    0    0  501  502  0.00000000000E+00  0.00000000000E+00  0.29071031463E+03  0.29071031463E+03  0.00000000000E+00 0. -1.
          2   -1    0    0  502    0 -0.00000000000E+00 -0.00000000000E+00 -0.84649791431E+02  0.84649791431E+02  0.00000000000E+00 0. -1.
         23    2    1    2    0    0  0.95215635137E+01 -0.65939157472E+02  0.34162039623E+02  0.11783704940E+03  0.90993915179E+02 0.  0.
         24    2    1    2    0    0 -0.36077518654E+02  0.72125068514E+02  0.19227533551E+03  0.22348336889E+03  0.80445003976E+02 0.  0.
        -11    1    4    4    0    0 -0.27270476635E+02  0.29326526726E+02  0.16958241010E+03  0.17424671555E+03  0.00000000000E+00 0.  1.
         12    1    4    4    0    0 -0.88070420190E+01  0.42798541789E+02  0.22692925414E+02  0.49236653341E+02  0.00000000000E+00 0. -1.
        -13    1    3    3    0    0 -0.22982411687E+02 -0.72021986958E+02  0.37882286890E+02  0.84560188696E+02  0.00000000000E+00 0. -1.
         13    1    3    3    0    0  0.32503975200E+02  0.60828294861E+01 -0.37202472671E+01  0.33276860701E+02  0.00000000000E+00 0.  1.
          1    1    1    2  501    0  0.26555955141E+02 -0.61859110420E+01 -0.20376851935E+02  0.34039687772E+02  0.00000000000E+00 0. -1.
<scales pt_clust_5="13000.00000" pt_clust_6="13000.00000" pt_clust_7="13000.00000" pt_clust_8="13000.00000" pt_clust_9="27.26692"></scales>
<clustering>
<clus scale="   27.267">  1  9  2 -1</clus>
<clus scale="   80.445">  5  6 -1 -1</clus>
<clus scale="   90.994">  7  8 -1 -1</clus>
<clus scale="  106.382">  1  5  2 -1</clus>
<clus scale="   27.267">  1  5  2 -1</clus>
</clustering>
</event>
<event>
 9    2  0.1488992E-004  0.1451638E+03  0.7546771E-02  0.1206606E+00
         21   -1    0    0  501  502  0.00000000000E+00  0.00000000000E+00  0.49175304846E+02  0.49175304846E+02  0.00000000000E+00 0.  1.
          2   -1    0    0  502    0 -0.00000000000E+00 -0.00000000000E+00 -0.60866803915E+03  0.60866803915E+03  0.00000000000E+00 0. -1.
         24    2    1    2    0    0  0.55526011171E+01 -0.12130715253E+03 -0.28350269318E+03  0.31902191621E+03  0.81577872916E+02 0.  0.
         23    2    1    2    0    0 -0.47111588351E+02  0.11304694201E+03 -0.24722109581E+03  0.28760587631E+03  0.81238888598E+02 0.  0.
        -13    1    3    3    0    0 -0.94557678129E+01 -0.51811925604E+02 -0.42276736432E+02  0.67536727957E+02  0.00000000000E+00 0.  1.
         14    1    3    3    0    0  0.15008368930E+02 -0.69495226930E+02 -0.24122595675E+03  0.25148518826E+03  0.00000000000E+00 0. -1.
        -11    1    4    4    0    0 -0.64227039965E+01  0.22311712049E+02 -0.23773929856E+01  0.23339143485E+02  0.00000000000E+00 0. -1.
         11    1    4    4    0    0 -0.40688884355E+02  0.90735229961E+02 -0.24484370283E+03  0.26426673283E+03  0.00000000000E+00 0.  1.
          1    1    1    2  501    0  0.41558987234E+02  0.82602105232E+01 -0.28768945313E+02  0.51215551469E+02  0.00000000000E+00 0. -1.
<scales pt_clust_5="13000.00000" pt_clust_6="13000.00000" pt_clust_7="13000.00000" pt_clust_8="13000.00000" pt_clust_9="42.37193"></scales>
<clustering>
<clus scale="   42.372">  1  9  2 -1</clus>
<clus scale="   81.239">  7  8 -1 -1</clus>
<clus scale="   81.578">  5  6 -1 -1</clus>
<clus scale="  144.974">  1  7  2 -1</clus>
<clus scale="   42.372">  1  5  2 -1</clus>
</clustering>
</event>
<event>
 9    2  0.1488992E-004  0.1005859E+03  0.7546771E-02  0.1287049E+00
          2   -1    0    0  502    0 -0.00000000000E+00  0.00000000000E+00  0.65937570695E+03  0.65937570695E+03  0.00000000000E+00 0. -1.
         21   -1    0    0  501  502  0.00000000000E+00 -0.00000000000E+00 -0.21483046473E+02  0.21483046473E+02  0.00000000000E+00 0.  1.
         23    2    1    2    0    0 -0.17533755565E+02 -0.28658125650E+02  0.37166942495E+03  0.38421479847E+03  0.91400925419E+02 0.  0.
         24    2    1    2    0    0  0.42014920798E+01  0.57861115703E+02  0.22536162507E+03  0.24468016865E+03  0.75597365249E+02 0.  0.
        -11    1    4    4    0    0 -0.28323742486E+02  0.17894328302E+02  0.39435304095E+02  0.51745382237E+02  0.00000000000E+00 0.  1.
         12    1    4    4    0    0  0.32525234566E+02  0.39966787400E+02  0.18592632097E+03  0.19293478641E+03  0.00000000000E+00 0. -1.
        -13    1    3    3    0    0 -0.14043007061E+02  0.32315441792E+02  0.16447187169E+03  0.16820371697E+03  0.00000000000E+00 0.  1.
         13    1    3    3    0    0 -0.34907485037E+01 -0.60973567442E+02  0.20719755326E+03  0.21601108150E+03  0.00000000000E+00 0. -1.
          1    1    1    2  501    0  0.13332263485E+02 -0.29202990053E+02  0.40861610451E+02  0.51963786297E+02  0.00000000000E+00 0. -1.
<scales pt_clust_5="13000.00000" pt_clust_6="13000.00000" pt_clust_7="13000.00000" pt_clust_8="13000.00000" pt_clust_9="32.10240"></scales>
<clustering>
<clus scale="   32.102">  2  9  1 -1</clus>
<clus scale="   75.597">  5  6 -1 -1</clus>
<clus scale="   86.478">  2  5  1 -1</clus>
<clus scale="   91.401">  7  8 -1 -1</clus>
<clus scale="   32.102">  2  5  1 -1</clus>
</clustering>
</event>
<event>
 9    2  0.1488992E-004  0.1099741E+03  0.7546771E-02  0.1265080E+00
          2   -1    0    0  502    0 -0.00000000000E+00  0.00000000000E+00  0.17017845063E+03  0.17017845063E+03  0.00000000000E+00 0. -1.
         21   -1    0    0  501  502  0.00000000000E+00 -0.00000000000E+00 -0.49586265926E+03  0.49586265926E+03  0.00000000000E+00 0. -1.
         24    2    1    2    0    0 -0.42881420238E+02  0.38587814464E+02  0.12284349848E+03  0.15765583952E+03  0.80230935360E+02 0.  0.
         23    2    1    2    0    0  0.49886818175E+02 -0.11889028969E+03 -0.27948558722E+03  0.32110793211E+03  0.91512376156E+02 0.  0.
        -13    1    3    3    0    0 -0.43067206295E+02 -0.56193139372E+01  0.97410549948E+02  0.10665447102E+03  0.00000000000E+00 0.  1.
         14    1    3    3    0    0  0.18578605618E+00  0.44207128401E+02  0.25432948537E+02  0.51001368504E+02  0.00000000000E+00 0. -1.
        -13    1    4    4    0    0  0.19717033771E+02 -0.31983873501E+02 -0.18671644007E+03  0.19045933575E+03  0.00000000000E+00 0. -1.
         13    1    4    4    0    0  0.30169784404E+02 -0.86906416193E+02 -0.92769147156E+02  0.13064859636E+03  0.00000000000E+00 0.  1.
          1    1    1    2  501    0 -0.70053979364E+01  0.80302475230E+02 -0.16904211989E+03  0.18727733826E+03  0.00000000000E+00 0. -1.
<scales pt_clust_5="13000.00000" pt_clust_6="13000.00000" pt_clust_7="13000.00000" pt_clust_8="13000.00000" pt_clust_9="80.60746"></scales>
<clustering>
<clus scale="   80.231">  5  6 -1 -1</clus>
<clus scale="   80.607">  2  9  1 -1</clus>
<clus scale="   91.512">  7  8 -1 -1</clus>
<clus scale="  100.781">  1  5  2 -1</clus>
<clus scale="   80.607">  2  5  1 -1</clus>
</clustering>
</event>
<event>
 9    2  0.1488992E-004  0.1848658E+03  0.7546771E-02  0.1163416E+00
         21   -1    0    0  501  502  0.00000000000E+00  0.00000000000E+00  0.14991169483E+03  0.14991169483E+03  0.00000000000E+00 0. -1.
          4   -1    0    0  502    0 -0.00000000000E+00 -0.00000000000E+00 -0.34362577252E+03  0.34362577252E+03  0.00000000000E+00 0. -1.
         23    2    1    2    0    0  0.13799398157E+03  0.81812437688E+02 -0.21096619202E+03  0.28088312662E+03  0.93021410079E+02 0.  0.
         24    2    1    2    0    0 -0.11716163969E+03 -0.10207451020E+03  0.86704089768E+01  0.18235279429E+03  0.95033205491E+02 0.  0.
        -13    1    4    4    0    0 -0.30332283291E+02  0.59187670294E+01  0.28901536221E+02  0.42312858668E+02  0.00000000000E+00 0.  1.
         14    1    4    4    0    0 -0.86829356402E+02 -0.10799327723E+03 -0.20231127244E+02  0.14003993562E+03  0.00000000000E+00 0. -1.
        -13    1    3    3    0    0  0.10660018676E+03  0.83040380694E+02 -0.10726036573E+03  0.17252272517E+03  0.00000000000E+00 0. -1.
         13    1    3    3    0    0  0.31393794818E+02 -0.12279430062E+01 -0.10370582628E+03  0.10836040145E+03  0.00000000000E+00 0.  1.
          3    1    1    2  501    0 -0.20832341881E+02  0.20262072509E+02  0.85817053471E+01  0.30301546450E+02  0.00000000000E+00 0. -1.
<scales pt_clust_5="13000.00000" pt_clust_6="13000.00000" pt_clust_7="13000.00000" pt_clust_8="13000.00000" pt_clust_9="29.06094"></scales>
<clustering>
<clus scale="   29.061">  1  9  2 -1</clus>
<clus scale="   93.021">  7  8 -1 -1</clus>
<clus scale="   95.033">  5  6 -1 -1</clus>
<clus scale="  183.840">  2  7  1 -1</clus>
<clus scale="   29.061">  1  5  2 -1</clus>
</clustering>
</event>
<event>
 9    2  0.1488992E-004  0.1764252E+03  0.7546771E-02  0.1172965E+00
         21   -1    0    0  501  502  0.00000000000E+00  0.00000000000E+00  0.17720236287E+03  0.17720236287E+03  0.00000000000E+00 0.  1.
         -1   -1    0    0    0  501 -0.00000000000E+00 -0.00000000000E+00 -0.39051519504E+03  0.39051519504E+03  0.00000000000E+00 0.  1.
         24    2    1    2    0    0  0.87157880277E+02  0.89483735371E+02 -0.38972002001E+02  0.15235043050E+03  0.78025647980E+02 0.  0.
         23    2    1    2    0    0 -0.76095435109E+02 -0.19306125116E+03 -0.17947625666E+02  0.22745886818E+03  0.91390686085E+02 0.  0.
        -11    1    3    3    0    0  0.95147367387E+02  0.61913722385E+02 -0.46504313727E+02  0.12267429126E+03  0.00000000000E+00 0.  1.
         12    1    3    3    0    0 -0.79894871093E+01  0.27570012986E+02  0.75323117258E+01  0.29676139241E+02  0.00000000000E+00 0. -1.
        -11    1    4    4    0    0 -0.93771995871E+02 -0.16470480882E+03 -0.30099170411E+02  0.19190315609E+03  0.00000000000E+00 0.  1.
         11    1    4    4    0    0  0.17676560762E+02 -0.28356442341E+02  0.12151544745E+02  0.35555712091E+02  0.00000000000E+00 0. -1.
         -2    1    1    2    0  502 -0.11062445169E+02  0.10357751579E+03 -0.15639320451E+03  0.18790825923E+03  0.00000000000E+00 0.  1.
<scales pt_clust_5="13000.00000" pt_clust_6="13000.00000" pt_clust_7="13000.00000" pt_clust_8="13000.00000" pt_clust_9="104.16665"></scales>
<clustering>
<clus scale="   78.026">  5  6 -1 -1</clus>
<clus scale="   91.391">  7  8 -1 -1</clus>
<clus scale="  104.167">  1  9  2 -1</clus>
<clus scale="  169.887">  2  5  1 -1</clus>
<clus scale="  104.167">  1  5  2 -1</clus>
</clustering>
</event>
<event>
 9    2  0.1488992E-004  0.1144801E+03  0.7546771E-02  0.1263520E+00
         21   -1    0    0  501  502  0.00000000000E+00  0.00000000000E+00  0.13993064742E+03  0.13993064742E+03  0.00000000000E+00 0.  1.
          2   -1    0    0  502    0 -0.00000000000E+00 -0.00000000000E+00 -0.17508017626E+03  0.17508017626E+03  0.00000000000E+00 0. -1.
         23    2    1    2    0    0 -0.10358017169E+02  0.43634520515E+02 -0.50811439719E+02  0.12629323326E+03  0.10656884376E+03 0.  0.
         24    2    1    2    0    0  0.67690136293E+02 -0.19307593077E+01  0.40138420695E+02  0.11371575635E+03  0.82063987494E+02 0.  0.
        -11    1    4    4    0    0  0.64442738017E+02  0.38013809847E+01  0.62832576666E+02  0.90084680557E+02  0.00000000000E+00 0.  1.
         12    1    4    4    0    0  0.32473982753E+01 -0.57321402924E+01 -0.22694155970E+02  0.23631075792E+02  0.00000000000E+00 0. -1.
        -13    1    3    3    0    0  0.90265577507E+01 -0.30449318991E+02  0.41559000722E+01  0.32029849785E+02  0.00000000000E+00 0.  1.
         13    1    3    3    0    0 -0.19384574919E+02  0.74083839506E+02 -0.54967339792E+02  0.94263383477E+02  0.00000000000E+00 0. -1.
          1    1    1    2  501    0 -0.57332119124E+02 -0.41703761207E+02 -0.24476509818E+02  0.75001834077E+02  0.00000000000E+00 0. -1.
<scales pt_clust_5="13000.00000" pt_clust_6="13000.00000" pt_clust_7="13000.00000" pt_clust_8="13000.00000" pt_clust_9="70.89556"></scales>
<clustering>
<clus scale="   70.896">  1  9  2 -1</clus>
<clus scale="   82.064">  5  6 -1 -1</clus>
<clus scale="   92.105">  1  5  2 -1</clus>
<clus scale="  106.569">  7  8 -1 -1</clus>
<clus scale="   70.896">  1  5  2 -1</clus>
</clustering>
</event>
<event>
 9    2  0.1488992E-004  0.3362119E+03  0.7546771E-02  0.1068897E+00
         -1   -1    0    0    0  501 -0.00000000000E+00  0.00000000000E+00  0.70555314773E+03  0.70555314773E+03  0.00000000000E+00 0.  1.
         21   -1    0    0  501  502  0.00000000000E+00 -0.00000000000E+00 -0.38841187481E+03  0.38841187481E+03  0.00000000000E+00 0.  1.
         23    2    1    2    0    0  0.29445664252E+03 -0.15336420235E+03  0.49396057331E+03  0.60292822136E+03  0.96437022140E+02 0.  0.
         24    2    1    2    0    0 -0.25583096644E+03  0.14662213712E+03  0.45068575474E+01  0.30551975656E+03  0.79840311869E+02 0.  0.
        -11    1    4    4    0    0 -0.46160637829E+02  0.66466265675E+02  0.45338032024E+01  0.81050134664E+02  0.00000000000E+00 0.  1.
         12    1    4    4    0    0 -0.20967032861E+03  0.80155871441E+02 -0.26945654973E-01  0.22446962190E+03  0.00000000000E+00 0. -1.
        -11    1    3    3    0    0  0.72427298423E+02 -0.82484198989E+01  0.16475721908E+03  0.18016295742E+03  0.00000000000E+00 0. -1.
         11    1    3    3    0    0  0.22202934409E+03 -0.14511578245E+03  0.32920335423E+03  0.42276526394E+03  0.00000000000E+00 0.  1.
         -2    1    1    2    0  502 -0.38625676074E+02  0.67420652309E+01 -0.18132615794E+03  0.18551704463E+03  0.00000000000E+00 0.  1.
<scales pt_clust_5="13000.00000" pt_clust_6="13000.00000" pt_clust_7="13000.00000" pt_clust_8="13000.00000" pt_clust_9="39.20967"></scales>
<clustering>
<clus scale="   39.210">  2  9  1 -1</clus>
<clus scale="   79.840">  5  6 -1 -1</clus>
<clus scale="   96.437">  7  8 -1 -1</clus>
<clus scale="  331.833">  2  5  1 -1</clus>
<clus scale="   39.210">  2  5  1 -1</clus>
</clustering>
</event>
<event>
 9    2  0.1488992E-004  0.1007354E+03  0.7546771E-02  0.1289438E+00
          2   -1    0    0  502    0 -0.00000000000E+00  0.00000000000E+00  0.47602995111E+03  0.47602995111E+03  0.00000000000E+00 0. -1.
         21   -1    0    0  501  502  0.00000000000E+00 -0.00000000000E+00 -0.33673106218E+02  0.33673106218E+02  0.00000000000E+00 0.  1.
         23    2    1    2    0    0  0.21136407494E+01  0.28970919032E+02  0.33301250276E+03  0.34839015742E+03  0.98155963471E+02 0.  0.
         24    2    1    2    0    0  0.24446195521E+02 -0.52753882939E+01  0.77454500512E+02  0.11352309892E+03  0.79138158575E+02 0.  0.
        -11    1    4    4    0    0  0.11138900540E+02 -0.41378732680E+02  0.29426300734E+02  0.51982514352E+02  0.00000000000E+00 0.  1.
         12    1    4    4    0    0  0.13307294982E+02  0.36103344386E+02  0.48028199778E+02  0.61540584573E+02  0.00000000000E+00 0. -1.
        -11    1    3    3    0    0  0.42703190934E+02 -0.87242863741E+01  0.10380366569E+03  0.11258275489E+03  0.00000000000E+00 0.  1.
         11    1    3    3    0    0 -0.40589550184E+02  0.37695205406E+02  0.22920883708E+03  0.23580740253E+03  0.00000000000E+00 0. -1.
          1    1    1    2  501    0 -0.26559836271E+02 -0.23695530738E+02  0.31889841621E+02  0.47789800986E+02  0.00000000000E+00 0. -1.
<scales pt_clust_5="13000.00000" pt_clust_6="13000.00000" pt_clust_7="13000.00000" pt_clust_8="13000.00000" pt_clust_9="35.59358"></scales>
<clustering>
<clus scale="   35.594">  2  9  1 -1</clus>
<clus scale="   79.138">  5  6 -1 -1</clus>
<clus scale="   82.316">  2  5  1 -1</clus>
<clus scale="   98.156">  7  8 -1 -1</clus>
<clus scale="   35.594">  2  5  1 -1</clus>
</clustering>
</event>
<event>
 9    2  0.1488992E-004  0.1100075E+03  0.7546771E-02  0.1264553E+00
         21   -1    0    0  501  502  0.00000000000E+00  0.00000000000E+00  0.44998788791E+02  0.44998788791E+02  0.00000000000E+00 0.  1.
          2   -1    0    0  502    0 -0.00000000000E+00 -0.00000000000E+00 -0.64021225867E+03  0.64021225867E+03  0.00000000000E+00 0. -1.
         24    2    1    2    0    0 -0.54513205075E+02 -0.14319349424E+02 -0.39088250390E+03  0.40294412252E+03  0.79988128594E+02 0.  0.
         23    2    1    2    0    0  0.75024377389E+02  0.68916335292E+02 -0.13579443237E+03  0.19227361690E+03  0.90282320630E+02 0.  0.
        -13    1    3    3    0    0 -0.37977678206E+02 -0.46306871643E+02 -0.28103443871E+03  0.28734471658E+03  0.00000000000E+00 0.  1.
         14    1    3    3    0    0 -0.16535526869E+02  0.31987522219E+02 -0.10984806519E+03  0.11559940593E+03  0.00000000000E+00 0. -1.
        -11    1    4    4    0    0  0.42794442741E+02  0.80678443694E+02 -0.12774590380E+03  0.15703309060E+03  0.00000000000E+00 0. -1.
         11    1    4    4    0    0  0.32229934647E+02 -0.11762108402E+02 -0.80485285755E+01  0.35240526297E+02  0.00000000000E+00 0.  1.
          1    1    1    2  501    0 -0.20511172314E+02 -0.54596985869E+02 -0.68536533605E+02  0.89993308053E+02  0.00000000000E+00 0. -1.
<scales pt_clust_5="13000.00000" pt_clust_6="13000.00000" pt_clust_7="13000.00000" pt_clust_8="13000.00000" pt_clust_9="58.32271"></scales>
<clustering>
<clus scale="   58.323">  1  9  2 -1</clus>
<clus scale="   79.988">  5  6 -1 -1</clus>
<clus scale="   90.282">  7  8 -1 -1</clus>
<clus scale="  101.729">  2  5  1 -1</clus>
<clus scale="   58.323">  1  5  2 -1</clus>
</clustering>
</event>
<event>
 9    2  0.1488992E-004  0.3326919E+03  0.7546771E-02  0.1079819E+00
         21   -1    0    0  501  502  0.00000000000E+00  0.00000000000E+00  0.52289935056E+03  0.52289935056E+03  0.00000000000E+00 0.  1.
         -3   -1    0    0    0  501 -0.00000000000E+00 -0.00000000000E+00 -0.49974262671E+03  0.49974262671E+03  0.00000000000E+00 0.  1.
         23    2    1    2    0    0  0.11950526388E+03  0.19132427440E+03 -0.16280170284E+03  0.30201796673E+03  0.11757538734E+03 0.  0.
         24    2    1    2    0    0 -0.35543807928E+03  0.30829722708E+02  0.14810278930E+03  0.39435764529E+03  0.79352480711E+02 0.  0.
        -13    1    4    4    0    0 -0.24105682180E+03 -0.98287881697E+01  0.12132826836E+03  0.27004730163E+03  0.00000000000E+00 0.  1.
         14    1    4    4    0    0 -0.11438125748E+03  0.40658510878E+02  0.26774520938E+02  0.12431034366E+03  0.00000000000E+00 0. -1.
        -13    1    3    3    0    0  0.12763916331E+03  0.10495857635E+03 -0.86670873011E+02  0.18660090833E+03  0.00000000000E+00 0. -1.
         13    1    3    3    0    0 -0.81338994252E+01  0.86365698050E+02 -0.76130829826E+02  0.11541705840E+03  0.00000000000E+00 0.  1.
         -4    1    1    2    0  502  0.23593281540E+03 -0.22215399711E+03  0.37855637394E+02  0.32626636525E+03  0.00000000000E+00 0.  1.
<scales pt_clust_5="13000.00000" pt_clust_6="13000.00000" pt_clust_7="13000.00000" pt_clust_8="13000.00000" pt_clust_9="323.09009"></scales>
<clustering>
<clus scale="   79.352">  5  6 -1 -1</clus>
<clus scale="  117.575">  7  8 -1 -1</clus>
<clus scale="  254.383">  2  7  1 -1</clus>
<clus scale="  323.090">  1  9  2 -1</clus>
<clus scale="  323.090">  1  5  2 -1</clus>
</clustering>
</event>
<event>
 9    2  0.1488992E-004  0.2373101E+03  0.7546771E-02  0.1127414E+00
          2   -1    0    0  502    0 -0.00000000000E+00  0.00000000000E+00  0.55227487888E+03  0.55227487888E+03  0.00000000000E+00 0. -1.
         21   -1    0    0  501  502  0.00000000000E+00 -0.00000000000E+00 -0.22651261853E+03  0.22651261853E+03  0.00000000000E+00 0.  1.
         23    2    1    2    0    0 -0.16360048979E+03 -0.10171055949E+03  0.66381819145E+02  0.21588480083E+03  0.71341034099E+02 0.  0.
         24    2    1    2    0    0 -0.98914369192E+02  0.17740907768E+03  0.16537230150E+03  0.27397044297E+03  0.80335373530E+02 0.  0.
        -13    1    4    4    0    0 -0.10652327099E+03  0.18053740605E+03  0.16259054916E+03  0.26528597574E+03  0.00000000000E+00 0.  1.
         14    1    4    4    0    0  0.76089018001E+01 -0.31283283711E+01  0.27817523424E+01  0.86844672316E+01  0.00000000000E+00 0. -1.
        -11    1    3    3    0    0 -0.83575384183E+02 -0.59004002153E+02 -0.19431954518E+01  0.10232347297E+03  0.00000000000E+00 0.  1.
         11    1    3    3    0    0 -0.80025105606E+02 -0.42706557336E+02  0.68325014597E+02  0.11356132786E+03  0.00000000000E+00 0. -1.
          1    1    1    2  501    0  0.26251485898E+03 -0.75698518192E+02  0.94008139704E+02  0.28893225360E+03  0.00000000000E+00 0. -1.
<scales pt_clust_5="13000.00000" pt_clust_6="13000.00000" pt_clust_7="13000.00000" pt_clust_8="13000.00000" pt_clust_9="223.29870"></scales>
<clustering>
<clus scale="   71.341">  7  8 -1 -1</clus>
<clus scale="   80.335">  5  6 -1 -1</clus>
<clus scale="  205.426">  1  7  2 -1</clus>
<clus scale="  223.299">  2  9  1 -1</clus>
<clus scale="  223.299">  2  5  1 -1</clus>
</clustering>
</event>
<event>
 9    2  0.1488992E-004  0.1172114E+03  0.7546771E-02  0.1252110E+00
         -3   -1    0    0    0  501 -0.00000000000E+00  0.00000000000E+00  0.76532674660E+02  0.76532674660E+02  0.00000000000E+00 0.  1.
         21   -1    0    0  501  502  0.00000000000E+00 -0.00000000000E+00 -0.25785588654E+03  0.25785588654E+03  0.00000000000E+00 0.  1.
         23    2    1    2    0    0 -0.52834029200E+02  0.13235514652E+02 -0.65318885407E+02  0.12565172403E+03  0.92494245612E+02 0.  0.
         24    2    1    2    0    0  0.95378656947E+02 -0.17858217308E+02 -0.10695921095E+03  0.16499636569E+03  0.79796765339E+02 0.  0.
        -11    1    4    4    0    0  0.68153146424E+02 -0.38775301799E+02 -0.10440161032E+03  0.13056826427E+03  0.00000000000E+00 0.  1.
         12    1    4    4    0    0  0.27225510523E+02  0.20917084491E+02 -0.25576006334E+01  0.34428101426E+02  0.00000000000E+00 0. -1.
        -13    1    3    3    0    0 -0.40044414750E+02  0.48699625750E+02 -0.18836645532E+02  0.65802947622E+02  0.00000000000E+00 0.  1.
         13    1    3    3    0    0 -0.12789614450E+02 -0.35464111098E+02 -0.46482239875E+02  0.59848776408E+02  0.00000000000E+00 0. -1.
         -4    1    1    2    0  502 -0.42544627747E+02  0.46227026564E+01 -0.90451155211E+01  0.43740471474E+02  0.00000000000E+00 0.  1.
<scales pt_clust_5="13000.00000" pt_clust_6="13000.00000" pt_clust_7="13000.00000" pt_clust_8="13000.00000" pt_clust_9="42.79505"></scales>
<clustering>
<clus scale="   42.795">  2  9  1 -1</clus>
<clus scale="   79.797">  5  6 -1 -1</clus>
<clus scale="   92.494">  7  8 -1 -1</clus>
<clus scale="  107.475">  2  5  1 -1</clus>
<clus scale="   42.795">  2  5  1 -1</clus>
</clustering>
</event>
<event>
 9    2  0.1488992E-004  0.9583423E+02  0.7546771E-02  0.1300252E+00
          2   -1    0    0  502    0 -0.00000000000E+00  0.00000000000E+00  0.10094992249E+03  0.10094992249E+03  0.00000000000E+00 0. -1.
         21   -1    0    0  501  502  0.00000000000E+00 -0.00000000000E+00 -0.15634299155E+03  0.15634299155E+03  0.00000000000E+00 0. -1.
         23    2    1    2    0    0  0.16304061396E+02 -0.18999719413E+02  0.50837033126E+02  0.10846324094E+03  0.92482749433E+02 0.  0.
         24    2    1    2    0    0 -0.32147219223E+02  0.26563985516E+01 -0.75288839271E+02  0.11041780595E+03  0.74048513798E+02 0.  0.
        -11    1    4    4    0    0 -0.41834782723E+02  0.19913007053E+02 -0.17826835182E+02  0.49643458260E+02  0.00000000000E+00 0.  1.
         12    1    4    4    0    0  0.96875635005E+01 -0.17256608501E+02 -0.57462004090E+02  0.60774347693E+02  0.00000000000E+00 0. -1.
        -11    1    3    3    0    0 -0.98074023167E+01 -0.35312483051E+02  0.64963963824E+02  0.74588693481E+02  0.00000000000E+00 0. -1.
         11    1    3    3    0    0  0.26111463713E+02  0.16312763637E+02 -0.14126930698E+02  0.33874547461E+02  0.00000000000E+00 0.  1.
          1    1    1    2  501    0  0.15843157826E+02  0.16343320862E+02 -0.30941262917E+02  0.38411867145E+02  0.00000000000E+00 0. -1.
<scales pt_clust_5="13000.00000" pt_clust_6="13000.00000" pt_clust_7="13000.00000" pt_clust_8="13000.00000" pt_clust_9="22.76203"></scales>
<clustering>
<clus scale="   22.762">  2  9  1 -1</clus>
<clus scale="   74.049">  5  6 -1 -1</clus>
<clus scale="   78.194">  2  5  1 -1</clus>
<clus scale="   92.483">  7  8 -1 -1</clus>
<clus scale="   22.762">  2  5  1 -1</clus>
</clustering>
</event>
<event>
 9    2  0.1488992E-004  0.1009724E+03  0.7546771E-02  0.1284089E+00
         21   -1    0    0  501  502  0.00000000000E+00  0.00000000000E+00  0.73213259034E+02  0.73213259034E+02  0.00000000000E+00 0.  1.
          2   -1    0    0  502    0 -0.00000000000E+00 -0.00000000000E+00 -0.16932267738E+03  0.16932267738E+03  0.00000000000E+00 0. -1.
         23    2    1    2    0    0 -0.26755149756E+02 -0.39929489987E+02 -0.77505001872E+02  0.12983858040E+03  0.92416608011E+02 0.  0.
         24    2    1    2    0    0  0.21169430098E+02  0.20184441116E+02 -0.13286609189E+01  0.85873505635E+02  0.80727549178E+02 0.  0.
        -13    1    4    4    0    0  0.24610566373E+02  0.77795628150E+01  0.37185147667E+02  0.45265182888E+02  0.00000000000E+00 0.  1.
         14    1    4    4    0    0 -0.34411362752E+01  0.12404878301E+02 -0.38513808586E+02  0.40608322747E+02  0.00000000000E+00 0. -1.
        -11    1    3    3    0    0  0.29024855535E+02 -0.37337816090E+02 -0.26502362884E+02  0.54211898948E+02  0.00000000000E+00 0.  1.
         11    1    3    3    0    0 -0.55780005291E+02 -0.25916738974E+01 -0.51002638988E+02  0.75626681453E+02  0.00000000000E+00 0. -1.
          1    1    1    2  501    0  0.55857196578E+01  0.19745048871E+02 -0.17275755552E+02  0.26823850374E+02  0.00000000000E+00 0. -1.
<scales pt_clust_5="13000.00000" pt_clust_6="13000.00000" pt_clust_7="13000.00000" pt_clust_8="13000.00000" pt_clust_9="20.51993"></scales>
<clustering>
<clus scale="   20.520">  1  9  2 -1</clus>
<clus scale="   80.728">  5  6 -1 -1</clus>
<clus scale="   90.397">  1  5  2 -1</clus>
<clus scale="   92.417">  7  8 -1 -1</clus>
<clus scale="   20.520">  1  5  2 -1</clus>
</clustering>
</event>
<event>
 9    2  0.1488992E-004  0.9621677E+02  0.7546771E-02  0.1294499E+00
         21   -1    0    0  501  502  0.00000000000E+00  0.00000000000E+00  0.53448382095E+02  0.53448382095E+02  0.00000000000E+00 0. -1.
         -1   -1    0    0    0  501 -0.00000000000E+00 -0.00000000000E+00 -0.48949058822E+03  0.48949058822E+03  0.00000000000E+00 0.  1.
         23    2    1    2    0    0 -0.31034574265E+02  0.12279807396E+02 -0.22367417985E+03  0.24364833132E+03  0.90666598890E+02 0.  0.
         24    2    1    2    0    0  0.35929080499E+02  0.31541880002E+02 -0.11495733112E+02  0.93635649660E+02  0.79684967139E+02 0.  0.
        -11    1    4    4    0    0  0.16132199554E+02 -0.22099722004E+02 -0.22480249640E+02  0.35411964065E+02  0.00000000000E+00 0.  1.
         12    1    4    4    0    0  0.19796880945E+02  0.53641602006E+02  0.10984516528E+02  0.58223685594E+02  0.00000000000E+00 0. -1.
        -13    1    3    3    0    0  0.12062014363E+02 -0.27530428302E+02 -0.12746843307E+03  0.13096418634E+03  0.00000000000E+00 0. -1.
         13    1    3    3    0    0 -0.43096588628E+02  0.39810235698E+02 -0.96205746779E+02  0.11268414498E+03  0.00000000000E+00 0.  1.
         -2    1    1    2    0  502 -0.48945062335E+01 -0.43821687397E+02 -0.20087229316E+03  0.20565498933E+03  0.00000000000E+00 0.  1.
<scales pt_clust_5="13000.00000" pt_clust_6="13000.00000" pt_clust_7="13000.00000" pt_clust_8="13000.00000" pt_clust_9="44.09420"></scales>
<clustering>
<clus scale="   44.094">  1  9  2 -1</clus>
<clus scale="   79.685">  5  6 -1 -1</clus>
<clus scale="   85.947">  1  5  2 -1</clus>
<clus scale="   90.667">  7  8 -1 -1</clus>
<clus scale="   44.094">  1  5  2 -1</clus>
</clustering>
</event>
<event>
 9    2  0.1488992E-004  0.2100700E+03  0.7546771E-02  0.1142032E+00
          2   -1    0    0  502    0 -0.00000000000E+00  0.00000000000E+00  0.10364323886E+03  0.10364323886E+03  0.00000000000E+00 0. -1.
         21   -1    0    0  501  502  0.00000000000E+00 -0.00000000000E+00 -0.67862882151E+03  0.67862882151E+03  0.00000000000E+00 0.  1.
         24    2    1    2    0    0  0.70194686554E+02  0.17894049027E+03 -0.75958669109E+02  0.22207835183E+03  0.81253196013E+02 0.  0.
         23    2    1    2    0    0 -0.96519504483E+02 -0.16282357291E+03 -0.34554097431E+03  0.40363482311E+03  0.87721005800E+02 0.  0.
        -13    1    3    3    0    0  0.81994738081E+02  0.11318909284E+03 -0.65897433262E+02  0.15452307116E+03  0.00000000000E+00 0.  1.
         14    1    3    3    0    0 -0.11800051527E+02  0.65751397426E+02 -0.10061235846E+02  0.67555280669E+02  0.00000000000E+00 0. -1.
        -13    1    4    4    0    0  0.15633242142E+02 -0.35887761189E+02 -0.69628418263E+02  0.79877695841E+02  0.00000000000E+00 0. -1.
         13    1    4    4    0    0 -0.11215274663E+03 -0.12693581172E+03 -0.27591255605E+03  0.32375712727E+03  0.00000000000E+00 0.  1.
          1    1    1    2  501    0  0.26324817930E+02 -0.16116917352E+02 -0.15348593923E+03  0.15655888543E+03  0.00000000000E+00 0. -1.
<scales pt_clust_5="13000.00000" pt_clust_6="13000.00000" pt_clust_7="13000.00000" pt_clust_8="13000.00000" pt_clust_9="30.86667"></scales>
<clustering>
<clus scale="   30.867">  2  9  1 -1</clus>
<clus scale="   81.253">  5  6 -1 -1</clus>
<clus scale="   87.721">  7  8 -1 -1</clus>
<clus scale="  207.452">  1  5  2 -1</clus>
<clus scale="   30.867">  2  5  1 -1</clus>
</clustering>
</event>
<event>
 9    2  0.1488992E-004  0.9714142E+02  0.7546771E-02  0.1294533E+00
          2   -1    0    0  502    0 -0.00000000000E+00  0.00000000000E+00  0.93852788772E+03  0.93852788772E+03  0.00000000000E+00 0. -1.
         21   -1    0    0  501  502  0.00000000000E+00 -0.00000000000E+00 -0.19629634255E+02  0.19629634255E+02  0.00000000000E+00 0. -1.
         24    2    1    2    0    0 -0.10151767909E+00  0.10507181677E+02  0.31092544010E+03  0.32049863325E+03  0.77034624958E+02 0.  0.
         23    2    1    2    0    0  0.64072704981E+02 -0.41810092964E+02  0.42009488882E+03  0.43673527241E+03  0.91676535490E+02 0.  0.
        -11    1    3    3    0    0 -0.16385255640E+02 -0.17166749127E+02  0.32576844172E+02  0.40304151823E+02  0.00000000000E+00 0.  1.
         12    1    3    3    0    0  0.16283737960E+02  0.27673930804E+02  0.27834859593E+03  0.28019448143E+03  0.00000000000E+00 0. -1.
        -13    1    4    4    0    0  0.21301550651E+02  0.20156729528E+02  0.42058157419E+02  0.51273174378E+02  0.00000000000E+00 0.  1.
         13    1    4    4    0    0  0.42771154330E+02 -0.61966822492E+02  0.37803673140E+03  0.38546209803E+03  0.00000000000E+00 0. -1.
          1    1    1    2  501    0 -0.63971187301E+02  0.31302911287E+02  0.18787792455E+03  0.20092361631E+03  0.00000000000E+00 0. -1.
<scales pt_clust_5="13000.00000" pt_clust_6="13000.00000" pt_clust_7="13000.00000" pt_clust_8="13000.00000" pt_clust_9="71.21927"></scales>
<clustering>
<clus scale="   71.219">  2  9  1 -1</clus>
<clus scale="   77.035">  5  6 -1 -1</clus>
<clus scale="   83.464">  1  5  2 -1</clus>
<clus scale="   91.677">  7  8 -1 -1</clus>
<clus scale="   71.219">  2  5  1 -1</clus>
</clustering>
</event>
<event>
 9    2  0.1488992E-004  0.9547651E+02  0.7546771E-02  0.1295414E+00
          2   -1    0    0  502    0 -0.00000000000E+00  0.00000000000E+00  0.24725984849E+03  0.24725984849E+03  0.00000000000E+00 0. -1.
         21   -1    0    0  501  502  0.00000000000E+00 -0.00000000000E+00 -0.10063893713E+03  0.10063893713E+03  0.00000000000E+00 0. -1.
         23    2    1    2    0    0  0.42981431217E+01 -0.29931967532E+02  0.18964578798E+03  0.21191391104E+03  0.89596786107E+02 0.  0.
         24    2    1    2    0    0  0.14265007725E+02  0.53106761904E+02 -0.43394657785E+02  0.10628978405E+03  0.79941248821E+02 0.  0.
        -13    1    4    4    0    0  0.29361073628E+02 -0.10815086576E+02 -0.15731141504E+02  0.35021529881E+02  0.00000000000E+00 0.  1.
         14    1    4    4    0    0 -0.15096065902E+02  0.63921848479E+02 -0.27663516282E+02  0.71268254166E+02  0.00000000000E+00 0. -1.
        -11    1    3    3    0    0 -0.29413881500E+02 -0.46469973333E+02  0.13332988455E+03  0.14422722684E+03  0.00000000000E+00 0.  1.
         11    1    3    3    0    0  0.33712024622E+02  0.16538005802E+02  0.56315903428E+02  0.67686684206E+02  0.00000000000E+00 0. -1.
          1    1    1    2  501    0 -0.18563150847E+02 -0.23174794372E+02  0.36978117220E+00  0.29695090531E+02  0.00000000000E+00 0. -1.
<scales pt_clust_5="13000.00000" pt_clust_6="13000.00000" pt_clust_7="13000.00000" pt_clust_8="13000.00000" pt_clust_9="29.69279"></scales>
<clustering>
<clus scale="   29.693">  2  9  1 -1</clus>
<clus scale="   79.941">  5  6 -1 -1</clus>
<clus scale="   86.480">  2  5  1 -1</clus>
<clus scale="   89.597">  7  8 -1 -1</clus>
<clus scale="   29.693">  2  5  1 -1</clus>
</clustering>
</event>
<event>
 9    2  0.1488992E-004  0.9260092E+02  0.7546771E-02  0.1300518E+00
         -1   -1    0    0    0  501 -0.00000000000E+00  0.00000000000E+00  0.75711555688E+02  0.75711555688E+02  0.00000000000E+00 0.  1.
         21   -1    0    0  501  502  0.00000000000E+00 -0.00000000000E+00 -0.34136955921E+03  0.34136955921E+03  0.00000000000E+00 0.  1.
         23    2    1    2    0    0  0.66528149825E+01  0.24990888354E+02  0.38989919694E+01  0.90045912108E+02  0.86164143940E+02 0.  0.
         24    2    1    2    0    0  0.32116741754E+02 -0.52839667195E+02 -0.71703025407E+02  0.12350430467E+03  0.79299898417E+02 0.  0.
        -11    1    4    4    0    0  0.58643495209E+02 -0.31966103936E+02 -0.48596276940E+02  0.82598362354E+02  0.00000000000E+00 0.  1.
         12    1    4    4    0    0 -0.26526753454E+02 -0.20873563258E+02 -0.23106748467E+02  0.40905942315E+02  0.00000000000E+00 0. -1.
        -13    1    3    3    0    0 -0.20827107119E+02 -0.24093159025E+02  0.10200922527E+02  0.33441105292E+02  0.00000000000E+00 0. -1.
         13    1    3    3    0    0  0.27479922102E+02  0.49084047379E+02 -0.63019305577E+01  0.56604806815E+02  0.00000000000E+00 0.  1.
         -2    1    1    2    0  502 -0.38769556737E+02  0.27848778841E+02 -0.19785397009E+03  0.20353089813E+03  0.00000000000E+00 0.  1.
<scales pt_clust_5="13000.00000" pt_clust_6="13000.00000" pt_clust_7="13000.00000" pt_clust_8="13000.00000" pt_clust_9="47.73503"></scales>
<clustering>
<clus scale="   47.735">  2  9  1 -1</clus>
<clus scale="   79.300">  5  6 -1 -1</clus>
<clus scale="   86.164">  7  8 -1 -1</clus>
<clus scale="   86.250">  2  5  1 -1</clus>
<clus scale="   47.735">  2  5  1 -1</clus>
</clustering>
</event>
<event>
 9    2  0.1488992E-004  0.3281274E+03  0.7546771E-02  0.1104112E+00
         21   -1    0    0  501  502  0.00000000000E+00  0.00000000000E+00  0.88443975393E+02  0.88443975393E+02  0.00000000000E+00 0. -1.
          2   -1    0    0  502    0 -0.00000000000E+00 -0.00000000000E+00 -0.21189812409E+04  0.21189812409E+04  0.00000000000E+00 0. -1.
         24    2    1    2    0    0 -0.11270539733E+03  0.84886010258E+01 -0.36118405303E+03  0.38730247360E+03  0.82308705226E+02 0.  0.
         23    2    1    2    0    0 -0.42354350883E+02 -0.29577286233E+03 -0.12512695595E+04  0.12896798022E+04  0.91230501249E+02 0.  0.
        -11    1    3    3    0    0 -0.73660711843E+02  0.43436045399E+02 -0.25372706321E+03  0.26774990777E+03  0.00000000000E+00 0.  1.
         12    1    3    3    0    0 -0.39044685483E+02 -0.34947444374E+02 -0.10745698982E+03  0.11955256582E+03  0.00000000000E+00 0. -1.
        -11    1    4    4    0    0  0.21330050383E+02 -0.10343721464E+03 -0.33395621351E+03  0.35025844881E+03  0.00000000000E+00 0.  1.
         11    1    4    4    0    0 -0.63684401266E+02 -0.19233564769E+03 -0.91731334603E+03  0.93942135336E+03  0.00000000000E+00 0. -1.
          1    1    1    2  501    0  0.15505974821E+03  0.28728426130E+03 -0.41808365294E+03  0.53044294054E+03  0.00000000000E+00 0. -1.
<scales pt_clust_5="13000.00000" pt_clust_6="13000.00000" pt_clust_7="13000.00000" pt_clust_8="13000.00000" pt_clust_9="315.18974"></scales>
<clustering>
<clus scale="   82.309">  5  6 -1 -1</clus>
<clus scale="   91.231">  7  8 -1 -1</clus>
<clus scale="  139.819">  2  5  1 -1</clus>
<clus scale="  315.190">  1  9  2 -1</clus>
<clus scale="  315.190">  1  5  2 -1</clus>
</clustering>
</event>
<event>
 9    2  0.1488992E-004  0.9573845E+02  0.7546771E-02  0.1295066E+00
         21   -1    0    0  501  502  0.00000000000E+00  0.00000000000E+00  0.25925099167E+02  0.25925099167E+02  0.00000000000E+00 0.  1.
          2   -1    0    0  502    0 -0.00000000000E+00 -0.00000000000E+00 -0.10973207317E+04  0.10973207317E+04  0.00000000000E+00 0. -1.
         23    2    1    2    0    0  0.21874911677E+02 -0.57635090445E+01 -0.37258641727E+03  0.38446417031E+03  0.92088707899E+02 0.  0.
         24    2    1    2    0    0 -0.25570944127E+02 -0.67744668138E+02 -0.15394454380E+03  0.18896839864E+03  0.82261290254E+02 0.  0.
        -13    1    4    4    0    0 -0.54160290270E+02 -0.55060039138E+02 -0.12094800010E+03  0.14350388037E+03  0.00000000000E+00 0.  1.
         14    1    4    4    0    0  0.28589346143E+02 -0.12684629000E+02 -0.32996543701E+02  0.45464518275E+02  0.00000000000E+00 0. -1.
        -11    1    3    3    0    0 -0.23018944835E+02 -0.33058340449E+02 -0.20169655496E+03  0.20567991146E+03  0.00000000000E+00 0.  1.
         11    1    3    3    0    0  0.44893856512E+02  0.27294831404E+02 -0.17088986231E+03  0.17878425885E+03  0.00000000000E+00 0. -1.
          1    1    1    2  501    0  0.36960324504E+01  0.73508177183E+02 -0.54486467149E+03  0.54981326194E+03  0.00000000000E+00 0. -1.
<scales pt_clust_5="13000.00000" pt_clust_6="13000.00000" pt_clust_7="13000.00000" pt_clust_8="13000.00000" pt_clust_9="73.60107"></scales>
<clustering>
<clus scale="   73.601">  1  9  2 -1</clus>
<clus scale="   82.261">  5  6 -1 -1</clus>
<clus scale="   86.328">  1  5  2 -1</clus>
<clus scale="   92.089">  7  8 -1 -1</clus>
<clus scale="   73.601">  1  5  2 -1</clus>
</clustering>
</event>
<event>
 9    2  0.1488992E-004  0.1676869E+03  0.7546771E-02  0.1211162E+00
          2   -1    0    0  502    0 -0.00000000000E+00  0.00000000000E+00  0.54270363788E+03  0.54270363788E+03  0.00000000000E+00 0. -1.
         21   -1    0    0  501  502  0.00000000000E+00 -0.00000000000E+00 -0.79987099679E+02  0.79987099679E+02  0.00000000000E+00 0. -1.
         24    2    1    2    0    0 -0.59571785819E+01  0.25750128134E+02  0.29883959945E+02  0.90399440331E+02  0.81119977037E+02 0.  0.
         23    2    1    2    0    0 -0.72846816803E+02 -0.12880072729E+03  0.20208985769E+03  0.26758070286E+03  0.94142635895E+02 0.  0.
        -11    1    3    3    0    0 -0.32742827660E+02  0.23638704787E+02  0.44269357196E+02  0.59922092034E+02  0.00000000000E+00 0.  1.
         12    1    3    3    0    0  0.26785649078E+02  0.21114233469E+01 -0.14385397251E+02  0.30477348296E+02  0.00000000000E+00 0. -1.
        -13    1    4    4    0    0  0.11124713762E+02 -0.26353650928E+02  0.34332379322E+01  0.28810784373E+02  0.00000000000E+00 0.  1.
         13    1    4    4    0    0 -0.83971530565E+02 -0.10244707636E+03  0.19865661976E+03  0.23876991849E+03  0.00000000000E+00 0. -1.
          1    1    1    2  501    0  0.78803995385E+02  0.10305059916E+03  0.23074272056E+03  0.26471059436E+03  0.00000000000E+00 0. -1.
<scales pt_clust_5="13000.00000" pt_clust_6="13000.00000" pt_clust_7="13000.00000" pt_clust_8="13000.00000" pt_clust_9="138.76626"></scales>
<clustering>
<clus scale="   81.120">  5  6 -1 -1</clus>
<clus scale="   85.317">  1  5  2 -1</clus>
<clus scale="   94.143">  7  8 -1 -1</clus>
<clus scale="  138.766">  2  9  1 -1</clus>
<clus scale="  138.766">  2  5  1 -1</clus>
</clustering>
</event>
<event>
 9    2  0.1488992E-004  0.1036926E+03  0.7546771E-02  0.1281361E+00
         21   -1    0    0  501  502  0.00000000000E+00  0.00000000000E+00  0.81936742817E+03  0.81936742817E+03  0.00000000000E+00 0.  1.
         -3   -1    0    0    0  501 -0.00000000000E+00 -0.00000000000E+00 -0.35426328747E+02  0.35426328747E+02  0.00000000000E+00 0.  1.
         23    2    1    2    0    0 -0.25262196854E+02  0.27751750859E+02  0.87495070607E+02  0.13036731544E+03  0.89061278277E+02 0.  0.
         24    2    1    2    0    0  0.55465391290E+02 -0.79857395568E+02  0.29373756169E+03  0.31723933380E+03  0.70038750024E+02 0.  0.
        -11    1    4    4    0    0  0.65612277641E+02 -0.40405779908E+02  0.21838583151E+03  0.23158145312E+03  0.00000000000E+00 0.  1.
         12    1    4    4    0    0 -0.10146886350E+02 -0.39451615659E+02  0.75351730179E+02  0.85657880675E+02  0.00000000000E+00 0. -1.
        -11    1    3    3    0    0  0.79860416723E+01 -0.19825564051E+02 -0.42605774882E+01  0.21794090301E+02  0.00000000000E+00 0.  1.
         11    1    3    3    0    0 -0.33248238526E+02  0.47577314910E+02  0.91755648096E+02  0.10857322514E+03  0.00000000000E+00 0. -1.
         -4    1    1    2    0  502 -0.30203194436E+02  0.52105644709E+02  0.40270846713E+03  0.40718710768E+03  0.00000000000E+00 0.  1.
<scales pt_clust_5="13000.00000" pt_clust_6="13000.00000" pt_clust_7="13000.00000" pt_clust_8="13000.00000" pt_clust_9="60.22650"></scales>
<clustering>
<clus scale="   60.226">  1  9  2 -1</clus>
<clus scale="   70.039">  5  6 -1 -1</clus>
<clus scale="   87.896">  1  5  2 -1</clus>
<clus scale="   89.061">  7  8 -1 -1</clus>
<clus scale="   60.226">  1  5  2 -1</clus>
</clustering>
</event>
<event>
 9    2  0.1488992E-004  0.1070578E+03  0.7546771E-02  0.1269637E+00
          2   -1    0    0  502    0 -0.00000000000E+00  0.00000000000E+00  0.16103480385E+03  0.16103480385E+03  0.00000000000E+00 0. -1.
         21   -1    0    0  501  502  0.00000000000E+00 -0.00000000000E+00 -0.33528849812E+03  0.33528849812E+03  0.00000000000E+00 0. -1.
         23    2    1    2    0    0 -0.17675830249E+02  0.60004527608E+02  0.12667544640E+03  0.16684502941E+03  0.88755939577E+02 0.  0.
         24    2    1    2    0    0  0.14052850843E+02 -0.37523099639E+02 -0.13505658588E+03  0.16204994457E+03  0.80090183688E+02 0.  0.
        -13    1    4    4    0    0  0.34006985345E+02 -0.49888109691E+02 -0.67657777334E+02  0.90680060512E+02  0.00000000000E+00 0.  1.
         14    1    4    4    0    0 -0.19954134502E+02  0.12365010053E+02 -0.67398808548E+02  0.71369884062E+02  0.00000000000E+00 0. -1.
        -13    1    3    3    0    0  0.26331643377E+01  0.53564273376E+02  0.13398587071E+03  0.14432005573E+03  0.00000000000E+00 0. -1.
         13    1    3    3    0    0 -0.20308994587E+02  0.64402542320E+01 -0.73104243096E+01  0.22524973680E+02  0.00000000000E+00 0.  1.
          1    1    1    2  501    0  0.36229794056E+01 -0.22481427969E+02 -0.16587255478E+03  0.16742832799E+03  0.00000000000E+00 0. -1.
<scales pt_clust_5="13000.00000" pt_clust_6="13000.00000" pt_clust_7="13000.00000" pt_clust_8="13000.00000" pt_clust_9="22.77149"></scales>
<clustering>
<clus scale="   22.771">  2  9  1 -1</clus>
<clus scale="   80.090">  5  6 -1 -1</clus>
<clus scale="   88.756">  7  8 -1 -1</clus>
<clus scale="   99.991">  2  5  1 -1</clus>
<clus scale="   22.771">  2  5  1 -1</clus>
</clustering>
</event>
<event>
 9    2  0.1488992E-004  0.1692291E+03  0.7546771E-02  0.1180222E+00
          2   -1    0    0  502    0 -0.00000000000E+00  0.00000000000E+00  0.13409113979E+04  0.13409113979E+04  0.00000000000E+00 0. -1.
         21   -1    0    0  501  502  0.00000000000E+00 -0.00000000000E+00 -0.39452355654E+02  0.39452355654E+02  0.00000000000E+00 0. -1.
         24    2    1    2    0    0  0.70961001487E+02  0.82147520994E+02  0.30805628369E+03  0.33638595947E+03  0.80455956125E+02 0.  0.
         23    2    1    2    0    0 -0.16066532473E+03 -0.10854809516E+03  0.54035533490E+03  0.58138096745E+03  0.91781838199E+02 0.  0.
        -13    1    3    3    0    0  0.82603214235E+02  0.41418852085E+02  0.22220261622E+03  0.24065081543E+03  0.00000000000E+00 0.  1.
         14    1    3    3    0    0 -0.11642212748E+02  0.40728668910E+02  0.85853667463E+02  0.95735144047E+02  0.00000000000E+00 0. -1.
        -13    1    4    4    0    0 -0.13912442180E+03 -0.76677697130E+02  0.31524682479E+03  0.35300939721E+03  0.00000000000E+00 0. -1.
         13    1    4    4    0    0 -0.21540902931E+02 -0.31870398029E+02  0.22510851011E+03  0.22837157024E+03  0.00000000000E+00 0.  1.
          1    1    1    2  501    0  0.89704323240E+02  0.26400574164E+02  0.45304742368E+03  0.46259682665E+03  0.00000000000E+00 0. -1.
<scales pt_clust_5="13000.00000" pt_clust_6="13000.00000" pt_clust_7="13000.00000" pt_clust_8="13000.00000" pt_clust_9="93.50863"></scales>
<clustering>
<clus scale="   80.456">  5  6 -1 -1</clus>
<clus scale="   91.782">  7  8 -1 -1</clus>
<clus scale="   93.509">  2  9  1 -1</clus>
<clus scale="  163.364">  1  5  2 -1</clus>
<clus scale="   93.509">  2  5  1 -1</clus>
</clustering>
</event>
<event>
 9    2  0.1488992E-004  0.1558545E+03  0.7546771E-02  0.1210861E+00
         21   -1    0    0  501  502  0.00000000000E+00  0.00000000000E+00  0.86760909199E+02  0.86760909199E+02  0.00000000000E+00 0.  1.
         -1   -1    0    0    0  501 -0.00000000000E+00 -0.00000000000E+00 -0.60753624064E+03  0.60753624064E+03  0.00000000000E+00 0.  1.
         24    2    1    2    0    0  0.64448057786E+02 -0.29048409915E+02 -0.71532647094E+02  0.12866322665E+03  0.80249261805E+02 0.  0.
         23    2    1    2    0    0 -0.10395514900E+03 -0.92385760451E+02 -0.39207224778E+03  0.42572135475E+03  0.90422467774E+02 0.  0.
        -13    1    3    3    0    0  0.65107446283E+02 -0.25855758008E+02 -0.87658067213E+02  0.11221157040E+03  0.00000000000E+00 0.  1.
         14    1    3    3    0    0 -0.65938849753E+00 -0.31926519069E+01  0.16125420118E+02  0.16451656250E+02  0.00000000000E+00 0. -1.
        -11    1    4    4    0    0 -0.56535568086E+01 -0.44355773719E+02 -0.19749989767E+03  0.20249841221E+03  0.00000000000E+00 0.  1.
         11    1    4    4    0    0 -0.98301592191E+02 -0.48029986732E+02 -0.19457235011E+03  0.22322294255E+03  0.00000000000E+00 0. -1.
         -2    1    1    2    0  502  0.39507091214E+02  0.12143417037E+03 -0.57170436566E+02  0.13991256843E+03  0.00000000000E+00 0.  1.
<scales pt_clust_5="13000.00000" pt_clust_6="13000.00000" pt_clust_7="13000.00000" pt_clust_8="13000.00000" pt_clust_9="126.94248"></scales>
<clustering>
<clus scale="   80.249">  5  6 -1 -1</clus>
<clus scale="   90.422">  7  8 -1 -1</clus>
<clus scale="  106.945">  2  5  1 -1</clus>
<clus scale="  126.942">  1  9  2 -1</clus>
<clus scale="  126.942">  1  5  2 -1</clus>
</clustering>
</event>
<event>
 9    2  0.1488992E-004  0.1476755E+03  0.7546771E-02  0.1225878E+00
         21   -1    0    0  501  502  0.00000000000E+00  0.00000000000E+00  0.73208280410E+02  0.73208280410E+02  0.00000000000E+00 0. -1.
          2   -1    0    0  502    0 -0.00000000000E+00 -0.00000000000E+00 -0.57440255946E+03  0.57440255946E+03  0.00000000000E+00 0. -1.
         24    2    1    2    0    0 -0.52435833158E+02  0.30184487298E+02 -0.16299888140E+03  0.18699276164E+03  0.68826141068E+02 0.  0.
         23    2    1    2    0    0 -0.17871748986E+02 -0.12080630356E+03 -0.66731605277E+02  0.16591812869E+03  0.90344650607E+02 0.  0.
        -11    1    3    3    0    0 -0.24968584354E+02 -0.14729025812E+02 -0.10379241116E+03  0.10776473923E+03  0.00000000000E+00 0.  1.
         12    1    3    3    0    0 -0.27467248804E+02  0.44913513110E+02 -0.59206470240E+02  0.79228022411E+02  0.00000000000E+00 0. -1.
        -13    1    4    4    0    0  0.60944715571E+01 -0.60815292964E+02 -0.79284929561E+02  0.10010865346E+03  0.00000000000E+00 0. -1.
         13    1    4    4    0    0 -0.23966220543E+02 -0.59991010599E+02  0.12553324284E+02  0.65809475232E+02  0.00000000000E+00 0.  1.
          1    1    1    2  501    0  0.70307582144E+02  0.90621816265E+02 -0.27146379237E+03  0.29469994954E+03  0.00000000000E+00 0. -1.
<scales pt_clust_5="13000.00000" pt_clust_6="13000.00000" pt_clust_7="13000.00000" pt_clust_8="13000.00000" pt_clust_9="116.81572"></scales>
<clustering>
<clus scale="   68.826">  5  6 -1 -1</clus>
<clus scale="   90.345">  7  8 -1 -1</clus>
<clus scale="   91.639">  2  5  1 -1</clus>
<clus scale="  116.816">  1  9  2 -1</clus>
<clus scale="  116.816">  1  5  2 -1</clus>
</clustering>
</event>
<event>
 9    2  0.1488992E-004  0.1043209E+03  0.7546771E-02  0.1275916E+00
         21   -1    0    0  501  502  0.00000000000E+00  0.00000000000E+00  0.94227610720E+02  0.94227610720E+02  0.00000000000E+00 0. -1.
          2   -1    0    0  502    0 -0.00000000000E+00 -0.00000000000E+00 -0.17142932786E+03  0.17142932786E+03  0.00000000000E+00 0. -1.
         23    2    1    2    0    0  0.18080355266E+02 -0.56569678530E+02 -0.46254375214E+02  0.11710759612E+03  0.89708940843E+02 0.  0.
         24    2    1    2    0    0 -0.14770405187E+01  0.44524477295E+02  0.20216789516E+02  0.93426522507E+02  0.79593880432E+02 0.  0.
        -13    1    4    4    0    0  0.37673105384E+02  0.23993627304E+02 -0.35752671623E+00  0.44666372651E+02  0.00000000000E+00 0.  1.
         14    1    4    4    0    0 -0.39150145902E+02  0.20530849990E+02  0.20574316232E+02  0.48760149855E+02  0.00000000000E+00 0. -1.
        -11    1    3    3    0    0  0.17958041005E+02 -0.91402005130E+01  0.24627746044E+02  0.31820753878E+02  0.00000000000E+00 0.  1.
         11    1    3    3    0    0  0.12231426025E+00 -0.47429478017E+02 -0.70882121258E+02  0.85286842243E+02  0.00000000000E+00 0. -1.
          1    1    1    2  501    0 -0.16603314747E+02  0.12045201235E+02 -0.51164131445E+02  0.55122819957E+02  0.00000000000E+00 0. -1.
<scales pt_clust_5="13000.00000" pt_clust_6="13000.00000" pt_clust_7="13000.00000" pt_clust_8="13000.00000" pt_clust_9="20.51237"></scales>
<clustering>
<clus scale="   20.512">  1  9  2 -1</clus>
<clus scale="   79.594">  5  6 -1 -1</clus>
<clus scale="   89.709">  7  8 -1 -1</clus>
<clus scale="   95.762">  1  5  2 -1</clus>
<clus scale="   20.512">  1  5  2 -1</clus>
</clustering>
</event>
<event>
 9    2  0.1488992E-004  0.9729960E+02  0.7546771E-02  0.1290274E+00
         21   -1    0    0  501  502  0.00000000000E+00  0.00000000000E+00  0.84479089383E+02  0.84479089383E+02  0.00000000000E+00 0. -1.
         -1   -1    0    0    0  501 -0.00000000000E+00 -0.00000000000E+00 -0.16521302557E+03  0.16521302557E+03  0.00000000000E+00 0.  1.
         24    2    1    2    0    0  0.27786214050E+01  0.21719501370E+02 -0.64061495642E+02  0.10791352162E+03  0.84035679616E+02 0.  0.
         23    2    1    2    0    0 -0.14625892459E+02 -0.48168789375E+02 -0.31261060991E+02  0.10933247624E+03  0.91881376931E+02 0.  0.
        -11    1    3    3    0    0  0.27115247230E+02  0.38334047328E+02 -0.12605265013E+02  0.48617162843E+02  0.00000000000E+00 0.  1.
         12    1    3    3    0    0 -0.24336625825E+02 -0.16614545958E+02 -0.51456230630E+02  0.59296358780E+02  0.00000000000E+00 0. -1.
        -13    1    4    4    0    0  0.21173922073E+02 -0.44545557142E+02 -0.48729235730E+02  0.69333830501E+02  0.00000000000E+00 0.  1.
         13    1    4    4    0    0 -0.35799814533E+02 -0.36232322331E+01  0.17468174739E+02  0.39998645741E+02  0.00000000000E+00 0. -1.
         -2    1    1    2    0  502  0.11847271054E+02  0.26449288005E+02  0.14588620449E+02  0.32446117087E+02  0.00000000000E+00 0.  1.
<scales pt_clust_5="13000.00000" pt_clust_6="13000.00000" pt_clust_7="13000.00000" pt_clust_8="13000.00000" pt_clust_9="28.98142"></scales>
<clustering>
<clus scale="   28.981">  1  9  2 -1</clus>
<clus scale="   84.036">  5  6 -1 -1</clus>
<clus scale="   89.928">  2  5  1 -1</clus>
<clus scale="   91.881">  7  8 -1 -1</clus>
<clus scale="   28.981">  1  5  2 -1</clus>
</clustering>
</event>
<event>
 9    2  0.1488992E-004  0.1565894E+03  0.7546771E-02  0.1194426E+00
          2   -1    0    0  502    0 -0.00000000000E+00  0.00000000000E+00  0.84138095948E+03  0.84138095948E+03  0.00000000000E+00 0. -1.
         21   -1    0    0  501  502  0.00000000000E+00 -0.00000000000E+00 -0.72497899206E+02  0.72497899206E+02  0.00000000000E+00 0. -1.
         23    2    1    2    0    0 -0.65018320511E+02  0.12579578143E+03  0.50115252439E+03  0.52871480086E+03  0.91288155382E+02 0.  0.
         24    2    1    2    0    0  0.12755834916E+03 -0.21105660585E+02  0.12139331226E+03  0.19467558153E+03  0.80284895423E+02 0.  0.
        -11    1    4    4    0    0  0.58676163686E+02 -0.39461481393E+02  0.95507646650E+02  0.11883522738E+03  0.00000000000E+00 0.  1.
         12    1    4    4    0    0  0.68882185472E+02  0.18355820807E+02  0.25885665615E+02  0.75840354148E+02  0.00000000000E+00 0. -1.
        -11    1    3    3    0    0  0.14267180239E+02  0.32458268829E+02  0.50400652705E+02  0.61622377757E+02  0.00000000000E+00 0.  1.
         11    1    3    3    0    0 -0.79285500750E+02  0.93337512600E+02  0.45075187169E+03  0.46709242310E+03  0.00000000000E+00 0. -1.
          1    1    1    2  501    0 -0.62540028648E+02 -0.10469012084E+03  0.14633722361E+03  0.19048847629E+03  0.00000000000E+00 0. -1.
<scales pt_clust_5="13000.00000" pt_clust_6="13000.00000" pt_clust_7="13000.00000" pt_clust_8="13000.00000" pt_clust_9="121.94784"></scales>
<clustering>
<clus scale="   80.285">  5  6 -1 -1</clus>
<clus scale="   91.288">  7  8 -1 -1</clus>
<clus scale="  121.948">  2  9  1 -1</clus>
<clus scale="  150.441">  2  5  1 -1</clus>
<clus scale="  121.948">  2  5  1 -1</clus>
</clustering>
</event>
<event>
 9    2  0.1488992E-004  0.2641267E+03  0.7546771E-02  0.1117642E+00
         21   -1    0    0  501  502  0.00000000000E+00  0.00000000000E+00  0.12762332474E+03  0.12762332474E+03  0.00000000000E+00 0.  1.
         -1   -1    0    0    0  501 -0.00000000000E+00 -0.00000000000E+00 -0.13563088226E+04  0.13563088226E+04  0.00000000000E+00 0.  1.
         24    2    1    2    0    0  0.12469909207E+03 -0.11973040238E+03 -0.67261938046E+02  0.20158510949E+03  0.78912326283E+02 0.  0.
         23    2    1    2    0    0  0.79528045375E+02  0.26497729902E+03 -0.67201192648E+03  0.73250239480E+03  0.91771727990E+02 0.  0.
        -13    1    3    3    0    0  0.10847162782E+03 -0.11715303367E+03 -0.82024617922E+02  0.17949642137E+03  0.00000000000E+00 0.  1.
         14    1    3    3    0    0  0.16227464249E+02 -0.25773687084E+01  0.14762679875E+02  0.22088688112E+02  0.00000000000E+00 0. -1.
        -13    1    4    4    0    0  0.95544785987E+02  0.18158868732E+03 -0.44163912374E+03  0.48697882203E+03  0.00000000000E+00 0.  1.
         13    1    4    4    0    0 -0.16016740612E+02  0.83388611699E+02 -0.23037280274E+03  0.24552357276E+03  0.00000000000E+00 0. -1.
         -2    1    1    2    0  502 -0.20422713744E+03 -0.14524689664E+03 -0.48941163338E+03  0.54984464309E+03  0.00000000000E+00 0.  1.
<scales pt_clust_5="13000.00000" pt_clust_6="13000.00000" pt_clust_7="13000.00000" pt_clust_8="13000.00000" pt_clust_9="247.67092"></scales>
<clustering>
<clus scale="   78.912">  5  6 -1 -1</clus>
<clus scale="   91.772">  7  8 -1 -1</clus>
<clus scale="  190.033">  2  5  1 -1</clus>
<clus scale="  247.671">  1  9  2 -1</clus>
<clus scale="  247.671">  1  5  2 -1</clus>
</clustering>
</event>
<event>
 9    2  0.1488992E-004  0.1857286E+03  0.7546771E-02  0.1192153E+00
          2   -1    0    0  502    0 -0.00000000000E+00  0.00000000000E+00  0.40818278565E+03  0.40818278565E+03  0.00000000000E+00 0. -1.
         21   -1    0    0  501  502  0.00000000000E+00 -0.00000000000E+00 -0.13707555014E+03  0.13707555014E+03  0.00000000000E+00 0.  1.
         23    2    1    2    0    0 -0.18136338749E+02 -0.22990275245E+02  0.16679800124E+00  0.94777229637E+02  0.90139979460E+02 0.  0.
         24    2    1    2    0    0 -0.15639120208E+03  0.50425295404E+02  0.11279659980E+03  0.21336928391E+03  0.76173879272E+02 0.  0.
        -11    1    4    4    0    0 -0.77999372923E+02 -0.84007567646E+01  0.74362163819E+02  0.10809350720E+03  0.00000000000E+00 0.  1.
         12    1    4    4    0    0 -0.78391829161E+02  0.58826052168E+02  0.38434435984E+02  0.10527577671E+03  0.00000000000E+00 0. -1.
        -13    1    3    3    0    0  0.52871168791E+01 -0.53898605639E+02  0.92624139647E+01  0.54943658480E+02  0.00000000000E+00 0. -1.
         13    1    3    3    0    0 -0.23423455629E+02  0.30908330394E+02 -0.90956159634E+01  0.39833571157E+02  0.00000000000E+00 0.  1.
          1    1    1    2  501    0  0.17452754083E+03 -0.27435020159E+02  0.15814383771E+03  0.23711182224E+03  0.00000000000E+00 0. -1.
<scales pt_clust_5="13000.00000" pt_clust_6="13000.00000" pt_clust_7="13000.00000" pt_clust_8="13000.00000" pt_clust_9="169.38915"></scales>
<clustering>
<clus scale="   76.174">  5  6 -1 -1</clus>
<clus scale="   90.140">  7  8 -1 -1</clus>
<clus scale="   94.777">  1  7  2 -1</clus>
<clus scale="  169.389">  2  9  1 -1</clus>
<clus scale="  169.389">  2  5  1 -1</clus>
</clustering>
</event>
<event>
 9    2  0.1488992E-004  0.9914577E+02  0.7546771E-02  0.1288386E+00
          2   -1    0    0  502    0 -0.00000000000E+00  0.00000000000E+00  0.42260425104E+03  0.42260425104E+03  0.00000000000E+00 0. -1.
         21   -1    0    0  501  502  0.00000000000E+00 -0.00000000000E+00 -0.73617417248E+02  0.73617417248E+02  0.00000000000E+00 0.  1.
         24    2    1    2    0    0 -0.13821306565E+01  0.35359596028E+02  0.28228527741E+03  0.29542007079E+03  0.79597921228E+02 0.  0.
         23    2    1    2    0    0 -0.41619578499E+02 -0.57421043997E+02 -0.30123999012E+01  0.11597300458E+03  0.91713126811E+02 0.  0.
        -13    1    3    3    0    0 -0.21837275486E+02  0.41741150915E+02  0.26100059793E+03  0.26521783952E+03  0.00000000000E+00 0.  1.
         14    1    3    3    0    0  0.20455144829E+02 -0.63815548871E+01  0.21284679480E+02  0.30202231264E+02  0.00000000000E+00 0. -1.
        -13    1    4    4    0    0 -0.47087236286E+02 -0.20681979472E+02  0.35481125793E+02  0.62480896148E+02  0.00000000000E+00 0.  1.
         13    1    4    4    0    0  0.54676577866E+01 -0.36739064525E+02 -0.38493525695E+02  0.53492108430E+02  0.00000000000E+00 0. -1.
          1    1    1    2  501    0  0.43001709156E+02  0.22061447970E+02  0.69713956281E+02  0.84828592922E+02  0.00000000000E+00 0. -1.
<scales pt_clust_5="13000.00000" pt_clust_6="13000.00000" pt_clust_7="13000.00000" pt_clust_8="13000.00000" pt_clust_9="48.33070"></scales>
<clustering>
<clus scale="   48.331">  2  9  1 -1</clus>
<clus scale="   79.598">  5  6 -1 -1</clus>
<clus scale="   88.059">  1  5  2 -1</clus>
<clus scale="   91.713">  7  8 -1 -1</clus>
<clus scale="   48.331">  2  5  1 -1</clus>
</clustering>
</event>
<event>
 9    2  0.1488992E-004  0.1325380E+03  0.7546771E-02  0.1226637E+00
          2   -1    0    0  502    0 -0.00000000000E+00  0.00000000000E+00  0.12365373849E+04  0.12365373849E+04  0.00000000000E+00 0. -1.
         21   -1    0    0  501  502  0.00000000000E+00 -0.00000000000E+00 -0.42052156432E+02  0.42052156432E+02  0.00000000000E+00 0.  1.
         24    2    1    2    0    0 -0.55012375643E+02 -0.71161235960E+02  0.87292701987E+03  0.88114692721E+03  0.79548993300E+02 0.  0.
         23    2    1    2    0    0  0.49756033090E+02  0.11669694151E+03  0.31433958395E+03  0.35103961679E+03  0.91244723345E+02 0.  0.
        -13    1    3    3    0    0 -0.55177613170E+02 -0.64488786519E+02  0.43682135383E+03  0.44499018837E+03  0.00000000000E+00 0.  1.
         14    1    3    3    0    0  0.16523752701E+00 -0.66724494405E+01  0.43610566604E+03  0.43615673885E+03  0.00000000000E+00 0. -1.
        -11    1    4    4    0    0  0.17640579456E+02 -0.13363073651E+02  0.50530277710E+02  0.55164034900E+02  0.00000000000E+00 0. -1.
         11    1    4    4    0    0  0.32115453634E+02  0.13006001516E+03  0.26380930624E+03  0.29587558189E+03  0.00000000000E+00 0.  1.
          1    1    1    2  501    0  0.52563425527E+01 -0.45535705548E+02  0.72186246235E+01  0.46402997298E+02  0.00000000000E+00 0. -1.
<scales pt_clust_5="13000.00000" pt_clust_6="13000.00000" pt_clust_7="13000.00000" pt_clust_8="13000.00000" pt_clust_9="45.83808"></scales>
<clustering>
<clus scale="   45.838">  2  9  1 -1</clus>
<clus scale="   79.549">  5  6 -1 -1</clus>
<clus scale="   91.245">  7  8 -1 -1</clus>
<clus scale="  124.775">  1  5  2 -1</clus>
<clus scale="   45.838">  2  5  1 -1</clus>
</clustering>
</event>
<event>
 9    2  0.1974252E-004  0.3876217E+03  0.7546771E-02  0.1048572E+00
         21   -1    0    0  501  502  0.00000000000E+00  0.00000000000E+00  0.25045999023E+03  0.25045999023E+03  0.00000000000E+00 0. -1.
          2   -1    0    0  502    0 -0.00000000000E+00 -0.00000000000E+00 -0.89773212599E+03  0.89773212599E+03  0.00000000000E+00 0. -1.
         24    2    1    2    0    0 -0.42091583848E+03 -0.70118193271E+02 -0.45835456786E+03  0.63125477554E+03  0.79416482281E+02 0.  0.
         23    2    1    2    0    0  0.29426646580E+03  0.10430334756E+02 -0.41329549943E+02  0.31350448419E+03  0.99374972361E+02 0.  0.
        -13    1    3    3    0    0 -0.65421611627E+02  0.74655117819E+01 -0.41042716084E+02  0.77590113273E+02  0.00000000000E+00 0.  1.
         14    1    3    3    0    0 -0.35549422685E+03 -0.77583705053E+02 -0.41731185178E+03  0.55366466227E+03  0.00000000000E+00 0. -1.
        -11    1    4    4    0    0  0.56130635566E+02  0.41596464606E+02 -0.18399031117E+02  0.72245681274E+02  0.00000000000E+00 0.  1.
         11    1    4    4    0    0  0.23813583024E+03 -0.31166129850E+02 -0.22930518826E+02  0.24125880292E+03  0.00000000000E+00 0. -1.
          1    1    1    2  501    0  0.12664937268E+03  0.59687858515E+02 -0.14758801795E+03  0.20343285649E+03  0.00000000000E+00 0. -1.
<scales pt_clust_5="13000.00000" pt_clust_6="13000.00000" pt_clust_7="13000.00000" pt_clust_8="13000.00000" pt_clust_9="140.00973"></scales>
<clustering>
<clus scale="   79.416">  5  6 -1 -1</clus>
<clus scale="   99.375">  7  8 -1 -1</clus>
<clus scale="  140.010">  1  9  2 -1</clus>
<clus scale="  382.991">  2  5  1 -1</clus>
<clus scale="  140.010">  1  5  2 -1</clus>
</clustering>
</event>
<event>
 9    2  0.1488992E-004  0.9202715E+02  0.7546771E-02  0.1303932E+00
         21   -1    0    0  501  502  0.00000000000E+00  0.00000000000E+00  0.86266735873E+02  0.86266735873E+02  0.00000000000E+00 0. -1.
         -1   -1    0    0    0  501 -0.00000000000E+00 -0.00000000000E+00 -0.23308637908E+03  0.23308637908E+03  0.00000000000E+00 0.  1.
         24    2    1    2    0    0  0.16980929546E+02 -0.14882244585E+02 -0.17630294531E+03  0.19490070826E+03  0.79960767764E+02 0.  0.
         23    2    1    2    0    0  0.79741470021E+01  0.19742669685E+02  0.10692609409E+02  0.92838015832E+02  0.89728508630E+02 0.  0.
        -13    1    3    3    0    0  0.37285200160E+02 -0.37336599519E+02 -0.10878126057E+03  0.12090314498E+03  0.00000000000E+00 0.  1.
         14    1    3    3    0    0 -0.20304270615E+02  0.22454354935E+02 -0.67521684735E+02  0.73997563272E+02  0.00000000000E+00 0. -1.
        -11    1    4    4    0    0  0.41719735674E+02  0.23686094899E+02  0.27109468598E+02  0.55104362114E+02  0.00000000000E+00 0. -1.
         11    1    4    4    0    0 -0.33745588672E+02 -0.39434252146E+01 -0.16416859190E+02  0.37733653718E+02  0.00000000000E+00 0.  1.
         -2    1    1    2    0  502 -0.24955076548E+02 -0.48604251001E+01  0.18790692696E+02  0.31614390863E+02  0.00000000000E+00 0.  1.
<scales pt_clust_5="13000.00000" pt_clust_6="13000.00000" pt_clust_7="13000.00000" pt_clust_8="13000.00000" pt_clust_9="25.42400"></scales>
<clustering>
<clus scale="   25.424">  1  9  2 -1</clus>
<clus scale="   79.961">  5  6 -1 -1</clus>
<clus scale="   82.532">  2  5  1 -1</clus>
<clus scale="   89.729">  7  8 -1 -1</clus>
<clus scale="   25.424">  1  5  2 -1</clus>
</clustering>
</event>
<event>
 9    2  0.1488992E-004  0.1435199E+03  0.7546771E-02  0.1227428E+00
         -1   -1    0    0    0  501 -0.00000000000E+00  0.00000000000E+00  0.75583593835E+02  0.75583593835E+02  0.00000000000E+00 0.  1.
         21   -1    0    0  501  502  0.00000000000E+00 -0.00000000000E+00 -0.52030537235E+03  0.52030537235E+03  0.00000000000E+00 0.  1.
         23    2    1    2    0    0 -0.25739794051E+02 -0.11173603102E+01 -0.34517327141E+02  0.10264614537E+03  0.93171883072E+02 0.  0.
         24    2    1    2    0    0 -0.74967030919E+02 -0.77573638889E+02 -0.13275897408E+03  0.18777575087E+03  0.77440701440E+02 0.  0.
        -11    1    4    4    0    0 -0.72459319228E+02 -0.51482912687E+02 -0.13481921366E+03  0.16148394228E+03  0.00000000000E+00 0.  1.
         12    1    4    4    0    0 -0.25077116909E+01 -0.26090726201E+02  0.20602395818E+01  0.26291808587E+02  0.00000000000E+00 0. -1.
        -13    1    3    3    0    0  0.66168563865E+01  0.24982355080E+02 -0.51593699189E+02  0.57704511520E+02  0.00000000000E+00 0.  1.
         13    1    3    3    0    0 -0.32356650438E+02 -0.26099715390E+02  0.17076372048E+02  0.44941633852E+02  0.00000000000E+00 0. -1.
         -2    1    1    2    0  502  0.10070682497E+03  0.78690999199E+02 -0.27744547729E+03  0.30546706994E+03  0.00000000000E+00 0.  1.
<scales pt_clust_5="13000.00000" pt_clust_6="13000.00000" pt_clust_7="13000.00000" pt_clust_8="13000.00000" pt_clust_9="120.83422"></scales>
<clustering>
<clus scale="   77.441">  5  6 -1 -1</clus>
<clus scale="   93.172">  7  8 -1 -1</clus>
<clus scale="   96.668">  1  7  2 -1</clus>
<clus scale="  120.834">  2  9  1 -1</clus>
<clus scale="  120.834">  2  5  1 -1</clus>
</clustering>
</event>
<event>
 9    2  0.1488992E-004  0.2171173E+03  0.7546771E-02  0.1136707E+00
         21   -1    0    0  501  502  0.00000000000E+00  0.00000000000E+00  0.35362498246E+03  0.35362498246E+03  0.00000000000E+00 0.  1.
         -3   -1    0    0    0  501 -0.00000000000E+00 -0.00000000000E+00 -0.39911187900E+03  0.39911187900E+03  0.00000000000E+00 0.  1.
         24    2    1    2    0    0 -0.15110466967E+03 -0.13489263568E+03 -0.17687056535E+03  0.28153980362E+03  0.83383570214E+02 0.  0.
         23    2    1    2    0    0  0.44933954518E+02  0.19175345921E+03  0.22935054882E+03  0.31594602374E+03  0.91824649668E+02 0.  0.
        -11    1    3    3    0    0 -0.14574823743E+03 -0.13968625414E+03 -0.14420447353E+03  0.24809217742E+03  0.00000000000E+00 0.  1.
         12    1    3    3    0    0 -0.53564322453E+01  0.47936184647E+01 -0.32666091815E+02  0.33447626206E+02  0.00000000000E+00 0. -1.
        -13    1    4    4    0    0  0.22197216876E+02  0.57651092675E+02  0.17530807035E+02  0.64215995819E+02  0.00000000000E+00 0. -1.
         13    1    4    4    0    0  0.22736737642E+02  0.13410236654E+03  0.21181974178E+03  0.25173002792E+03  0.00000000000E+00 0.  1.
         -4    1    1    2    0  502  0.10617071515E+03 -0.56860823539E+02 -0.97966880000E+02  0.15525103409E+03  0.00000000000E+00 0.  1.
<scales pt_clust_5="13000.00000" pt_clust_6="13000.00000" pt_clust_7="13000.00000" pt_clust_8="13000.00000" pt_clust_9="120.43832"></scales>
<clustering>
<clus scale="   83.384">  5  6 -1 -1</clus>
<clus scale="   91.825">  7  8 -1 -1</clus>
<clus scale="  120.438">  1  9  2 -1</clus>
<clus scale="  213.684">  2  5  1 -1</clus>
<clus scale="  120.438">  1  5  2 -1</clus>
</clustering>
</event>
<event>
 9    2  0.1488992E-004  0.1588036E+03  0.7546771E-02  0.1212812E+00
          2   -1    0    0  502    0 -0.00000000000E+00  0.00000000000E+00  0.89059941553E+03  0.89059941553E+03  0.00000000000E+00 0. -1.
         21   -1    0    0  501  502  0.00000000000E+00 -0.00000000000E+00 -0.44463694491E+02  0.44463694491E+02  0.00000000000E+00 0. -1.
         23    2    1    2    0    0  0.32129368259E+02  0.14692123417E+02  0.21192567159E+03  0.23306264920E+03  0.90319175027E+02 0.  0.
         24    2    1    2    0    0 -0.14822489400E+03 -0.52254467374E+02  0.40267780358E+03  0.44028251788E+03  0.83654847421E+02 0.  0.
        -13    1    4    4    0    0 -0.83282552716E+01 -0.36202777339E+02  0.78794989437E+02  0.87112865200E+02  0.00000000000E+00 0.  1.
         14    1    4    4    0    0 -0.13989663872E+03 -0.16051690035E+02  0.32388281414E+03  0.35316965268E+03  0.00000000000E+00 0. -1.
        -13    1    3    3    0    0  0.17009832641E+02 -0.35659521437E+02  0.12865549351E+03  0.13458518450E+03  0.00000000000E+00 0.  1.
         13    1    3    3    0    0  0.15119535619E+02  0.50351644854E+02  0.83270178080E+02  0.98477464702E+02  0.00000000000E+00 0. -1.
          1    1    1    2  501    0  0.11609552574E+03  0.37562343957E+02  0.23153224587E+03  0.26171794294E+03  0.00000000000E+00 0. -1.
<scales pt_clust_5="13000.00000" pt_clust_6="13000.00000" pt_clust_7="13000.00000" pt_clust_8="13000.00000" pt_clust_9="134.98320"></scales>
<clustering>
<clus scale="   83.655">  5  6 -1 -1</clus>
<clus scale="   90.319">  7  8 -1 -1</clus>
<clus scale="   96.983">  1  7  2 -1</clus>
<clus scale="  134.983">  2  9  1 -1</clus>
<clus scale="  134.983">  2  5  1 -1</clus>
</clustering>
</event>
<event>
 9    2  0.1488992E-004  0.1230904E+03  0.7546771E-02  0.1240258E+00
         21   -1    0    0  501  502  0.00000000000E+00  0.00000000000E+00  0.97544191240E+02  0.97544191240E+02  0.00000000000E+00 0. -1.
         -1   -1    0    0    0  501 -0.00000000000E+00 -0.00000000000E+00 -0.22693458482E+03  0.22693458482E+03  0.00000000000E+00 0.  1.
         24    2    1    2    0    0  0.70178137401E+02  0.54408900346E+02 -0.12992946347E+03  0.17687491633E+03  0.80732714194E+02 0.  0.
         23    2    1    2    0    0 -0.73813533779E+02 -0.29434508193E+02  0.12894640777E+02  0.11950409991E+03  0.88318345166E+02 0.  0.
        -11    1    3    3    0    0  0.74726250811E+02  0.30863920926E+02 -0.12976913070E+03  0.15289415116E+03  0.00000000000E+00 0.  1.
         12    1    3    3    0    0 -0.45481134099E+01  0.23544979421E+02 -0.16033277157E+00  0.23980765169E+02  0.00000000000E+00 0. -1.
        -13    1    4    4    0    0 -0.56493429338E+02 -0.53165774006E+01 -0.32402106384E+02  0.65342712308E+02  0.00000000000E+00 0.  1.
         13    1    4    4    0    0 -0.17320104440E+02 -0.24117930793E+02  0.45296747161E+02  0.54161387601E+02  0.00000000000E+00 0. -1.
         -2    1    1    2    0  502  0.36353963776E+01 -0.24974392153E+02 -0.12355570882E+02  0.28099759822E+02  0.00000000000E+00 0.  1.
<scales pt_clust_5="13000.00000" pt_clust_6="13000.00000" pt_clust_7="13000.00000" pt_clust_8="13000.00000" pt_clust_9="25.23761"></scales>
<clustering>
<clus scale="   25.238">  1  9  2 -1</clus>
<clus scale="   80.733">  5  6 -1 -1</clus>
<clus scale="   88.318">  7  8 -1 -1</clus>
<clus scale="  117.766">  2  5  1 -1</clus>
<clus scale="   25.238">  1  5  2 -1</clus>
</clustering>
</event>
<event>
 9    2  0.1488992E-004  0.1343318E+03  0.7546771E-02  0.1223907E+00
         21   -1    0    0  501  502  0.00000000000E+00  0.00000000000E+00  0.13460489425E+03  0.13460489425E+03  0.00000000000E+00 0.  1.
          2   -1    0    0  502    0 -0.00000000000E+00 -0.00000000000E+00 -0.53975215916E+03  0.53975215916E+03  0.00000000000E+00 0. -1.
         23    2    1    2    0    0  0.77918497802E+02 -0.36419889825E+02 -0.12306277506E+03  0.17586409778E+03  0.91575289300E+02 0.  0.
         24    2    1    2    0    0 -0.13353108927E+03  0.62005212071E+02  0.38584002109E+02  0.17203369204E+03  0.80197679859E+02 0.  0.
        -11    1    4    4    0    0 -0.96210835419E+02  0.42779576871E+02 -0.12365298040E+02  0.10601659137E+03  0.00000000000E+00 0.  1.
         12    1    4    4    0    0 -0.37320253846E+02  0.19225635200E+02  0.50949300150E+02  0.66017100676E+02  0.00000000000E+00 0. -1.
        -13    1    3    3    0    0  0.41333574401E+02 -0.66424998650E+02 -0.73575405627E+02  0.10739685811E+03  0.00000000000E+00 0. -1.
         13    1    3    3    0    0  0.36584923401E+02  0.30005108825E+02 -0.49487369428E+02  0.68467239675E+02  0.00000000000E+00 0.  1.
          1    1    1    2  501    0  0.55612591463E+02 -0.25585322245E+02 -0.32066849196E+03  0.32645926359E+03  0.00000000000E+00 0. -1.
<scales pt_clust_5="13000.00000" pt_clust_6="13000.00000" pt_clust_7="13000.00000" pt_clust_8="13000.00000" pt_clust_9="61.21579"></scales>
<clustering>
<clus scale="   61.216">  1  9  2 -1</clus>
<clus scale="   80.198">  5  6 -1 -1</clus>
<clus scale="   91.575">  7  8 -1 -1</clus>
<clus scale="  126.849">  1  5  2 -1</clus>
<clus scale="   61.216">  1  5  2 -1</clus>
</clustering>
</event>
<event>
 9    2  0.1488992E-004  0.1509772E+03  0.7546771E-02  0.1200552E+00
         21   -1    0    0  501  502  0.00000000000E+00  0.00000000000E+00  0.67650023445E+02  0.67650023445E+02  0.00000000000E+00 0. -1.
          2   -1    0    0  502    0 -0.00000000000E+00 -0.00000000000E+00 -0.84835857648E+03  0.84835857648E+03  0.00000000000E+00 0. -1.
         24    2    1    2    0    0 -0.98213668564E+02  0.69224448261E+02 -0.43232918157E+03  0.45613103267E+03  0.81908783364E+02 0.  0.
         23    2    1    2    0    0  0.15579324724E+03  0.13848163710E+02 -0.13915473406E+03  0.22751703783E+03  0.89087905852E+02 0.  0.
        -13    1    3    3    0    0 -0.11112992089E+03  0.70126630344E+02 -0.40694907953E+03  0.42763904982E+03  0.00000000000E+00 0.  1.
         14    1    3    3    0    0  0.12916252330E+02 -0.90218208328E+00 -0.25380102044E+02  0.28491982847E+02  0.00000000000E+00 0. -1.
        -13    1    4    4    0    0  0.24903121011E+02 -0.32199830477E+02 -0.39174387484E+02  0.56494487816E+02  0.00000000000E+00 0.  1.
         13    1    4    4    0    0  0.13089012623E+03  0.46047994187E+02 -0.99980346573E+02  0.17102255001E+03  0.00000000000E+00 0. -1.
          1    1    1    2  501    0 -0.57579578672E+02 -0.83072611971E+02 -0.20922463741E+03  0.23236052943E+03  0.00000000000E+00 0. -1.
<scales pt_clust_5="13000.00000" pt_clust_6="13000.00000" pt_clust_7="13000.00000" pt_clust_8="13000.00000" pt_clust_9="101.07659"></scales>
<clustering>
<clus scale="   81.909">  5  6 -1 -1</clus>
<clus scale="   89.088">  7  8 -1 -1</clus>
<clus scale="  101.077">  1  9  2 -1</clus>
<clus scale="  146.855">  2  5  1 -1</clus>
<clus scale="  101.077">  1  5  2 -1</clus>
</clustering>
</event>
<event>
 9    2  0.1488992E-004  0.9188737E+02  0.7546771E-02  0.1305325E+00
         -3   -1    0    0    0  501 -0.00000000000E+00  0.00000000000E+00  0.17707119025E+03  0.17707119025E+03  0.00000000000E+00 0.  1.
         21   -1    0    0  501  502  0.00000000000E+00 -0.00000000000E+00 -0.89289863262E+02  0.89289863262E+02  0.00000000000E+00 0.  1.
         23    2    1    2    0    0 -0.30717410172E+01  0.45837522449E+01  0.80737392438E+02  0.12234150687E+03  0.91752228244E+02 0.  0.
         24    2    1    2    0    0 -0.68227399473E+01  0.32504402898E+02 -0.28428821334E+02  0.91753415972E+02  0.80668491197E+02 0.  0.
        -11    1    4    4    0    0  0.25442206727E+02  0.32419113548E+02 -0.40043822883E+02  0.57461400587E+02  0.00000000000E+00 0.  1.
         12    1    4    4    0    0 -0.32264946674E+02  0.85289350044E-01  0.11615001549E+02  0.34292015385E+02  0.00000000000E+00 0. -1.
        -13    1    3    3    0    0 -0.19776784534E+02 -0.22754235179E+02 -0.52303899567E+01  0.30597931371E+02  0.00000000000E+00 0. -1.
         13    1    3    3    0    0  0.16705043516E+02  0.27337987424E+02  0.85967782395E+02  0.91743575498E+02  0.00000000000E+00 0.  1.
         -4    1    1    2    0  502  0.98944809645E+01 -0.37088155143E+02  0.35472755886E+02  0.52266130674E+02  0.00000000000E+00 0.  1.
<scales pt_clust_5="13000.00000" pt_clust_6="13000.00000" pt_clust_7="13000.00000" pt_clust_8="13000.00000" pt_clust_9="38.38533"></scales>
<clustering>
<clus scale="   38.385">  2  9  1 -1</clus>
<clus scale="   80.668">  5  6 -1 -1</clus>
<clus scale="   80.822">  2  5  1 -1</clus>
<clus scale="   91.752">  7  8 -1 -1</clus>
<clus scale="   38.385">  2  5  1 -1</clus>
</clustering>
</event>
<event>
 9    2  0.1488992E-004  0.9284717E+02  0.7546771E-02  0.1303427E+00
         -1   -1    0    0    0  501 -0.00000000000E+00  0.00000000000E+00  0.44763680721E+03  0.44763680721E+03  0.00000000000E+00 0.  1.
         21   -1    0    0  501  502  0.00000000000E+00 -0.00000000000E+00 -0.37518539997E+02  0.37518539997E+02  0.00000000000E+00 0. -1.
         23    2    1    2    0    0  0.19828717439E+02 -0.17215514880E+02  0.31388264438E+03  0.32782412528E+03  0.90866884436E+02 0.  0.
         24    2    1    2    0    0  0.87302388547E+01  0.13460426627E+02  0.99928849380E+02  0.12829065384E+03  0.78837280329E+02 0.  0.
        -11    1    4    4    0    0 -0.17527961143E+02  0.38950140640E+02  0.64464006527E+02  0.77330142992E+02  0.00000000000E+00 0.  1.
         12    1    4    4    0    0  0.26258199998E+02 -0.25489714013E+02  0.35464842853E+02  0.50960510851E+02  0.00000000000E+00 0. -1.
        -11    1    3    3    0    0 -0.22506448727E+02  0.90397533585E+01  0.25584349386E+02  0.35253599938E+02  0.00000000000E+00 0.  1.
         11    1    3    3    0    0  0.42335166166E+02 -0.26255268238E+02  0.28829829499E+03  0.29257052534E+03  0.00000000000E+00 0. -1.
         -2    1    1    2    0  502 -0.28558956294E+02  0.37550882529E+01 -0.36932265423E+01  0.29040568084E+02  0.00000000000E+00 0.  1.
<scales pt_clust_5="13000.00000" pt_clust_6="13000.00000" pt_clust_7="13000.00000" pt_clust_8="13000.00000" pt_clust_9="28.80477"></scales>
<clustering>
<clus scale="   28.805">  2  9  1 -1</clus>
<clus scale="   78.837">  5  6 -1 -1</clus>
<clus scale="   81.112">  2  5  1 -1</clus>
<clus scale="   90.867">  7  8 -1 -1</clus>
<clus scale="   28.805">  2  5  1 -1</clus>
</clustering>
</event>
<event>
 9    2  0.1488992E-004  0.9129552E+02  0.7546771E-02  0.1307004E+00
          2   -1    0    0  502    0 -0.00000000000E+00  0.00000000000E+00  0.68055512990E+03  0.68055512990E+03  0.00000000000E+00 0. -1.
         21   -1    0    0  501  502  0.00000000000E+00 -0.00000000000E+00 -0.21788422461E+02  0.21788422461E+02  0.00000000000E+00 0.  1.
         24    2    1    2    0    0 -0.14422123100E+01  0.62843156612E+01  0.49474368605E+03  0.50119299454E+03  0.79884480939E+02 0.  0.
         23    2    1    2    0    0 -0.15060893459E+01  0.16961029074E+02  0.13511596808E+03  0.16393958812E+03  0.91268389444E+02 0.  0.
        -13    1    3    3    0    0  0.24215576005E+02 -0.22869653224E+02  0.12313225395E+03  0.12755770115E+03  0.00000000000E+00 0.  1.
         14    1    3    3    0    0 -0.25657788315E+02  0.29153968885E+02  0.37161143210E+03  0.37363529339E+03  0.00000000000E+00 0. -1.
        -13    1    4    4    0    0 -0.88933804074E+01  0.54176520555E+02  0.79871124056E+02  0.96920503777E+02  0.00000000000E+00 0. -1.
         13    1    4    4    0    0  0.73872910615E+01 -0.37215491481E+02  0.55244844021E+02  0.67019084344E+02  0.00000000000E+00 0.  1.
          1    1    1    2  501    0  0.29483016559E+01 -0.23245344735E+02  0.28907053313E+02  0.37210969697E+02  0.00000000000E+00 0. -1.
<scales pt_clust_5="13000.00000" pt_clust_6="13000.00000" pt_clust_7="13000.00000" pt_clust_8="13000.00000" pt_clust_9="23.43157"></scales>
<clustering>
<clus scale="   23.432">  2  9  1 -1</clus>
<clus scale="   79.884">  5  6 -1 -1</clus>
<clus scale="   79.915">  1  5  2 -1</clus>
<clus scale="   91.268">  7  8 -1 -1</clus>
<clus scale="   23.432">  2  5  1 -1</clus>
</clustering>
</event>
<event>
 9    2  0.1488992E-004  0.1274684E+03  0.7546771E-02  0.1244411E+00
         21   -1    0    0  501  502  0.00000000000E+00  0.00000000000E+00  0.95794827802E+02  0.95794827802E+02  0.00000000000E+00 0. -1.
          2   -1    0    0  502    0 -0.00000000000E+00 -0.00000000000E+00 -0.34938746306E+03  0.34938746306E+03  0.00000000000E+00 0. -1.
         23    2    1    2    0    0  0.48391857773E+02 -0.16938346815E+02 -0.83303630265E+01  0.97853120115E+02  0.82928636046E+02 0.  0.
         24    2    1    2    0    0  0.30300432582E+00  0.10375879887E+03 -0.19606591509E+03  0.23629196056E+03  0.81400659776E+02 0.  0.
        -11    1    4    4    0    0  0.87018543548E+01  0.52667226746E+02 -0.27691654631E+02  0.60136401443E+02  0.00000000000E+00 0.  1.
         12    1    4    4    0    0 -0.83988500289E+01  0.51091572126E+02 -0.16837426045E+03  0.17615555912E+03  0.00000000000E+00 0. -1.
        -11    1    3    3    0    0  0.35568511005E+02  0.25913008883E+02  0.16133698658E+02  0.46871091697E+02  0.00000000000E+00 0. -1.
         11    1    3    3    0    0  0.12823346768E+02 -0.42851355698E+02 -0.24464061684E+02  0.50982028418E+02  0.00000000000E+00 0.  1.
          1    1    1    2  501    0 -0.48694862099E+02 -0.86820452056E+02 -0.49196357148E+02  0.11103721019E+03  0.00000000000E+00 0. -1.
<scales pt_clust_5="13000.00000" pt_clust_6="13000.00000" pt_clust_7="13000.00000" pt_clust_8="13000.00000" pt_clust_9="98.09240"></scales>
<clustering>
<clus scale="   81.401">  5  6 -1 -1</clus>
<clus scale="   82.929">  7  8 -1 -1</clus>
<clus scale="   97.498">  2  7  1 -1</clus>
<clus scale="   98.092">  1  9  2 -1</clus>
<clus scale="   98.092">  1  5  2 -1</clus>
</clustering>
</event>
<event>
 9    2  0.1488992E-004  0.9610935E+02  0.7546771E-02  0.1295101E+00
          2   -1    0    0  502    0 -0.00000000000E+00  0.00000000000E+00  0.67298331049E+03  0.67298331049E+03  0.00000000000E+00 0. -1.
         21   -1    0    0  501  502  0.00000000000E+00 -0.00000000000E+00 -0.67294265362E+02  0.67294265362E+02  0.00000000000E+00 0.  1.
         24    2    1    2    0    0  0.10121522861E+02 -0.30122452225E+02  0.60083757639E+03  0.60698230587E+03  0.80074459633E+02 0.  0.
         23    2    1    2    0    0 -0.12581081400E+02 -0.45477069573E+01  0.21182399038E+02  0.94892553273E+02  0.91525610568E+02 0.  0.
        -13    1    3    3    0    0 -0.14506308931E+02  0.19509935755E+02  0.92780450388E+02  0.95912890511E+02  0.00000000000E+00 0.  1.
         14    1    3    3    0    0  0.24627831792E+02 -0.49632387980E+02  0.50805712600E+03  0.51106941536E+03  0.00000000000E+00 0. -1.
        -11    1    4    4    0    0  0.27902186105E+02 -0.28605883752E+02  0.25813946198E+02  0.47572979652E+02  0.00000000000E+00 0. -1.
         11    1    4    4    0    0 -0.40483267505E+02  0.24058176795E+02 -0.46315471608E+01  0.47319573621E+02  0.00000000000E+00 0.  1.
          1    1    1    2  501    0  0.24595585388E+01  0.34670159182E+02 -0.16330930301E+02  0.38402716706E+02  0.00000000000E+00 0. -1.
<scales pt_clust_5="13000.00000" pt_clust_6="13000.00000" pt_clust_7="13000.00000" pt_clust_8="13000.00000" pt_clust_9="34.75729"></scales>
<clustering>
<clus scale="   34.757">  2  9  1 -1</clus>
<clus scale="   80.074">  5  6 -1 -1</clus>
<clus scale="   85.276">  1  5  2 -1</clus>
<clus scale="   91.526">  7  8 -1 -1</clus>
<clus scale="   34.757">  2  5  1 -1</clus>
</clustering>
</event>
<event>
 9    2  0.1488992E-004  0.1130432E+03  0.7546771E-02  0.1267259E+00
          2   -1    0    0  502    0 -0.00000000000E+00  0.00000000000E+00  0.38082676859E+03  0.38082676859E+03  0.00000000000E+00 0. -1.
         21   -1    0    0  501  502  0.00000000000E+00 -0.00000000000E+00 -0.30317109933E+03  0.30317109933E+03  0.00000000000E+00 0. -1.
         24    2    1    2    0    0  0.72661816303E+02 -0.20547765842E+02  0.32032976287E+03  0.33461260981E+03  0.60435845583E+02 0.  0.
         23    2    1    2    0    0 -0.20801370879E+01 -0.29172587798E+01  0.32747942373E+01  0.92435387026E+02  0.92307849765E+02 0.  0.
        -13    1    3    3    0    0  0.67562478076E+02 -0.35662123335E+01  0.16585579954E+03  0.17912440524E+03  0.00000000000E+00 0.  1.
         14    1    3    3    0    0  0.50993382271E+01 -0.16981553509E+02  0.15447396333E+03  0.15548820456E+03  0.00000000000E+00 0. -1.
        -11    1    4    4    0    0 -0.29887879933E+02 -0.27018513657E+02 -0.23759258651E+02  0.46773794145E+02  0.00000000000E+00 0.  1.
         11    1    4    4    0    0  0.27807742845E+02  0.24101254878E+02  0.27034052888E+02  0.45661592880E+02  0.00000000000E+00 0. -1.
          1    1    1    2  501    0 -0.70581679215E+02  0.23465024622E+02 -0.24594888785E+03  0.25694987109E+03  0.00000000000E+00 0. -1.
<scales pt_clust_5="13000.00000" pt_clust_6="13000.00000" pt_clust_7="13000.00000" pt_clust_8="13000.00000" pt_clust_9="74.37998"></scales>
<clustering>
<clus scale="   60.436">  5  6 -1 -1</clus>
<clus scale="   74.380">  2  9  1 -1</clus>
<clus scale="   88.941">  1  5  2 -1</clus>
<clus scale="   92.308">  7  8 -1 -1</clus>
<clus scale="   74.380">  2  5  1 -1</clus>
</clustering>
</event>
<event>
 9    2  0.1488992E-004  0.1086650E+03  0.7546771E-02  0.1265135E+00
         21   -1    0    0  501  502  0.00000000000E+00  0.00000000000E+00  0.47335677068E+02  0.47335677068E+02  0.00000000000E+00 0.  1.
          2   -1    0    0  502    0 -0.00000000000E+00 -0.00000000000E+00 -0.40715736165E+03  0.40715736165E+03  0.00000000000E+00 0. -1.
         23    2    1    2    0    0  0.24558995101E+01  0.53609238399E+02 -0.15961033772E+03  0.19273464867E+03  0.93761415343E+02 0.  0.
         24    2    1    2    0    0 -0.55135227128E+02 -0.42928263942E+02 -0.11636336769E+03  0.16216080783E+03  0.88729730859E+02 0.  0.
        -13    1    4    4    0    0 -0.50326524195E+02  0.47409221681E+01 -0.19657087689E+02  0.54236855338E+02  0.00000000000E+00 0.  1.
         14    1    4    4    0    0 -0.48087029327E+01 -0.47669186110E+02 -0.96706280004E+02  0.10792395249E+03  0.00000000000E+00 0. -1.
        -11    1    3    3    0    0 -0.20870791828E+02 -0.20973821744E+02 -0.37637189713E+02  0.47875350647E+02  0.00000000000E+00 0. -1.
         11    1    3    3    0    0  0.23326691338E+02  0.74583060144E+02 -0.12197314801E+03  0.14485929802E+03  0.00000000000E+00 0.  1.
          1    1    1    2  501    0  0.52679327617E+02 -0.10680974458E+02 -0.83847979169E+02  0.99597582221E+02  0.00000000000E+00 0. -1.
<scales pt_clust_5="13000.00000" pt_clust_6="13000.00000" pt_clust_7="13000.00000" pt_clust_8="13000.00000" pt_clust_9="53.75126"></scales>
<clustering>
<clus scale="   53.751">  1  9  2 -1</clus>
<clus scale="   88.730">  5  6 -1 -1</clus>
<clus scale="   93.761">  7  8 -1 -1</clus>
<clus scale="  104.354">  1  5  2 -1</clus>
<clus scale="   53.751">  1  5  2 -1</clus>
</clustering>
</event>
<event>
 9    2  0.1488992E-004  0.1664373E+03  0.7546771E-02  0.1189403E+00
         21   -1    0    0  501  502  0.00000000000E+00  0.00000000000E+00  0.48973430936E+02  0.48973430936E+02  0.00000000000E+00 0. -1.
          2   -1    0    0  502    0 -0.00000000000E+00 -0.00000000000E+00 -0.13767167673E+04  0.13767167673E+04  0.00000000000E+00 0. -1.
         23    2    1    2    0    0 -0.96741284361E+02  0.41945945649E+02 -0.22180600074E+03  0.26226186856E+03  0.92005691565E+02 0.  0.
         24    2    1    2    0    0  0.33415665214E+02 -0.17161524824E+03 -0.83004925280E+03  0.85207885350E+03  0.80549428265E+02 0.  0.
        -11    1    4    4    0    0  0.42795447100E+02 -0.34659640208E+02 -0.22251812612E+03  0.22923144942E+03  0.00000000000E+00 0.  1.
         12    1    4    4    0    0 -0.93797818859E+01 -0.13695560803E+03 -0.60753112668E+03  0.62284740408E+03  0.00000000000E+00 0. -1.
        -13    1    3    3    0    0 -0.14200283498E+02  0.31149909309E+02 -0.14503865826E+03  0.14902408293E+03  0.00000000000E+00 0.  1.
         13    1    3    3    0    0 -0.82541000863E+02  0.10796036340E+02 -0.76767342473E+02  0.11323778563E+03  0.00000000000E+00 0. -1.
          1    1    1    2  501    0  0.63325619147E+02  0.12966930259E+03 -0.27588808284E+03  0.31134947619E+03  0.00000000000E+00 0. -1.
<scales pt_clust_5="13000.00000" pt_clust_6="13000.00000" pt_clust_7="13000.00000" pt_clust_8="13000.00000" pt_clust_9="145.64736"></scales>
<clustering>
<clus scale="   80.549">  5  6 -1 -1</clus>
<clus scale="   92.006">  7  8 -1 -1</clus>
<clus scale="  139.941">  2  7  1 -1</clus>
<clus scale="  145.647">  1  9  2 -1</clus>
<clus scale="  145.647">  1  5  2 -1</clus>
</clustering>
</event>
<event>
 9    2  0.1488992E-004  0.9379314E+02  0.7546771E-02  0.1300515E+00
         -1   -1    0    0    0  501 -0.00000000000E+00  0.00000000000E+00  0.21700885927E+03  0.21700885927E+03  0.00000000000E+00 0.  1.
         21   -1    0    0  501  502  0.00000000000E+00 -0.00000000000E+00 -0.78084636860E+02  0.78084636860E+02  0.00000000000E+00 0. -1.
         23    2    1    2    0    0  0.14254260491E+02 -0.51676532873E+01  0.14043044855E+03  0.16821736905E+03  0.91359092522E+02 0.  0.
         24    2    1    2    0    0 -0.23630078575E+02  0.35868246806E+02  0.12462165355E+02  0.91868294120E+02  0.80246907459E+02 0.  0.
        -11    1    4    4    0    0 -0.36966372486E+02 -0.12832840615E+02  0.13412346127E+02  0.41365269510E+02  0.00000000000E+00 0.  1.
         12    1    4    4    0    0  0.13336293911E+02  0.48701087421E+02 -0.95018077203E+00  0.50503024610E+02  0.00000000000E+00 0. -1.
        -13    1    3    3    0    0 -0.78833316393E+01  0.37090515443E+02  0.31490816853E+02  0.49290209978E+02  0.00000000000E+00 0. -1.
         13    1    3    3    0    0  0.22137592131E+02 -0.42258168731E+02  0.10893963170E+03  0.11892715907E+03  0.00000000000E+00 0.  1.
         -2    1    1    2    0  502  0.93758180839E+01 -0.30700593519E+02 -0.13968391503E+02  0.35007832957E+02  0.00000000000E+00 0.  1.
<scales pt_clust_5="13000.00000" pt_clust_6="13000.00000" pt_clust_7="13000.00000" pt_clust_8="13000.00000" pt_clust_9="32.10035"></scales>
<clustering>
<clus scale="   32.100">  2  9  1 -1</clus>
<clus scale="   80.247">  5  6 -1 -1</clus>
<clus scale="   83.007">  2  5  1 -1</clus>
<clus scale="   91.359">  7  8 -1 -1</clus>
<clus scale="   32.100">  2  5  1 -1</clus>
</clustering>
</event>
<event>
 9    2  0.1488992E-004  0.1397201E+03  0.7546771E-02  0.1218201E+00
         21   -1    0    0  501  502  0.00000000000E+00  0.00000000000E+00  0.10397686115E+03  0.10397686115E+03  0.00000000000E+00 0.  1.
          2   -1    0    0  502    0 -0.00000000000E+00 -0.00000000000E+00 -0.43433151339E+03  0.43433151339E+03  0.00000000000E+00 0. -1.
         23    2    1    2    0    0 -0.85350026454E+02  0.58812374916E+02 -0.13397457985E+03  0.19556217285E+03  0.97733581444E+02 0.  0.
         24    2    1    2    0    0  0.90395572452E+02 -0.26874854174E+02  0.19650263644E+02  0.12430955446E+03  0.78569174388E+02 0.  0.
        -11    1    4    4    0    0  0.92834788384E+02  0.26893848506E+01  0.11774197644E+02  0.93617105570E+02  0.00000000000E+00 0.  1.
         12    1    4    4    0    0 -0.24392159325E+01 -0.29564239024E+02  0.78760659998E+01  0.30692448894E+02  0.00000000000E+00 0. -1.
        -11    1    3    3    0    0 -0.97201029255E+02  0.25080013111E+02 -0.70354476191E+02  0.12258384668E+03  0.00000000000E+00 0. -1.
         11    1    3    3    0    0  0.11851002801E+02  0.33732361805E+02 -0.63620103663E+02  0.72978326169E+02  0.00000000000E+00 0.  1.
          1    1    1    2  501    0 -0.50455459974E+01 -0.31937520743E+02 -0.21603033603E+03  0.21843664722E+03  0.00000000000E+00 0. -1.
<scales pt_clust_5="13000.00000" pt_clust_6="13000.00000" pt_clust_7="13000.00000" pt_clust_8="13000.00000" pt_clust_9="32.33363"></scales>
<clustering>
<clus scale="   32.334">  1  9  2 -1</clus>
<clus scale="   78.569">  5  6 -1 -1</clus>
<clus scale="   97.734">  7  8 -1 -1</clus>
<clus scale="  127.055">  1  5  2 -1</clus>
<clus scale="   32.334">  1  5  2 -1</clus>
</clustering>
</event>
<event>
 9    2  0.1488992E-004  0.1791992E+03  0.7546771E-02  0.1169987E+00
         21   -1    0    0  501  502  0.00000000000E+00  0.00000000000E+00  0.15398002574E+03  0.15398002574E+03  0.00000000000E+00 0.  1.
         -1   -1    0    0    0  501 -0.00000000000E+00 -0.00000000000E+00 -0.46402438462E+03  0.46402438462E+03  0.00000000000E+00 0.  1.
         24    2    1    2    0    0  0.14127511431E+03  0.68426754234E+02 -0.38084900786E+03  0.41952901866E+03  0.79484288309E+02 0.  0.
         23    2    1    2    0    0 -0.12119571779E+03 -0.64980899790E+02  0.62071605801E+02  0.17630960454E+03  0.91221012144E+02 0.  0.
        -13    1    3    3    0    0  0.10359336344E+03  0.85457655647E+02 -0.30133554548E+03  0.32990560290E+03  0.00000000000E+00 0.  1.
         14    1    3    3    0    0  0.37681750862E+02 -0.17030901413E+02 -0.79513462385E+02  0.89623415754E+02  0.00000000000E+00 0. -1.
        -11    1    4    4    0    0 -0.18123430969E+02  0.18789898635E+02  0.29812670150E+02  0.39627191955E+02  0.00000000000E+00 0.  1.
         11    1    4    4    0    0 -0.10307228682E+03 -0.83770798425E+02  0.32258935650E+02  0.13668241258E+03  0.00000000000E+00 0. -1.
         -2    1    1    2    0  502 -0.20079396513E+02 -0.34458544442E+01  0.87330431850E+01  0.22165787161E+02  0.00000000000E+00 0.  1.
<scales pt_clust_5="13000.00000" pt_clust_6="13000.00000" pt_clust_7="13000.00000" pt_clust_8="13000.00000" pt_clust_9="20.37293"></scales>
<clustering>
<clus scale="   20.373">  1  9  2 -1</clus>
<clus scale="   79.484">  5  6 -1 -1</clus>
<clus scale="   91.221">  7  8 -1 -1</clus>
<clus scale="  173.519">  2  5  1 -1</clus>
<clus scale="   20.373">  1  5  2 -1</clus>
</clustering>
</event>
<event>
 9    2  0.1488992E-004  0.1713737E+03  0.7546771E-02  0.1177727E+00
          2   -1    0    0  502    0 -0.00000000000E+00  0.00000000000E+00  0.17516873619E+04  0.17516873619E+04  0.00000000000E+00 0. -1.
         21   -1    0    0  501  502  0.00000000000E+00 -0.00000000000E+00 -0.23037054616E+02  0.23037054616E+02  0.00000000000E+00 0. -1.
         24    2    1    2    0    0 -0.14872785069E+03 -0.32664115962E+02  0.12547760691E+04  0.12666600208E+04  0.82326828109E+02 0.  0.
         23    2    1    2    0    0  0.12197967372E+03  0.28108589129E+02  0.38545249806E+03  0.41557319657E+03  0.91969124516E+02 0.  0.
        -11    1    3    3    0    0 -0.59176218533E+02 -0.39088197176E+02  0.32993246733E+03  0.33746873188E+03  0.00000000000E+00 0.  1.
         12    1    3    3    0    0 -0.89551632152E+02  0.64240812134E+01  0.92484360179E+03  0.92919128893E+03  0.00000000000E+00 0. -1.
        -13    1    4    4    0    0  0.75308182418E+02  0.61135354945E+02  0.26622537099E+03  0.28334572896E+03  0.00000000000E+00 0.  1.
         13    1    4    4    0    0  0.46671491299E+02 -0.33026765816E+02  0.11922712707E+03  0.13222746761E+03  0.00000000000E+00 0. -1.
          1    1    1    2  501    0  0.26748176969E+02  0.45555268334E+01  0.88421740124E+02  0.92491199163E+02  0.00000000000E+00 0. -1.
<scales pt_clust_5="13000.00000" pt_clust_6="13000.00000" pt_clust_7="13000.00000" pt_clust_8="13000.00000" pt_clust_9="27.13333"></scales>
<clustering>
<clus scale="   27.133">  2  9  1 -1</clus>
<clus scale="   82.327">  5  6 -1 -1</clus>
<clus scale="   91.969">  7  8 -1 -1</clus>
<clus scale="  166.398">  1  5  2 -1</clus>
<clus scale="   27.133">  2  5  1 -1</clus>
</clustering>
</event>
<event>
 9    2  0.1488992E-004  0.2232052E+03  0.7546771E-02  0.1131984E+00
          2   -1    0    0  502    0 -0.00000000000E+00  0.00000000000E+00  0.35021300054E+03  0.35021300054E+03  0.00000000000E+00 0. -1.
         21   -1    0    0  501  502  0.00000000000E+00 -0.00000000000E+00 -0.23207642763E+03  0.23207642763E+03  0.00000000000E+00 0. -1.
         24    2    1    2    0    0 -0.11211545227E+03 -0.11663596955E+03  0.40362005161E+02  0.18622869706E+03  0.82934987285E+02 0.  0.
         23    2    1    2    0    0  0.17296318138E+03  0.19630342734E+03  0.98804212547E+02  0.29363223933E+03  0.89478052365E+02 0.  0.
        -11    1    3    3    0    0 -0.40086977472E+02 -0.96135183827E+02  0.74431670405E+01  0.10442384818E+03  0.00000000000E+00 0.  1.
         12    1    3    3    0    0 -0.72028474802E+02 -0.20500785725E+02  0.32918838120E+02  0.81804848883E+02  0.00000000000E+00 0. -1.
        -13    1    4    4    0    0  0.32688498511E+02  0.21880522846E+02  0.51590567902E+02  0.64875896228E+02  0.00000000000E+00 0.  1.
         13    1    4    4    0    0  0.14027468287E+03  0.17442290449E+03  0.47213644645E+02  0.22875634310E+03  0.00000000000E+00 0. -1.
          1    1    1    2  501    0 -0.60847729109E+02 -0.79667457788E+02 -0.21029644802E+02  0.10242849178E+03  0.00000000000E+00 0. -1.
<scales pt_clust_5="13000.00000" pt_clust_6="13000.00000" pt_clust_7="13000.00000" pt_clust_8="13000.00000" pt_clust_9="100.24645"></scales>
<clustering>
<clus scale="   82.935">  5  6 -1 -1</clus>
<clus scale="   89.478">  7  8 -1 -1</clus>
<clus scale="  100.246">  2  9  1 -1</clus>
<clus scale="  220.664">  1  5  2 -1</clus>
<clus scale="  100.246">  2  5  1 -1</clus>
</clustering>
</event>
<event>
 9    2  0.1488992E-004  0.4136330E+03  0.7546771E-02  0.1089043E+00
          2   -1    0    0  502    0 -0.00000000000E+00  0.00000000000E+00  0.23945181018E+03  0.23945181018E+03  0.00000000000E+00 0. -1.
         21   -1    0    0  501  502  0.00000000000E+00 -0.00000000000E+00 -0.10964663687E+04  0.10964663687E+04  0.00000000000E+00 0. -1.
         23    2    1    2    0    0  0.35461455843E+02  0.50523423002E+02 -0.22702177400E+02  0.10591512336E+03  0.83021041768E+02 0.  0.
         24    2    1    2    0    0 -0.38506325056E+03 -0.22397686897E+03 -0.22226525256E+03  0.50411794038E+03  0.79332909638E+02 0.  0.
        -13    1    4    4    0    0 -0.35197130518E+02 -0.29195474815E+01 -0.35500475585E+02  0.50076396845E+02  0.00000000000E+00 0.  1.
         14    1    4    4    0    0 -0.34986612004E+03 -0.22105732149E+03 -0.18676477698E+03  0.45404154354E+03  0.00000000000E+00 0. -1.
        -13    1    3    3    0    0  0.24650384004E+02  0.45401938251E+00 -0.44003215438E+02  0.50439374838E+02  0.00000000000E+00 0. -1.
         13    1    3    3    0    0  0.10811071840E+02  0.50069403620E+02  0.21301038038E+02  0.55475748527E+02  0.00000000000E+00 0.  1.
          1    1    1    2  501    0  0.34960179471E+03  0.17345344597E+03 -0.61204712853E+03  0.72588511511E+03  0.00000000000E+00 0. -1.
<scales pt_clust_5="13000.00000" pt_clust_6="13000.00000" pt_clust_7="13000.00000" pt_clust_8="13000.00000" pt_clust_9="405.95392"></scales>
<clustering>
<clus scale="   79.333">  5  6 -1 -1</clus>
<clus scale="   83.021">  7  8 -1 -1</clus>
<clus scale="  103.453">  1  7  2 -1</clus>
<clus scale="  405.954">  2  9  1 -1</clus>
<clus scale="  405.954">  2  5  1 -1</clus>
</clustering>
</event>
<event>
 9    2  0.1488992E-004  0.1111235E+03  0.7546771E-02  0.1262372E+00
          4   -1    0    0  502    0 -0.00000000000E+00  0.00000000000E+00  0.12833307535E+03  0.12833307535E+03  0.00000000000E+00 0. -1.
         21   -1    0    0  501  502  0.00000000000E+00 -0.00000000000E+00 -0.19855940178E+03  0.19855940178E+03  0.00000000000E+00 0. -1.
         24    2    1    2    0    0  0.73861850256E+02  0.44892543516E+01 -0.22931322850E+02  0.11297518973E+03  0.82230296117E+02 0.  0.
         23    2    1    2    0    0 -0.35847614870E+02 -0.33356232292E+02 -0.98767014271E+02  0.14371933592E+03  0.92209732050E+02 0.  0.
        -13    1    3    3    0    0  0.18184795157E+02  0.31331627935E+02  0.16343969275E+02  0.39742710219E+02  0.00000000000E+00 0.  1.
         14    1    3    3    0    0  0.55677055099E+02 -0.26842373583E+02 -0.39275292125E+02  0.73232479513E+02  0.00000000000E+00 0. -1.
        -13    1    4    4    0    0 -0.64257930388E+02 -0.11602626061E+02 -0.45641456185E+02  0.79667089014E+02  0.00000000000E+00 0. -1.
         13    1    4    4    0    0  0.28410315518E+02 -0.21753606230E+02 -0.53125558086E+02  0.64052246906E+02  0.00000000000E+00 0.  1.
          3    1    1    2  501    0 -0.38014235386E+02  0.28866977940E+02  0.51472010686E+02  0.70197951476E+02  0.00000000000E+00 0. -1.
<scales pt_clust_5="13000.00000" pt_clust_6="13000.00000" pt_clust_7="13000.00000" pt_clust_8="13000.00000" pt_clust_9="47.73245"></scales>
<clustering>
<clus scale="   47.732">  2  9  1 -1</clus>
<clus scale="   82.230">  5  6 -1 -1</clus>
<clus scale="   92.210">  7  8 -1 -1</clus>
<clus scale="  102.993">  1  5  2 -1</clus>
<clus scale="   47.732">  2  5  1 -1</clus>
</clustering>
</event>
<event>
 9    2  0.1488992E-004  0.1650530E+03  0.7546771E-02  0.1186396E+00
         21   -1    0    0  501  502  0.00000000000E+00  0.00000000000E+00  0.27591135653E+03  0.27591135653E+03  0.00000000000E+00 0.  1.
          2   -1    0    0  502    0 -0.00000000000E+00 -0.00000000000E+00 -0.20599698286E+03  0.20599698286E+03  0.00000000000E+00 0. -1.
         23    2    1    2    0    0 -0.13880672973E+03 -0.10378866275E+02 -0.57582572789E+02  0.17633410155E+03  0.91667516593E+02 0.  0.
         24    2    1    2    0    0  0.13346629881E+03 -0.46758107253E+02 -0.91292557804E+01  0.15738559764E+03  0.68463928631E+02 0.  0.
        -13    1    4    4    0    0  0.28149782684E+02 -0.27170908527E+02  0.23207150489E+02  0.45488903803E+02  0.00000000000E+00 0.  1.
         14    1    4    4    0    0  0.10531651612E+03 -0.19587198726E+02 -0.32336406269E+02  0.11189669384E+03  0.00000000000E+00 0. -1.
        -11    1    3    3    0    0 -0.69792205243E+02 -0.44863037888E+02 -0.54214569508E+02  0.99110360852E+02  0.00000000000E+00 0.  1.
         11    1    3    3    0    0 -0.69014524482E+02  0.34484171613E+02 -0.33680032806E+01  0.77223740698E+02  0.00000000000E+00 0. -1.
          1    1    1    2  501    0  0.53404309178E+01  0.57136973527E+02  0.13662620224E+03  0.14818864020E+03  0.00000000000E+00 0. -1.
<scales pt_clust_5="13000.00000" pt_clust_6="13000.00000" pt_clust_7="13000.00000" pt_clust_8="13000.00000" pt_clust_9="57.38601"></scales>
<clustering>
<clus scale="   57.386">  1  9  2 -1</clus>
<clus scale="   68.464">  5  6 -1 -1</clus>
<clus scale="   91.668">  7  8 -1 -1</clus>
<clus scale="  153.385">  1  5  2 -1</clus>
<clus scale="   57.386">  1  5  2 -1</clus>
</clustering>
</event>
<event>
 9    2  0.1488992E-004  0.2526073E+03  0.7546771E-02  0.1111955E+00
          2   -1    0    0  502    0 -0.00000000000E+00  0.00000000000E+00  0.10327449289E+04  0.10327449289E+04  0.00000000000E+00 0. -1.
         21   -1    0    0  501  502  0.00000000000E+00 -0.00000000000E+00 -0.11255021454E+03  0.11255021454E+03  0.00000000000E+00 0. -1.
         24    2    1    2    0    0  0.65992203898E+02  0.23809025258E+03  0.79929598755E+03  0.84076357375E+03  0.83470784616E+02 0.  0.
         23    2    1    2    0    0 -0.75884719479E+02 -0.18942742749E+03  0.12401277187E+03  0.25477586959E+03  0.88827558829E+02 0.  0.
        -13    1    3    3    0    0  0.14067548141E+02  0.41533472234E+02  0.61917853795E+02  0.75873222187E+02  0.00000000000E+00 0.  1.
         14    1    3    3    0    0  0.51924655757E+02  0.19655678034E+03  0.73737813376E+03  0.76489035156E+03  0.00000000000E+00 0. -1.
        -13    1    4    4    0    0  0.13523856038E+02 -0.32742845607E+02  0.46429112667E+02  0.58400780163E+02  0.00000000000E+00 0.  1.
         13    1    4    4    0    0 -0.89408575517E+02 -0.15668458188E+03  0.77583659198E+02  0.19637508943E+03  0.00000000000E+00 0. -1.
          1    1    1    2  501    0  0.98925155805E+01 -0.48662825093E+02 -0.31140450943E+01  0.49755700049E+02  0.00000000000E+00 0. -1.
<scales pt_clust_5="13000.00000" pt_clust_6="13000.00000" pt_clust_7="13000.00000" pt_clust_8="13000.00000" pt_clust_9="49.65816"></scales>
<clustering>
<clus scale="   49.658">  2  9  1 -1</clus>
<clus scale="   83.471">  5  6 -1 -1</clus>
<clus scale="   88.828">  7  8 -1 -1</clus>
<clus scale="  250.774">  1  5  2 -1</clus>
<clus scale="   49.658">  2  5  1 -1</clus>
</clustering>
</event>
<event>
 9    2  0.1488992E-004  0.9207971E+02  0.7546771E-02  0.1305309E+00
         21   -1    0    0  501  502  0.00000000000E+00  0.00000000000E+00  0.37468456819E+03  0.37468456819E+03  0.00000000000E+00 0. -1.
          2   -1    0    0  502    0 -0.00000000000E+00 -0.00000000000E+00 -0.57170397583E+02  0.57170397583E+02  0.00000000000E+00 0. -1.
         24    2    1    2    0    0  0.10055887737E+02  0.78456529312E+01  0.30500425193E+02  0.86784469626E+02  0.80240844232E+02 0.  0.
         23    2    1    2    0    0  0.18802496824E+02  0.20024578003E+02  0.57143915749E+02  0.11172591249E+03  0.91993123676E+02 0.  0.
        -11    1    3    3    0    0 -0.32720559134E+02 -0.80370680072E+01  0.22350877640E+02  0.40432551039E+02  0.00000000000E+00 0.  1.
         12    1    3    3    0    0  0.42776446871E+02  0.15882720938E+02  0.81495475529E+01  0.46351918587E+02  0.00000000000E+00 0. -1.
        -13    1    4    4    0    0  0.31506335566E+02  0.52079580400E+02  0.30094538699E+02  0.67901495823E+02  0.00000000000E+00 0. -1.
         13    1    4    4    0    0 -0.12703838743E+02 -0.32055002397E+02  0.27049377050E+02  0.43824416668E+02  0.00000000000E+00 0.  1.
          1    1    1    2  501    0 -0.28858384561E+02 -0.27870230934E+02  0.22986982967E+03  0.23334458366E+03  0.00000000000E+00 0. -1.
<scales pt_clust_5="13000.00000" pt_clust_6="13000.00000" pt_clust_7="13000.00000" pt_clust_8="13000.00000" pt_clust_9="40.11927"></scales>
<clustering>
<clus scale="   40.119">  1  9  2 -1</clus>
<clus scale="   80.241">  5  6 -1 -1</clus>
<clus scale="   80.340">  2  5  1 -1</clus>
<clus scale="   91.993">  7  8 -1 -1</clus>
<clus scale="   40.119">  1  5  2 -1</clus>
</clustering>
</event>
<event>
 9    2  0.1488992E-004  0.1287460E+03  0.7546771E-02  0.1232600E+00
          2   -1    0    0  502    0 -0.00000000000E+00  0.00000000000E+00  0.18880070333E+04  0.18880070333E+04  0.00000000000E+00 0. -1.
         21   -1    0    0  501  502  0.00000000000E+00 -0.00000000000E+00 -0.25534446716E+02  0.25534446716E+02  0.00000000000E+00 0. -1.
         24    2    1    2    0    0 -0.68905730675E+02 -0.78018655405E+02  0.15692443913E+04  0.15745941881E+04  0.77356235559E+02 0.  0.
         23    2    1    2    0    0  0.10879513066E+02  0.32952812670E+02  0.15807743248E+03  0.18511718825E+03  0.89864604047E+02 0.  0.
        -13    1    3    3    0    0  0.23656321273E+01 -0.27782805302E+02  0.14338010734E+03  0.14606620303E+03  0.00000000000E+00 0.  1.
         14    1    3    3    0    0 -0.71271362802E+02 -0.50235850103E+02  0.14258642840E+04  0.14285279851E+04  0.00000000000E+00 0. -1.
        -13    1    4    4    0    0  0.34935627367E+02 -0.70117378043E+01  0.23497296650E+02  0.42682378992E+02  0.00000000000E+00 0. -1.
         13    1    4    4    0    0 -0.24056114300E+02  0.39964550474E+02  0.13458013583E+03  0.14243480926E+03  0.00000000000E+00 0.  1.
          1    1    1    2  501    0  0.58026217609E+02  0.45065842735E+02  0.13515076275E+03  0.15383010363E+03  0.00000000000E+00 0. -1.
<scales pt_clust_5="13000.00000" pt_clust_6="13000.00000" pt_clust_7="13000.00000" pt_clust_8="13000.00000" pt_clust_9="73.47089"></scales>
<clustering>
<clus scale="   73.471">  2  9  1 -1</clus>
<clus scale="   77.356">  5  6 -1 -1</clus>
<clus scale="   89.865">  7  8 -1 -1</clus>
<clus scale="  120.349">  1  5  2 -1</clus>
<clus scale="   73.471">  2  5  1 -1</clus>
</clustering>
</event>
<event>
 9    2  0.1488992E-004  0.1352945E+03  0.7546771E-02  0.1222290E+00
         21   -1    0    0  501  502  0.00000000000E+00  0.00000000000E+00  0.15297719907E+03  0.15297719907E+03  0.00000000000E+00 0.  1.
          2   -1    0    0  502    0 -0.00000000000E+00 -0.00000000000E+00 -0.15949188140E+03  0.15949188140E+03  0.00000000000E+00 0. -1.
         24    2    1    2    0    0  0.95515204328E+02  0.44700183140E+02 -0.59033216370E+02  0.14548262854E+03  0.80987739448E+02 0.  0.
         23    2    1    2    0    0 -0.88816375569E+02 -0.15434602623E+02  0.40901691402E+02  0.13479484522E+03  0.91488394953E+02 0.  0.
        -11    1    3    3    0    0  0.48177739551E+02 -0.19466267955E+02 -0.33207287522E+02  0.61666474854E+02  0.00000000000E+00 0.  1.
         12    1    3    3    0    0  0.47337464776E+02  0.64166451095E+02 -0.25825928847E+02  0.83816153684E+02  0.00000000000E+00 0. -1.
        -13    1    4    4    0    0 -0.60007034398E+02 -0.14217789958E+02  0.70368612359E+02  0.93566721294E+02  0.00000000000E+00 0.  1.
         13    1    4    4    0    0 -0.28809341172E+02 -0.12168126650E+01 -0.29466920957E+02  0.41228123926E+02  0.00000000000E+00 0. -1.
          1    1    1    2  501    0 -0.66988287582E+01 -0.29265580517E+02  0.11616842641E+02  0.32191606712E+02  0.00000000000E+00 0. -1.
<scales pt_clust_5="13000.00000" pt_clust_6="13000.00000" pt_clust_7="13000.00000" pt_clust_8="13000.00000" pt_clust_9="30.02247"></scales>
<clustering>
<clus scale="   30.022">  1  9  2 -1</clus>
<clus scale="   80.988">  5  6 -1 -1</clus>
<clus scale="   91.488">  7  8 -1 -1</clus>
<clus scale="  128.427">  2  5  1 -1</clus>
<clus scale="   30.022">  1  5  2 -1</clus>
</clustering>
</event>
<event>
 9    2  0.1488992E-004  0.1088503E+03  0.7546771E-02  0.1269429E+00
         21   -1    0    0  501  502  0.00000000000E+00  0.00000000000E+00  0.28838237778E+02  0.28838237778E+02  0.00000000000E+00 0.  1.
          2   -1    0    0  502    0 -0.00000000000E+00 -0.00000000000E+00 -0.53872956744E+03  0.53872956744E+03  0.00000000000E+00 0. -1.
         24    2    1    2    0    0  0.20839807069E+02  0.62012381391E+02 -0.22919737169E+03  0.25133413864E+03  0.79734440796E+02 0.  0.
         23    2    1    2    0    0 -0.29915291171E+02 -0.25551801917E+02 -0.16475141595E+03  0.19435499200E+03  0.95304851038E+02 0.  0.
        -11    1    3    3    0    0 -0.23013829320E+02  0.30381919988E+01 -0.24074846884E+02  0.33443462786E+02  0.00000000000E+00 0.  1.
         12    1    3    3    0    0  0.43853636390E+02  0.58974189392E+02 -0.20512252481E+03  0.21789067585E+03  0.00000000000E+00 0. -1.
        -11    1    4    4    0    0  0.11469977603E+02 -0.51121042773E+02 -0.10465564552E+03  0.11703728269E+03  0.00000000000E+00 0. -1.
         11    1    4    4    0    0 -0.41385268774E+02  0.25569240856E+02 -0.60095770424E+02  0.77317709306E+02  0.00000000000E+00 0.  1.
          1    1    1    2  501    0  0.90754841015E+01 -0.36460579475E+02 -0.11594254202E+03  0.12187867458E+03  0.00000000000E+00 0. -1.
<scales pt_clust_5="13000.00000" pt_clust_6="13000.00000" pt_clust_7="13000.00000" pt_clust_8="13000.00000" pt_clust_9="37.57312"></scales>
<clustering>
<clus scale="   37.573">  1  9  2 -1</clus>
<clus scale="   79.734">  5  6 -1 -1</clus>
<clus scale="   95.305">  7  8 -1 -1</clus>
<clus scale="   95.514">  2  5  1 -1</clus>
<clus scale="   37.573">  1  5  2 -1</clus>
</clustering>
</event>
<event>
 9    2  0.1488992E-004  0.1020988E+03  0.7546771E-02  0.1281142E+00
         21   -1    0    0  501  502  0.00000000000E+00  0.00000000000E+00  0.11721839759E+03  0.11721839759E+03  0.00000000000E+00 0. -1.
          2   -1    0    0  502    0 -0.00000000000E+00 -0.00000000000E+00 -0.47530252168E+03  0.47530252168E+03  0.00000000000E+00 0. -1.
         24    2    1    2    0    0  0.37635621198E+02  0.23319552700E+02 -0.37235330614E+03  0.38361871886E+03  0.80969718667E+02 0.  0.
         23    2    1    2    0    0 -0.19855635223E+02 -0.52639304913E+02 -0.62720539655E+02  0.12462175772E+03  0.91823601164E+02 0.  0.
        -11    1    3    3    0    0  0.50793437345E+02  0.31815869740E+02 -0.16282161073E+03  0.17350244888E+03  0.00000000000E+00 0.  1.
         12    1    3    3    0    0 -0.13157816147E+02 -0.84963170397E+01 -0.20953169541E+03  0.21011626998E+03  0.00000000000E+00 0. -1.
        -11    1    4    4    0    0 -0.54955302714E+02 -0.19755033905E+02 -0.43531586810E+02  0.72837804134E+02  0.00000000000E+00 0.  1.
         11    1    4    4    0    0  0.35099667490E+02 -0.32884271008E+02 -0.19188952846E+02  0.51783953586E+02  0.00000000000E+00 0. -1.
          1    1    1    2  501    0 -0.17779985975E+02  0.29319752213E+02  0.76989721713E+02  0.84280442693E+02  0.00000000000E+00 0. -1.
<scales pt_clust_5="13000.00000" pt_clust_6="13000.00000" pt_clust_7="13000.00000" pt_clust_8="13000.00000" pt_clust_9="34.28959"></scales>
<clustering>
<clus scale="   34.290">  1  9  2 -1</clus>
<clus scale="   80.970">  5  6 -1 -1</clus>
<clus scale="   91.824">  7  8 -1 -1</clus>
<clus scale="   92.459">  2  5  1 -1</clus>
<clus scale="   34.290">  1  5  2 -1</clus>
</clustering>
</event>
<event>
 9    2  0.1488992E-004  0.8880755E+02  0.7546771E-02  0.1310962E+00
         21   -1    0    0  501  502  0.00000000000E+00  0.00000000000E+00  0.59112059166E+02  0.59112059166E+02  0.00000000000E+00 0. -1.
         -1   -1    0    0    0  501 -0.00000000000E+00 -0.00000000000E+00 -0.57518915785E+03  0.57518915785E+03  0.00000000000E+00 0.  1.
         24    2    1    2    0    0  0.12734067640E+01  0.96175521267E+01 -0.50136451605E+03  0.50781693758E+03  0.80109582870E+02 0.  0.
         23    2    1    2    0    0  0.17663366273E+02 -0.24355568078E+02  0.79031752051E+01  0.93510305002E+02  0.88184628812E+02 0.  0.
        -13    1    3    3    0    0  0.36031061109E+02  0.19562565616E+02 -0.19079847894E+03  0.19515376221E+03  0.00000000000E+00 0.  1.
         14    1    3    3    0    0 -0.34757654345E+02 -0.99450134892E+01 -0.31056603711E+03  0.31266317537E+03  0.00000000000E+00 0. -1.
        -11    1    4    4    0    0  0.51140615791E+02 -0.20891245614E+02  0.18446371967E+02  0.58241526126E+02  0.00000000000E+00 0.  1.
         11    1    4    4    0    0 -0.33477249518E+02 -0.34643224634E+01 -0.10543196762E+02  0.35268778876E+02  0.00000000000E+00 0. -1.
         -2    1    1    2    0  502 -0.18936773037E+02  0.14738015951E+02 -0.22615757838E+02  0.32973974431E+02  0.00000000000E+00 0.  1.
<scales pt_clust_5="13000.00000" pt_clust_6="13000.00000" pt_clust_7="13000.00000" pt_clust_8="13000.00000" pt_clust_9="23.99605"></scales>
<clustering>
<clus scale="   23.996">  1  9  2 -1</clus>
<clus scale="   80.110">  5  6 -1 -1</clus>
<clus scale="   80.795">  2  5  1 -1</clus>
<clus scale="   88.185">  7  8 -1 -1</clus>
<clus scale="   23.996">  1  5  2 -1</clus>
</clustering>
</event>
<event>
 9    2  0.1488992E-004  0.2485864E+03  0.7546771E-02  0.1115113E+00
         21   -1    0    0  501  502  0.00000000000E+00  0.00000000000E+00  0.20560904793E+03  0.20560904793E+03  0.00000000000E+00 0. -1.
          2   -1    0    0  502    0 -0.00000000000E+00 -0.00000000000E+00 -0.78194005578E+03  0.78194005578E+03  0.00000000000E+00 0. -1.
         23    2    1    2    0    0 -0.24692646799E+03  0.10268790130E+03 -0.56984558552E+03  0.63671054909E+03  0.95701861576E+02 0.  0.
         24    2    1    2    0    0  0.16265401675E+03 -0.40575356951E+02 -0.99610434226E+02  0.21072402274E+03  0.79872939064E+02 0.  0.
        -13    1    4    4    0    0  0.82540557081E+02  0.18633897602E+02 -0.32680279071E+02  0.90709240671E+02  0.00000000000E+00 0.  1.
         14    1    4    4    0    0  0.80113459672E+02 -0.59209254553E+02 -0.66930155155E+02  0.12001478207E+03  0.00000000000E+00 0. -1.
        -11    1    3    3    0    0 -0.91208089143E+00  0.26007952962E+02 -0.61600161354E+02  0.66871708425E+02  0.00000000000E+00 0.  1.
         11    1    3    3    0    0 -0.24601438710E+03  0.76679948341E+02 -0.50824542417E+03  0.56983884066E+03  0.00000000000E+00 0. -1.
          1    1    1    2  501    0  0.84272451238E+02 -0.62112544353E+02  0.93125011906E+02  0.14011453189E+03  0.00000000000E+00 0. -1.
<scales pt_clust_5="13000.00000" pt_clust_6="13000.00000" pt_clust_7="13000.00000" pt_clust_8="13000.00000" pt_clust_9="104.68913"></scales>
<clustering>
<clus scale="   79.873">  5  6 -1 -1</clus>
<clus scale="   95.702">  7  8 -1 -1</clus>
<clus scale="  104.689">  1  9  2 -1</clus>
<clus scale="  242.932">  1  5  2 -1</clus>
<clus scale="  104.689">  1  5  2 -1</clus>
</clustering>
</event>
<event>
 9    2  0.1488992E-004  0.1054746E+03  0.7546771E-02  0.1272968E+00
          2   -1    0    0  502    0 -0.00000000000E+00  0.00000000000E+00  0.85962598400E+03  0.85962598400E+03  0.00000000000E+00 0. -1.
         21   -1    0    0  501  502  0.00000000000E+00 -0.00000000000E+00 -0.32512177185E+02  0.32512177185E+02  0.00000000000E+00 0. -1.
         24    2    1    2    0    0 -0.28878691910E+02 -0.34441659588E+02  0.72224894649E+03  0.72906926737E+03  0.88759501701E+02 0.  0.
         23    2    1    2    0    0  0.85009605246E+01  0.18841873941E+02  0.86321944208E+02  0.13140748219E+03  0.96897707814E+02 0.  0.
        -11    1    3    3    0    0  0.22460227282E+02 -0.27570524574E+02  0.13726285521E+03  0.14179452407E+03  0.00000000000E+00 0.  1.
         12    1    3    3    0    0 -0.51338919192E+02 -0.68711350140E+01  0.58498609128E+03  0.58727474330E+03  0.00000000000E+00 0. -1.
        -13    1    4    4    0    0 -0.43484234136E+02  0.26370654838E+01  0.28934505427E+02  0.52297593989E+02  0.00000000000E+00 0. -1.
         13    1    4    4    0    0  0.51985194660E+02  0.16204808457E+02  0.57387438780E+02  0.79109888198E+02  0.00000000000E+00 0.  1.
          1    1    1    2  501    0  0.20377731386E+02  0.15599785647E+02  0.18542916118E+02  0.31661411636E+02  0.00000000000E+00 0. -1.
<scales pt_clust_5="13000.00000" pt_clust_6="13000.00000" pt_clust_7="13000.00000" pt_clust_8="13000.00000" pt_clust_9="25.66331"></scales>
<clustering>
<clus scale="   25.663">  2  9  1 -1</clus>
<clus scale="   88.760">  5  6 -1 -1</clus>
<clus scale="   96.898">  7  8 -1 -1</clus>
<clus scale="   98.051">  1  5  2 -1</clus>
<clus scale="   25.663">  2  5  1 -1</clus>
</clustering>
</event>
<event>
 9    2  0.1488992E-004  0.1095571E+03  0.7546771E-02  0.1267147E+00
         -1   -1    0    0    0  501 -0.00000000000E+00  0.00000000000E+00  0.35992056663E+03  0.35992056663E+03  0.00000000000E+00 0.  1.
         21   -1    0    0  501  502  0.00000000000E+00 -0.00000000000E+00 -0.13117778002E+03  0.13117778002E+03  0.00000000000E+00 0.  1.
         23    2    1    2    0    0 -0.47572355106E+02 -0.20249842995E+02  0.23355726689E+03  0.25578174988E+03  0.90565564879E+02 0.  0.
         24    2    1    2    0    0  0.69178188061E+02  0.77732028042E+02  0.63303632743E+02  0.14360459681E+03  0.76072599665E+02 0.  0.
        -13    1    4    4    0    0  0.55380236394E+02  0.13443807227E+02  0.51479931464E+02  0.76797720535E+02  0.00000000000E+00 0.  1.
         14    1    4    4    0    0  0.13797951666E+02  0.64288220815E+02  0.11823701279E+02  0.66806876276E+02  0.00000000000E+00 0. -1.
        -11    1    3    3    0    0 -0.42430300521E+02 -0.50040307513E+02  0.20061466438E+03  0.21107014555E+03  0.00000000000E+00 0.  1.
         11    1    3    3    0    0 -0.51420545852E+01  0.29790464518E+02  0.32942602516E+02  0.44711604333E+02  0.00000000000E+00 0. -1.
         -2    1    1    2    0  502 -0.21605832954E+02 -0.57482185047E+02 -0.68118113026E+02  0.91711999966E+02  0.00000000000E+00 0.  1.
<scales pt_clust_5="13000.00000" pt_clust_6="13000.00000" pt_clust_7="13000.00000" pt_clust_8="13000.00000" pt_clust_9="61.40858"></scales>
<clustering>
<clus scale="   61.409">  2  9  1 -1</clus>
<clus scale="   76.073">  5  6 -1 -1</clus>
<clus scale="   90.566">  7  8 -1 -1</clus>
<clus scale="   97.917">  2  5  1 -1</clus>
<clus scale="   61.409">  2  5  1 -1</clus>
</clustering>
</event>
<event>
 9    2  0.1488992E-004  0.1182069E+03  0.7546771E-02  0.1251398E+00
         21   -1    0    0  501  502  0.00000000000E+00  0.00000000000E+00  0.50114211282E+02  0.50114211282E+02  0.00000000000E+00 0.  1.
         -3   -1    0    0    0  501 -0.00000000000E+00 -0.00000000000E+00 -0.79179552923E+03  0.79179552923E+03  0.00000000000E+00 0.  1.
         24    2    1    2    0    0 -0.64021938756E+02  0.26252077091E+02 -0.61233911162E+03  0.62180260313E+03  0.83013911153E+02 0.  0.
         23    2    1    2    0    0  0.44599168616E+02 -0.35449977479E+02 -0.15157721799E+03  0.18918398885E+03  0.97821990786E+02 0.  0.
        -11    1    3    3    0    0 -0.32627649507E+02  0.55111693541E+02 -0.31745924433E+03  0.32385526719E+03  0.00000000000E+00 0.  1.
         12    1    3    3    0    0 -0.31394289249E+02 -0.28859616450E+02 -0.29487986730E+03  0.29794733594E+03  0.00000000000E+00 0. -1.
        -13    1    4    4    0    0  0.43230147185E+02 -0.49563539061E+01 -0.10392401626E+02  0.44737155489E+02  0.00000000000E+00 0. -1.
         13    1    4    4    0    0  0.13690214308E+01 -0.30493623573E+02 -0.14118481636E+03  0.14444683336E+03  0.00000000000E+00 0.  1.
         -4    1    1    2    0  502  0.19422770140E+02  0.91979003882E+01  0.22235011659E+02  0.30923148529E+02  0.00000000000E+00 0.  1.
<scales pt_clust_5="13000.00000" pt_clust_6="13000.00000" pt_clust_7="13000.00000" pt_clust_8="13000.00000" pt_clust_9="21.49059"></scales>
<clustering>
<clus scale="   21.491">  1  9  2 -1</clus>
<clus scale="   83.014">  5  6 -1 -1</clus>
<clus scale="   97.822">  7  8 -1 -1</clus>
<clus scale="  106.278">  2  5  1 -1</clus>
<clus scale="   21.491">  1  5  2 -1</clus>
</clustering>
</event>
<event>
 9    2  0.1488992E-004  0.1470441E+03  0.7546771E-02  0.1214495E+00
          2   -1    0    0  502    0 -0.00000000000E+00  0.00000000000E+00  0.69301790237E+03  0.69301790237E+03  0.00000000000E+00 0. -1.
         21   -1    0    0  501  502  0.00000000000E+00 -0.00000000000E+00 -0.58228544394E+02  0.58228544394E+02  0.00000000000E+00 0. -1.
         23    2    1    2    0    0 -0.16751607108E+02  0.72288284338E+02  0.22521413549E+03  0.25419775238E+03  0.91590818857E+02 0.  0.
         24    2    1    2    0    0  0.12561877425E+03 -0.52755807401E+00  0.24883036610E+03  0.29006905584E+03  0.80269242570E+02 0.  0.
        -11    1    4    4    0    0  0.66054728474E+02  0.11873263878E+02  0.54554816483E+02  0.86489476530E+02  0.00000000000E+00 0.  1.
         12    1    4    4    0    0  0.59564045773E+02 -0.12400821952E+02  0.19427554962E+03  0.20357957931E+03  0.00000000000E+00 0. -1.
        -13    1    3    3    0    0 -0.36123095544E+02  0.50315043616E+02  0.59408984138E+02  0.85824874262E+02  0.00000000000E+00 0.  1.
         13    1    3    3    0    0  0.19371488435E+02  0.21973240722E+02  0.16580515135E+03  0.16837287812E+03  0.00000000000E+00 0. -1.
          1    1    1    2  501    0 -0.10886716714E+03 -0.71760726264E+02  0.16074485638E+03  0.20697963853E+03  0.00000000000E+00 0. -1.
<scales pt_clust_5="13000.00000" pt_clust_6="13000.00000" pt_clust_7="13000.00000" pt_clust_8="13000.00000" pt_clust_9="123.20235"></scales>
<clustering>
<clus scale="   80.269">  5  6 -1 -1</clus>
<clus scale="   91.591">  7  8 -1 -1</clus>
<clus scale="  117.877">  1  7  2 -1</clus>
<clus scale="  123.202">  2  9  1 -1</clus>
<clus scale="  123.202">  2  5  1 -1</clus>
</clustering>
</event>
<event>
 9    2  0.1488992E-004  0.9510914E+02  0.7546771E-02  0.1299375E+00
         21   -1    0    0  501  502  0.00000000000E+00  0.00000000000E+00  0.33507064907E+02  0.33507064907E+02  0.00000000000E+00 0. -1.
          2   -1    0    0  502    0 -0.00000000000E+00 -0.00000000000E+00 -0.42614474587E+03  0.42614474587E+03  0.00000000000E+00 0. -1.
         24    2    1    2    0    0 -0.25072242457E+02 -0.79513329049E+00 -0.22953065369E+03  0.24436215926E+03  0.79995589341E+02 0.  0.
         23    2    1    2    0    0 -0.15564771920E+02  0.20310308244E+01 -0.87160383439E+02  0.12914566108E+03  0.93996181426E+02 0.  0.
        -11    1    3    3    0    0 -0.52745952220E+02 -0.25808613461E+01 -0.18011465722E+03  0.18769679290E+03  0.00000000000E+00 0.  1.
         12    1    3    3    0    0  0.27673709763E+02  0.17857280556E+01 -0.49415996478E+02  0.56665366360E+02  0.00000000000E+00 0. -1.
        -11    1    4    4    0    0  0.63834197894E+01 -0.19602869090E+02 -0.95110118279E+02  0.97318832318E+02  0.00000000000E+00 0.  1.
         11    1    4    4    0    0 -0.21948191710E+02  0.21633899915E+02  0.79497348395E+01  0.31826828759E+02  0.00000000000E+00 0. -1.
          1    1    1    2  501    0  0.40637014377E+02 -0.12358975340E+01 -0.75946643831E+02  0.86143990443E+02  0.00000000000E+00 0. -1.
<scales pt_clust_5="13000.00000" pt_clust_6="13000.00000" pt_clust_7="13000.00000" pt_clust_8="13000.00000" pt_clust_9="40.65582"></scales>
<clustering>
<clus scale="   40.656">  1  9  2 -1</clus>
<clus scale="   79.996">  5  6 -1 -1</clus>
<clus scale="   81.300">  2  5  1 -1</clus>
<clus scale="   93.996">  7  8 -1 -1</clus>
<clus scale="   40.656">  1  5  2 -1</clus>
</clustering>
</event>
<event>
 9    2  0.1488992E-004  0.9312588E+02  0.7546771E-02  0.1299059E+00
         21   -1    0    0  501  502  0.00000000000E+00  0.00000000000E+00  0.67997973533E+02  0.67997973533E+02  0.00000000000E+00 0.  1.
          2   -1    0    0  502    0 -0.00000000000E+00 -0.00000000000E+00 -0.45654587505E+03  0.45654587505E+03  0.00000000000E+00 0. -1.
         23    2    1    2    0    0  0.40459280360E+02 -0.22940059016E+01 -0.26105539435E+03  0.27803967059E+03  0.86682891458E+02 0.  0.
         24    2    1    2    0    0  0.74067694032E+01 -0.26653889772E+02  0.21372794627E+02  0.87475823723E+02  0.80186864965E+02 0.  0.
        -11    1    4    4    0    0 -0.66560251549E+01  0.24182791760E+02  0.23932205769E+02  0.34667860637E+02  0.00000000000E+00 0.  1.
         12    1    4    4    0    0  0.14062794558E+02 -0.50836681532E+02 -0.25594111416E+01  0.52807963086E+02  0.00000000000E+00 0. -1.
        -13    1    3    3    0    0 -0.23113240779E+02 -0.15612591870E+02 -0.50465694208E+02  0.57660742418E+02  0.00000000000E+00 0.  1.
         13    1    3    3    0    0  0.63572521139E+02  0.13318585969E+02 -0.21058970014E+03  0.22037892817E+03  0.00000000000E+00 0. -1.
          1    1    1    2  501    0 -0.47866049763E+02  0.28947895674E+02 -0.14886530179E+03  0.15902835427E+03  0.00000000000E+00 0. -1.
<scales pt_clust_5="13000.00000" pt_clust_6="13000.00000" pt_clust_7="13000.00000" pt_clust_8="13000.00000" pt_clust_9="55.93874"></scales>
<clustering>
<clus scale="   55.939">  1  9  2 -1</clus>
<clus scale="   80.187">  5  6 -1 -1</clus>
<clus scale="   86.683">  7  8 -1 -1</clus>
<clus scale="   87.112">  1  5  2 -1</clus>
<clus scale="   55.939">  1  5  2 -1</clus>
</clustering>
</event>
<event>
 9    2  0.1488992E-004  0.1313951E+03  0.7546771E-02  0.1230768E+00
         21   -1    0    0  501  502  0.00000000000E+00  0.00000000000E+00  0.55929201267E+02  0.55929201267E+02  0.00000000000E+00 0. -1.
          2   -1    0    0  502    0 -0.00000000000E+00 -0.00000000000E+00 -0.40033507102E+03  0.40033507102E+03  0.00000000000E+00 0. -1.
         24    2    1    2    0    0  0.66350169734E+02  0.18386019354E+02 -0.12543930201E+03  0.16390145568E+03  0.79926703648E+02 0.  0.
         23    2    1    2    0    0 -0.10151791615E+03 -0.44993653205E+02 -0.17934394637E+03  0.23307800665E+03  0.99150340152E+02 0.  0.
        -13    1    3    3    0    0  0.12808946223E+02  0.20230780330E+02 -0.10312267829E+03  0.10586614357E+03  0.00000000000E+00 0.  1.
         14    1    3    3    0    0  0.53541223511E+02 -0.18447609766E+01 -0.22316623714E+02  0.58035312114E+02  0.00000000000E+00 0. -1.
        -11    1    4    4    0    0 -0.93794858682E+02  0.68331830850E+01 -0.94241982296E+02  0.13313797029E+03  0.00000000000E+00 0. -1.
         11    1    4    4    0    0 -0.77230574700E+01 -0.51826836290E+02 -0.85101964078E+02  0.99940036354E+02  0.00000000000E+00 0.  1.
          1    1    1    2  501    0  0.35167746418E+02  0.26607633851E+02 -0.39622621374E+02  0.59284809959E+02  0.00000000000E+00 0. -1.
<scales pt_clust_5="13000.00000" pt_clust_6="13000.00000" pt_clust_7="13000.00000" pt_clust_8="13000.00000" pt_clust_9="44.09917"></scales>
<clustering>
<clus scale="   44.099">  1  9  2 -1</clus>
<clus scale="   79.927">  5  6 -1 -1</clus>
<clus scale="   99.150">  7  8 -1 -1</clus>
<clus scale="  117.568">  2  5  1 -1</clus>
<clus scale="   44.099">  1  5  2 -1</clus>
</clustering>
</event>
<event>
 9    2  0.1488992E-004  0.1063713E+03  0.7546771E-02  0.1271098E+00
          2   -1    0    0  502    0 -0.00000000000E+00  0.00000000000E+00  0.49688263048E+02  0.49688263048E+02  0.00000000000E+00 0. -1.
         21   -1    0    0  501  502  0.00000000000E+00 -0.00000000000E+00 -0.63500290036E+03  0.63500290036E+03  0.00000000000E+00 0.  1.
         24    2    1    2    0    0  0.41676716617E+02  0.58639364803E+02 -0.43426468881E+02  0.11302724637E+03  0.75589525800E+02 0.  0.
         23    2    1    2    0    0  0.22356202188E+02 -0.58600985444E+02 -0.22713697350E+03  0.25046533224E+03  0.84898778862E+02 0.  0.
        -13    1    3    3    0    0  0.21156804860E+02  0.34803088707E+01 -0.49419822620E+02  0.53870602461E+02  0.00000000000E+00 0.  1.
         14    1    3    3    0    0  0.20519911757E+02  0.55159055932E+02  0.59933537396E+01  0.59156643912E+02  0.00000000000E+00 0. -1.
        -13    1    4    4    0    0 -0.31094049155E+02 -0.17086283226E+02 -0.54443030496E+02  0.64983263514E+02  0.00000000000E+00 0. -1.
         13    1    4    4    0    0  0.53450251342E+02 -0.41514702218E+02 -0.17269394300E+03  0.18548206873E+03  0.00000000000E+00 0.  1.
          1    1    1    2  501    0 -0.64032918805E+02 -0.38379358432E-01 -0.31475119494E+03  0.32119858480E+03  0.00000000000E+00 0. -1.
<scales pt_clust_5="13000.00000" pt_clust_6="13000.00000" pt_clust_7="13000.00000" pt_clust_8="13000.00000" pt_clust_9="64.03293"></scales>
<clustering>
<clus scale="   64.033">  2  9  1 -1</clus>
<clus scale="   75.590">  5  6 -1 -1</clus>
<clus scale="   84.899">  7  8 -1 -1</clus>
<clus scale="   99.100">  1  5  2 -1</clus>
<clus scale="   64.033">  2  5  1 -1</clus>
</clustering>
</event>
<event>
 9    2  0.1488992E-004  0.1412300E+03  0.7546771E-02  0.1215035E+00
         21   -1    0    0  501  502  0.00000000000E+00  0.00000000000E+00  0.32917312992E+03  0.32917312992E+03  0.00000000000E+00 0. -1.
          4   -1    0    0  502    0 -0.00000000000E+00 -0.00000000000E+00 -0.12643526033E+03  0.12643526033E+03  0.00000000000E+00 0. -1.
         24    2    1    2    0    0 -0.25808000690E+02 -0.12871398629E+03 -0.20880127374E+02  0.15442018847E+03  0.78589259582E+02 0.  0.
         23    2    1    2    0    0  0.42187175651E+02  0.50529171928E+02  0.91180799328E+02  0.14652484514E+03  0.93928893703E+02 0.  0.
        -13    1    3    3    0    0  0.17344262426E+02 -0.18002532757E+02  0.16385266426E+02  0.29889656749E+02  0.00000000000E+00 0.  1.
         14    1    3    3    0    0 -0.43152263115E+02 -0.11071145354E+03 -0.37265393800E+02  0.12453053172E+03  0.00000000000E+00 0. -1.
        -13    1    4    4    0    0 -0.29425987803E+02  0.14676666129E+02  0.38658123417E+02  0.50751786107E+02  0.00000000000E+00 0. -1.
         13    1    4    4    0    0  0.71613163454E+02  0.35852505798E+02  0.52522675911E+02  0.95773059034E+02  0.00000000000E+00 0.  1.
          3    1    1    2  501    0 -0.16379174961E+02  0.78184814365E+02  0.13243719763E+03  0.15466335663E+03  0.00000000000E+00 0. -1.
<scales pt_clust_5="13000.00000" pt_clust_6="13000.00000" pt_clust_7="13000.00000" pt_clust_8="13000.00000" pt_clust_9="79.88205"></scales>
<clustering>
<clus scale="   78.589">  5  6 -1 -1</clus>
<clus scale="   79.882">  1  9  2 -1</clus>
<clus scale="   93.929">  7  8 -1 -1</clus>
<clus scale="  131.528">  2  5  1 -1</clus>
<clus scale="   79.882">  1  5  2 -1</clus>
</clustering>
</event>
<event>
 9    2  0.1488992E-004  0.9290582E+02  0.7546771E-02  0.1301792E+00
         21   -1    0    0  501  502  0.00000000000E+00  0.00000000000E+00  0.61946890134E+02  0.61946890134E+02  0.00000000000E+00 0. -1.
          2   -1    0    0  502    0 -0.00000000000E+00 -0.00000000000E+00 -0.38498483235E+03  0.38498483235E+03  0.00000000000E+00 0. -1.
         24    2    1    2    0    0 -0.63588806812E+02 -0.14456220857E+02 -0.85987496397E+02  0.13254039692E+03  0.76945361180E+02 0.  0.
         23    2    1    2    0    0 -0.25387095810E+02  0.31856761589E+02 -0.54465547978E+02  0.11053663470E+03  0.87134917237E+02 0.  0.
        -13    1    3    3    0    0 -0.40297628913E+02  0.28307822129E+02 -0.27392233767E+02  0.56352161986E+02  0.00000000000E+00 0.  1.
         14    1    3    3    0    0 -0.23291177899E+02 -0.42764042986E+02 -0.58595262629E+02  0.76188234939E+02  0.00000000000E+00 0. -1.
        -13    1    4    4    0    0 -0.26569340578E+02 -0.77986812769E+01 -0.64000479326E+02  0.69733855783E+02  0.00000000000E+00 0.  1.
         13    1    4    4    0    0  0.11822447677E+01  0.39655442866E+02  0.95349313484E+01  0.40802778918E+02  0.00000000000E+00 0. -1.
          1    1    1    2  501    0  0.88975902623E+02 -0.17400540732E+02 -0.18258489784E+03  0.20385469086E+03  0.00000000000E+00 0. -1.
<scales pt_clust_5="13000.00000" pt_clust_6="13000.00000" pt_clust_7="13000.00000" pt_clust_8="13000.00000" pt_clust_9="90.66145"></scales>
<clustering>
<clus scale="   76.945">  5  6 -1 -1</clus>
<clus scale="   87.135">  7  8 -1 -1</clus>
<clus scale="   90.661">  1  9  2 -1</clus>
<clus scale="   83.424">  2  5  1 -1</clus>
<clus scale="   90.661">  1  5  2 -1</clus>
</clustering>
</event>
<event>
 9    2  0.1488992E-004  0.1441493E+03  0.7546771E-02  0.1208137E+00
         21   -1    0    0  501  502  0.00000000000E+00  0.00000000000E+00  0.97253893684E+02  0.97253893684E+02  0.00000000000E+00 0.  1.
         -1   -1    0    0    0  501 -0.00000000000E+00 -0.00000000000E+00 -0.40494005738E+03  0.40494005738E+03  0.00000000000E+00 0.  1.
         24    2    1    2    0    0 -0.60279814393E+02  0.11177339027E+03 -0.19673853160E+03  0.24827048478E+03  0.82493860379E+02 0.  0.
         23    2    1    2    0    0  0.98644637573E+02 -0.58102532078E+02 -0.12177896636E+03  0.18706736351E+03  0.84008410798E+02 0.  0.
        -13    1    3    3    0    0  0.99990721486E+00  0.48688080054E+02 -0.12703563607E+03  0.13604992387E+03  0.00000000000E+00 0.  1.
         14    1    3    3    0    0 -0.61279721607E+02  0.63085310214E+02 -0.69702895536E+02  0.11222056091E+03  0.00000000000E+00 0. -1.
        -11    1    4    4    0    0  0.10026866516E+03 -0.33849050017E+02 -0.62278664968E+02  0.12279330401E+03  0.00000000000E+00 0.  1.
         11    1    4    4    0    0 -0.16240275874E+01 -0.24253482061E+02 -0.59500301395E+02  0.64274059493E+02  0.00000000000E+00 0. -1.
         -2    1    1    2    0  502 -0.38364823181E+02 -0.53670858190E+02  0.10831334271E+02  0.66856102778E+02  0.00000000000E+00 0.  1.
<scales pt_clust_5="13000.00000" pt_clust_6="13000.00000" pt_clust_7="13000.00000" pt_clust_8="13000.00000" pt_clust_9="65.97288"></scales>
<clustering>
<clus scale="   65.973">  1  9  2 -1</clus>
<clus scale="   82.494">  5  6 -1 -1</clus>
<clus scale="   84.008">  7  8 -1 -1</clus>
<clus scale="  143.272">  2  5  1 -1</clus>
<clus scale="   65.973">  1  5  2 -1</clus>
</clustering>
</event>
<event>
 9    2  0.1488992E-004  0.1127872E+03  0.7546771E-02  0.1258177E+00
         21   -1    0    0  501  502  0.00000000000E+00  0.00000000000E+00  0.32615966651E+03  0.32615966651E+03  0.00000000000E+00 0.  1.
          2   -1    0    0  502    0 -0.00000000000E+00 -0.00000000000E+00 -0.11335756685E+03  0.11335756685E+03  0.00000000000E+00 0. -1.
         23    2    1    2    0    0  0.64777849961E+02  0.85642320004E+01 -0.64768327617E+02  0.12894428044E+03  0.90344757899E+02 0.  0.
         24    2    1    2    0    0 -0.83854400281E+02 -0.22513353350E+01  0.22066919972E+03  0.25022796858E+03  0.82960904039E+02 0.  0.
        -13    1    4    4    0    0 -0.74603619409E+02  0.64309157902E+01  0.22475404685E+03  0.23689963757E+03  0.00000000000E+00 0.  1.
         14    1    4    4    0    0 -0.92507808713E+01 -0.86822511252E+01 -0.40848471333E+01  0.13328331007E+02  0.00000000000E+00 0. -1.
        -13    1    3    3    0    0  0.48763210769E+01  0.38142362591E+02 -0.40452793504E+01  0.38665005060E+02  0.00000000000E+00 0.  1.
         13    1    3    3    0    0  0.59901528884E+02 -0.29578130590E+02 -0.60723048266E+02  0.90279275377E+02  0.00000000000E+00 0. -1.
          1    1    1    2  501    0  0.19076550320E+02 -0.63128966654E+01  0.56901227567E+02  0.60344984340E+02  0.00000000000E+00 0. -1.
<scales pt_clust_5="13000.00000" pt_clust_6="13000.00000" pt_clust_7="13000.00000" pt_clust_8="13000.00000" pt_clust_9="20.09397"></scales>
<clustering>
<clus scale="   20.094">  1  9  2 -1</clus>
<clus scale="   82.961">  5  6 -1 -1</clus>
<clus scale="   90.345">  7  8 -1 -1</clus>
<clus scale="  106.964">  1  5  2 -1</clus>
<clus scale="   20.094">  1  5  2 -1</clus>
</clustering>
</event>
<event>
 9    2  0.1488992E-004  0.1009274E+03  0.7546771E-02  0.1284012E+00
          4   -1    0    0  502    0 -0.00000000000E+00  0.00000000000E+00  0.46455252268E+03  0.46455252268E+03  0.00000000000E+00 0. -1.
         21   -1    0    0  501  502  0.00000000000E+00 -0.00000000000E+00 -0.77005527331E+02  0.77005527331E+02  0.00000000000E+00 0. -1.
         23    2    1    2    0    0 -0.20661466613E+02 -0.42547774083E+02  0.38092218308E+03  0.39451593444E+03  0.91125757493E+02 0.  0.
         24    2    1    2    0    0  0.35275226362E+02  0.11663972814E+02  0.42433154269E+02  0.97548595677E+02  0.79591243743E+02 0.  0.
        -13    1    4    4    0    0 -0.92586195369E+01  0.35087749420E+02  0.25900944253E+02  0.44583978156E+02  0.00000000000E+00 0.  1.
         14    1    4    4    0    0  0.44533845899E+02 -0.23423776606E+02  0.16532210017E+02  0.52964617520E+02  0.00000000000E+00 0. -1.
        -13    1    3    3    0    0  0.24661032986E+02 -0.43978395618E+02  0.12821765613E+03  0.13777529957E+03  0.00000000000E+00 0.  1.
         13    1    3    3    0    0 -0.45322499600E+02  0.14306215350E+01  0.25270452696E+03  0.25674063487E+03  0.00000000000E+00 0. -1.
          3    1    1    2  501    0 -0.14613759749E+02  0.30883801269E+02 -0.35808342002E+02  0.49493519897E+02  0.00000000000E+00 0. -1.
<scales pt_clust_5="13000.00000" pt_clust_6="13000.00000" pt_clust_7="13000.00000" pt_clust_8="13000.00000" pt_clust_9="34.16681"></scales>
<clustering>
<clus scale="   34.167">  2  9  1 -1</clus>
<clus scale="   79.591">  5  6 -1 -1</clus>
<clus scale="   90.649">  2  5  1 -1</clus>
<clus scale="   91.126">  7  8 -1 -1</clus>
<clus scale="   34.167">  2  5  1 -1</clus>
</clustering>
</event>
<event>
 9    2  0.1488992E-004  0.3917022E+03  0.7546771E-02  0.1077738E+00
          2   -1    0    0  502    0 -0.00000000000E+00  0.00000000000E+00  0.35096443633E+03  0.35096443633E+03  0.00000000000E+00 0. -1.
         21   -1    0    0  501  502  0.00000000000E+00 -0.00000000000E+00 -0.72332900409E+03  0.72332900409E+03  0.00000000000E+00 0. -1.
         24    2    1    2    0    0  0.13477566070E+03  0.45977017205E+02  0.37965040492E+02  0.16918691980E+03  0.83093349331E+02 0.  0.
         23    2    1    2    0    0  0.13080421415E+03 -0.34341380258E+03 -0.79100285772E+02  0.38673004036E+03  0.90887219513E+02 0.  0.
        -13    1    3    3    0    0  0.12738098200E+03  0.64576774332E+02  0.41801599638E+02  0.14880674747E+03  0.00000000000E+00 0.  1.
         14    1    3    3    0    0  0.73946786981E+01 -0.18599757127E+02 -0.38365591457E+01  0.20380172333E+02  0.00000000000E+00 0. -1.
        -13    1    4    4    0    0  0.19628714028E+02 -0.10739265849E+03  0.13249936730E+02  0.10997286181E+03  0.00000000000E+00 0.  1.
         13    1    4    4    0    0  0.11117550012E+03 -0.23602114409E+03 -0.92350222502E+02  0.27675717855E+03  0.00000000000E+00 0. -1.
          1    1    1    2  501    0 -0.26557987485E+03  0.29743678537E+03 -0.33122932248E+03  0.51837648026E+03  0.00000000000E+00 0. -1.
<scales pt_clust_5="13000.00000" pt_clust_6="13000.00000" pt_clust_7="13000.00000" pt_clust_8="13000.00000" pt_clust_9="381.01197"></scales>
<clustering>
<clus scale="   83.093">  5  6 -1 -1</clus>
<clus scale="   90.887">  7  8 -1 -1</clus>
<clus scale="  164.872">  1  5  2 -1</clus>
<clus scale="  381.012">  2  9  1 -1</clus>
<clus scale="  381.012">  2  5  1 -1</clus>
</clustering>
</event>
<event>
 9    2  0.1488992E-004  0.1347067E+03  0.7546771E-02  0.1246424E+00
         -1   -1    0    0    0  501 -0.00000000000E+00  0.00000000000E+00  0.11860320948E+03  0.11860320948E+03  0.00000000000E+00 0.  1.
         21   -1    0    0  501  502  0.00000000000E+00 -0.00000000000E+00 -0.22363653885E+03  0.22363653885E+03  0.00000000000E+00 0.  1.
         24    2    1    2    0    0 -0.19817714719E+01  0.60499137089E+01  0.91093536767E+01  0.79852309812E+02  0.79075167934E+02 0.  0.
         23    2    1    2    0    0 -0.82081866611E+02  0.51067123749E+02 -0.46670623282E+02  0.14039756162E+03  0.90487812869E+02 0.  0.
        -13    1    3    3    0    0 -0.54792569473E+01  0.21689504347E+02  0.39557008619E+02  0.45444623295E+02  0.00000000000E+00 0.  1.
         14    1    3    3    0    0  0.34974854754E+01 -0.15639590638E+02 -0.30447654942E+02  0.34407686517E+02  0.00000000000E+00 0. -1.
        -11    1    4    4    0    0 -0.84726741446E+02  0.30559270812E+02 -0.66336310453E+02  0.11186150291E+03  0.00000000000E+00 0.  1.
         11    1    4    4    0    0  0.26448748349E+01  0.20507852938E+02  0.19665687171E+02  0.28536058714E+02  0.00000000000E+00 0. -1.
         -2    1    1    2    0  502  0.84063638083E+02 -0.57117037458E+02 -0.67472059760E+02  0.12198987689E+03  0.00000000000E+00 0.  1.
<scales pt_clust_5="13000.00000" pt_clust_6="13000.00000" pt_clust_7="13000.00000" pt_clust_8="13000.00000" pt_clust_9="99.78899"></scales>
<clustering>
<clus scale="   79.075">  5  6 -1 -1</clus>
<clus scale="   79.331">  1  5  2 -1</clus>
<clus scale="   90.488">  7  8 -1 -1</clus>
<clus scale="   99.789">  2  9  1 -1</clus>
<clus scale="   99.789">  2  5  1 -1</clus>
</clustering>
</event>
<event>
 9    2  0.1488992E-004  0.1322871E+03  0.7546771E-02  0.1226831E+00
         -3   -1    0    0    0  501 -0.00000000000E+00  0.00000000000E+00  0.13786382025E+03  0.13786382025E+03  0.00000000000E+00 0.  1.
         21   -1    0    0  501  502  0.00000000000E+00 -0.00000000000E+00 -0.25531731964E+03  0.25531731964E+03  0.00000000000E+00 0.  1.
         23    2    1    2    0    0 -0.90894128870E+01  0.10080428393E+03  0.24094715569E+02  0.13870584225E+03  0.91731315646E+02 0.  0.
         24    2    1    2    0    0  0.23750321413E+02 -0.86194454066E+02 -0.96053098816E+01  0.12091886925E+03  0.80842744156E+02 0.  0.
        -13    1    4    4    0    0  0.49441297966E+02 -0.32022896935E+02  0.52852604074E+01  0.59142555324E+02  0.00000000000E+00 0.  1.
         14    1    4    4    0    0 -0.25690976553E+02 -0.54171557131E+02 -0.14890570289E+02  0.61776313922E+02  0.00000000000E+00 0. -1.
        -13    1    3    3    0    0  0.10968835741E+02  0.29069401090E+02  0.50824070723E+02  0.59568713282E+02  0.00000000000E+00 0.  1.
         13    1    3    3    0    0 -0.20058248628E+02  0.71734882841E+02 -0.26729355154E+02  0.79137128967E+02  0.00000000000E+00 0. -1.
         -4    1    1    2    0  502 -0.14660908526E+02 -0.14609829864E+02 -0.13194290508E+03  0.13355642840E+03  0.00000000000E+00 0.  1.
<scales pt_clust_5="13000.00000" pt_clust_6="13000.00000" pt_clust_7="13000.00000" pt_clust_8="13000.00000" pt_clust_9="20.69757"></scales>
<clustering>
<clus scale="   20.698">  2  9  1 -1</clus>
<clus scale="   80.843">  5  6 -1 -1</clus>
<clus scale="   91.731">  7  8 -1 -1</clus>
<clus scale="  124.983">  2  5  1 -1</clus>
<clus scale="   20.698">  2  5  1 -1</clus>
</clustering>
</event>
<event>
 9    2  0.1488992E-004  0.1121348E+03  0.7546771E-02  0.1264175E+00
         21   -1    0    0  501  502  0.00000000000E+00  0.00000000000E+00  0.21676759925E+03  0.21676759925E+03  0.00000000000E+00 0.  1.
          2   -1    0    0  502    0 -0.00000000000E+00 -0.00000000000E+00 -0.23719617400E+03  0.23719617400E+03  0.00000000000E+00 0. -1.
         23    2    1    2    0    0 -0.55339224289E+02 -0.13021331556E+02 -0.18751164491E+03  0.21887389051E+03  0.97535522500E+02 0.  0.
         24    2    1    2    0    0  0.32412519693E+02  0.54104989424E+02  0.59226453988E+02  0.11741851672E+03  0.79381445591E+02 0.  0.
        -13    1    4    4    0    0  0.47566553160E+02  0.62576983524E+02  0.31447575761E+02  0.84660533117E+02  0.00000000000E+00 0.  1.
         14    1    4    4    0    0 -0.15154033467E+02 -0.84719941005E+01  0.27778878227E+02  0.32757983606E+02  0.00000000000E+00 0. -1.
        -11    1    3    3    0    0 -0.17015474122E+02  0.40790258311E+02 -0.99076371809E+02  0.10848732176E+03  0.00000000000E+00 0.  1.
         11    1    3    3    0    0 -0.38323750167E+02 -0.53811589867E+02 -0.88435273102E+02  0.11038656875E+03  0.00000000000E+00 0. -1.
          1    1    1    2  501    0  0.22926704597E+02 -0.41083657868E+02  0.10785661617E+03  0.11767136601E+03  0.00000000000E+00 0. -1.
<scales pt_clust_5="13000.00000" pt_clust_6="13000.00000" pt_clust_7="13000.00000" pt_clust_8="13000.00000" pt_clust_9="47.04786"></scales>
<clustering>
<clus scale="   47.048">  1  9  2 -1</clus>
<clus scale="   79.381">  5  6 -1 -1</clus>
<clus scale="   96.760">  1  5  2 -1</clus>
<clus scale="   97.536">  7  8 -1 -1</clus>
<clus scale="   47.048">  1  5  2 -1</clus>
</clustering>
</event>
<event>
 9    2  0.1488992E-004  0.9458231E+02  0.7546771E-02  0.1301115E+00
         21   -1    0    0  501  502  0.00000000000E+00  0.00000000000E+00  0.55128243615E+03  0.55128243615E+03  0.00000000000E+00 0. -1.
         -3   -1    0    0    0  501 -0.00000000000E+00 -0.00000000000E+00 -0.26525590478E+02  0.26525590478E+02  0.00000000000E+00 0.  1.
         24    2    1    2    0    0  0.38222517687E+01 -0.20222079697E+01  0.99132355478E+02  0.12656055205E+03  0.78559852966E+02 0.  0.
         23    2    1    2    0    0 -0.91216709723E+01  0.46447274823E+02  0.28039096669E+03  0.29927890297E+03  0.93317808274E+02 0.  0.
        -11    1    3    3    0    0  0.30657237617E+02  0.18291037332E+02  0.20830877161E+02  0.41332235704E+02  0.00000000000E+00 0.  1.
         12    1    3    3    0    0 -0.26834985848E+02 -0.20313245301E+02  0.78301478317E+02  0.85228316343E+02  0.00000000000E+00 0. -1.
        -11    1    4    4    0    0 -0.37331270104E+02  0.14523160694E+02  0.22922665495E+03  0.23270024767E+03  0.00000000000E+00 0. -1.
         11    1    4    4    0    0  0.28209599131E+02  0.31924114129E+02  0.51164311739E+02  0.66578655302E+02  0.00000000000E+00 0.  1.
         -4    1    1    2    0  502  0.52994192036E+01 -0.44425066854E+02  0.14523352351E+03  0.15196857161E+03  0.00000000000E+00 0.  1.
<scales pt_clust_5="13000.00000" pt_clust_6="13000.00000" pt_clust_7="13000.00000" pt_clust_8="13000.00000" pt_clust_9="44.74003"></scales>
<clustering>
<clus scale="   44.740">  1  9  2 -1</clus>
<clus scale="   78.560">  5  6 -1 -1</clus>
<clus scale="   80.058">  2  5  1 -1</clus>
<clus scale="   93.318">  7  8 -1 -1</clus>
<clus scale="   44.740">  1  5  2 -1</clus>
</clustering>
</event>
<event>
 9    2  0.1488992E-004  0.2140754E+03  0.7546771E-02  0.1153077E+00
         -1   -1    0    0    0  501 -0.00000000000E+00  0.00000000000E+00  0.94418916579E+02  0.94418916579E+02  0.00000000000E+00 0.  1.
         21   -1    0    0  501  502  0.00000000000E+00 -0.00000000000E+00 -0.12240206518E+04  0.12240206518E+04  0.00000000000E+00 0.  1.
         23    2    1    2    0    0 -0.49038513576E+02 -0.11032417837E+03 -0.55675106738E+03  0.57678973255E+03  0.90213327216E+02 0.  0.
         24    2    1    2    0    0  0.21934415880E+03  0.15545946626E+03 -0.25939253290E+03  0.38207062429E+03  0.80087265999E+02 0.  0.
        -13    1    4    4    0    0  0.17779544097E+03  0.81300638385E+02 -0.18269916091E+03  0.26758175579E+03  0.00000000000E+00 0.  1.
         14    1    4    4    0    0  0.41548717822E+02  0.74158827874E+02 -0.76693371991E+02  0.11448886851E+03  0.00000000000E+00 0. -1.
        -13    1    3    3    0    0 -0.53804529275E+02 -0.38524031115E+02 -0.15331521807E+03  0.16698677922E+03  0.00000000000E+00 0. -1.
         13    1    3    3    0    0  0.47660156996E+01 -0.71800147258E+02 -0.40343584931E+03  0.40980295333E+03  0.00000000000E+00 0.  1.
         -2    1    1    2    0  502 -0.17030564522E+03 -0.45135287886E+02 -0.31345813498E+03  0.35957921156E+03  0.00000000000E+00 0.  1.
<scales pt_clust_5="13000.00000" pt_clust_6="13000.00000" pt_clust_7="13000.00000" pt_clust_8="13000.00000" pt_clust_9="198.53032"></scales>
<clustering>
<clus scale="   80.087">  5  6 -1 -1</clus>
<clus scale="   90.213">  7  8 -1 -1</clus>
<clus scale="  150.714">  1  7  2 -1</clus>
<clus scale="  198.530">  2  9  1 -1</clus>
<clus scale="  198.530">  2  5  1 -1</clus>
</clustering>
</event>
<event>
 9    2  0.1488992E-004  0.9350277E+02  0.7546771E-02  0.1299804E+00
          2   -1    0    0  502    0 -0.00000000000E+00  0.00000000000E+00  0.60329595091E+03  0.60329595091E+03  0.00000000000E+00 0. -1.
         21   -1    0    0  501  502  0.00000000000E+00 -0.00000000000E+00 -0.32254896426E+02  0.32254896426E+02  0.00000000000E+00 0.  1.
         24    2    1    2    0    0 -0.18286730016E+02  0.57372377950E+01  0.40278493028E+03  0.41144098592E+03  0.81735331636E+02 0.  0.
         23    2    1    2    0    0  0.25844801620E+02 -0.25602141473E+02  0.17616489421E+03  0.20143195395E+03  0.90649537784E+02 0.  0.
        -13    1    3    3    0    0  0.19629269184E+02  0.10263228501E+02  0.33337153550E+02  0.40025090566E+02  0.00000000000E+00 0.  1.
         14    1    3    3    0    0 -0.37915999200E+02 -0.45259907060E+01  0.36944777673E+03  0.37141589535E+03  0.00000000000E+00 0. -1.
        -13    1    4    4    0    0 -0.29235923092E+02  0.34548842871E+00  0.98487085180E+02  0.10273541020E+03  0.00000000000E+00 0. -1.
         13    1    4    4    0    0  0.55080724712E+02 -0.25947629902E+02  0.77677809027E+02  0.98696543747E+02  0.00000000000E+00 0.  1.
          1    1    1    2  501    0 -0.75580716041E+01  0.19864903678E+02 -0.79087700033E+01  0.22677907476E+02  0.00000000000E+00 0. -1.
<scales pt_clust_5="13000.00000" pt_clust_6="13000.00000" pt_clust_7="13000.00000" pt_clust_8="13000.00000" pt_clust_9="21.25415"></scales>
<clustering>
<clus scale="   21.254">  2  9  1 -1</clus>
<clus scale="   81.735">  5  6 -1 -1</clus>
<clus scale="   84.889">  1  5  2 -1</clus>
<clus scale="   90.650">  7  8 -1 -1</clus>
<clus scale="   21.254">  2  5  1 -1</clus>
</clustering>
</event>
<event>
 9    2  0.1488992E-004  0.1155479E+03  0.7546771E-02  0.1257595E+00
         -1   -1    0    0    0  501 -0.00000000000E+00  0.00000000000E+00  0.28324922666E+02  0.28324922666E+02  0.00000000000E+00 0.  1.
         21   -1    0    0  501  502  0.00000000000E+00 -0.00000000000E+00 -0.74733114519E+03  0.74733114519E+03  0.00000000000E+00 0.  1.
         24    2    1    2    0    0  0.16709558830E+02 -0.67901164948E+02 -0.12048808366E+03  0.15988813753E+03  0.78466939920E+02 0.  0.
         23    2    1    2    0    0 -0.30069975886E+02  0.32696257960E+02 -0.46394155445E+03  0.47602265029E+03  0.96863558221E+02 0.  0.
        -13    1    3    3    0    0 -0.74569044034E+01 -0.30607846709E+02 -0.39337634356E-01  0.31503130811E+02  0.00000000000E+00 0.  1.
         14    1    3    3    0    0  0.24166463234E+02 -0.37293318238E+02 -0.12044874602E+03  0.12838500672E+03  0.00000000000E+00 0. -1.
        -13    1    4    4    0    0 -0.62544896920E+02  0.36929798565E+01 -0.29289741575E+03  0.29952361907E+03  0.00000000000E+00 0.  1.
         13    1    4    4    0    0  0.32474921034E+02  0.29003278103E+02 -0.17104413870E+03  0.17649903122E+03  0.00000000000E+00 0. -1.
         -2    1    1    2    0  502  0.13360417055E+02  0.35204906988E+02 -0.13457658442E+03  0.13974528004E+03  0.00000000000E+00 0.  1.
<scales pt_clust_5="13000.00000" pt_clust_6="13000.00000" pt_clust_7="13000.00000" pt_clust_8="13000.00000" pt_clust_9="37.65483"></scales>
<clustering>
<clus scale="   37.655">  2  9  1 -1</clus>
<clus scale="   78.467">  5  6 -1 -1</clus>
<clus scale="   96.864">  7  8 -1 -1</clus>
<clus scale="  100.627">  1  5  2 -1</clus>
<clus scale="   37.655">  2  5  1 -1</clus>
</clustering>
</event>
<event>
 9    2  0.1488992E-004  0.1306764E+03  0.7546771E-02  0.1228465E+00
          2   -1    0    0  502    0 -0.00000000000E+00  0.00000000000E+00  0.11778073321E+04  0.11778073321E+04  0.00000000000E+00 0. -1.
         21   -1    0    0  501  502  0.00000000000E+00 -0.00000000000E+00 -0.20798656840E+02  0.20798656840E+02  0.00000000000E+00 0.  1.
         24    2    1    2    0    0  0.94883061116E+02  0.29627330711E+02  0.81249360471E+03  0.82268810765E+03  0.82397152651E+02 0.  0.
         23    2    1    2    0    0 -0.75926051685E+02 -0.36215235330E+02  0.32613233555E+03  0.34870219391E+03  0.90302885658E+02 0.  0.
        -13    1    3    3    0    0  0.40031360582E+02 -0.28113890628E+02  0.27304624234E+03  0.27739349511E+03  0.00000000000E+00 0.  1.
         14    1    3    3    0    0  0.54851700534E+02  0.57741221339E+02  0.53944736237E+03  0.54529461254E+03  0.00000000000E+00 0. -1.
        -11    1    4    4    0    0 -0.68241101426E+02 -0.64445869013E+02  0.23798658500E+03  0.25582754464E+03  0.00000000000E+00 0.  1.
         11    1    4    4    0    0 -0.76849502590E+01  0.28230633683E+02  0.88145750544E+02  0.92874649273E+02  0.00000000000E+00 0. -1.
          1    1    1    2  501    0 -0.18957009431E+02  0.65879046189E+01  0.18382735051E+02  0.27215687421E+02  0.00000000000E+00 0. -1.
<scales pt_clust_5="13000.00000" pt_clust_6="13000.00000" pt_clust_7="13000.00000" pt_clust_8="13000.00000" pt_clust_9="20.06910"></scales>
<clustering>
<clus scale="   20.069">  2  9  1 -1</clus>
<clus scale="   82.397">  5  6 -1 -1</clus>
<clus scale="   90.303">  7  8 -1 -1</clus>
<clus scale="  125.344">  1  5  2 -1</clus>
<clus scale="   20.069">  2  5  1 -1</clus>
</clustering>
</event>
<event>
 9    2  0.1488992E-004  0.2459004E+03  0.7546771E-02  0.1116486E+00
         -3   -1    0    0    0  501 -0.00000000000E+00  0.00000000000E+00  0.13543136264E+04  0.13543136264E+04  0.00000000000E+00 0.  1.
         21   -1    0    0  501  502  0.00000000000E+00 -0.00000000000E+00 -0.72420088804E+02  0.72420088804E+02  0.00000000000E+00 0.  1.
         23    2    1    2    0    0  0.17550982300E+03  0.15155519520E+03  0.95160850694E+03  0.98346298133E+03  0.88701803868E+02 0.  0.
         24    2    1    2    0    0 -0.13201602494E+03 -0.18466206564E+03  0.28082294686E+03  0.36955321172E+03  0.78611319031E+02 0.  0.
        -13    1    4    4    0    0 -0.12163594470E+03 -0.17010795700E+03  0.20944851764E+03  0.29597415701E+03  0.00000000000E+00 0.  1.
         14    1    4    4    0    0 -0.10380080240E+02 -0.14554108632E+02  0.71374429226E+02  0.73579054704E+02  0.00000000000E+00 0. -1.
        -13    1    3    3    0    0  0.42140332764E+02  0.87305069679E+02  0.30106294831E+03  0.31628607570E+03  0.00000000000E+00 0. -1.
         13    1    3    3    0    0  0.13336949023E+03  0.64250125521E+02  0.65054555863E+03  0.66717690563E+03  0.00000000000E+00 0.  1.
         -4    1    1    2    0  502 -0.43493798061E+02  0.33106870436E+02  0.49462083797E+02  0.73717522160E+02  0.00000000000E+00 0.  1.
<scales pt_clust_5="13000.00000" pt_clust_6="13000.00000" pt_clust_7="13000.00000" pt_clust_8="13000.00000" pt_clust_9="54.66055"></scales>
<clustering>
<clus scale="   54.661">  2  9  1 -1</clus>
<clus scale="   78.611">  5  6 -1 -1</clus>
<clus scale="   88.702">  7  8 -1 -1</clus>
<clus scale="  242.443">  2  5  1 -1</clus>
<clus scale="   54.661">  2  5  1 -1</clus>
</clustering>
</event>
<event>
 9    2  0.1488992E-004  0.9959183E+02  0.7546771E-02  0.1291087E+00
         -3   -1    0    0    0  501 -0.00000000000E+00  0.00000000000E+00  0.64175575191E+02  0.64175575191E+02  0.00000000000E+00 0.  1.
         21   -1    0    0  501  502  0.00000000000E+00 -0.00000000000E+00 -0.33106339291E+03  0.33106339291E+03  0.00000000000E+00 0. -1.
         23    2    1    2    0    0  0.40480991433E+02 -0.84203287779E+01 -0.45948049172E+02  0.11399474166E+03  0.95780819063E+02 0.  0.
         24    2    1    2    0    0  0.89235334290E+01 -0.15752116504E+02 -0.21058141599E+03  0.22527629227E+03  0.77955862344E+02 0.  0.
        -13    1    4    4    0    0 -0.13645771220E+02  0.22133008373E+02 -0.31499557199E+02  0.40844818956E+02  0.00000000000E+00 0.  1.
         14    1    4    4    0    0  0.22569304649E+02 -0.37885124878E+02 -0.17908185879E+03  0.18443147331E+03  0.00000000000E+00 0. -1.
        -11    1    3    3    0    0  0.72107878055E+02 -0.48451426132E+01 -0.35314201638E+02  0.80437020841E+02  0.00000000000E+00 0. -1.
         11    1    3    3    0    0 -0.31626886622E+02 -0.35751861646E+01 -0.10633847534E+02  0.33557720823E+02  0.00000000000E+00 0.  1.
         -4    1    1    2    0  502 -0.49404524862E+02  0.24172445282E+02 -0.10358352560E+02  0.55967934172E+02  0.00000000000E+00 0.  1.
<scales pt_clust_5="13000.00000" pt_clust_6="13000.00000" pt_clust_7="13000.00000" pt_clust_8="13000.00000" pt_clust_9="55.00107"></scales>
<clustering>
<clus scale="   55.001">  2  9  1 -1</clus>
<clus scale="   77.956">  5  6 -1 -1</clus>
<clus scale="   82.593">  2  5  1 -1</clus>
<clus scale="   95.781">  7  8 -1 -1</clus>
<clus scale="   55.001">  2  5  1 -1</clus>
</clustering>
</event>
<event>
 9    2  0.1488992E-004  0.9670077E+02  0.7546771E-02  0.1293725E+00
         21   -1    0    0  501  502  0.00000000000E+00  0.00000000000E+00  0.65581397156E+02  0.65581397156E+02  0.00000000000E+00 0.  1.
         -1   -1    0    0    0  501 -0.00000000000E+00 -0.00000000000E+00 -0.29086307561E+03  0.29086307561E+03  0.00000000000E+00 0.  1.
         24    2    1    2    0    0  0.18282429135E+02 -0.17439757049E+02 -0.86428759758E+02  0.12007000215E+03  0.79425956471E+02 0.  0.
         23    2    1    2    0    0 -0.58716956396E+02 -0.44416704192E+02 -0.78260105887E+02  0.14080950970E+03  0.91006314439E+02 0.  0.
        -13    1    3    3    0    0 -0.99128576694E+01  0.18780418086E+02  0.10695783494E+01  0.21262945434E+02  0.00000000000E+00 0.  1.
         14    1    3    3    0    0  0.28195286804E+02 -0.36220175135E+02 -0.87498338107E+02  0.98807056713E+02  0.00000000000E+00 0. -1.
        -11    1    4    4    0    0 -0.56132176227E+02 -0.13727171677E+02 -0.11734874287E+01  0.57798213839E+02  0.00000000000E+00 0.  1.
         11    1    4    4    0    0 -0.25847801687E+01 -0.30689532515E+02 -0.77086618459E+02  0.83011295857E+02  0.00000000000E+00 0. -1.
         -2    1    1    2    0  502  0.40434527261E+02  0.61856461241E+02 -0.60592812813E+02  0.95564960925E+02  0.00000000000E+00 0.  1.
<scales pt_clust_5="13000.00000" pt_clust_6="13000.00000" pt_clust_7="13000.00000" pt_clust_8="13000.00000" pt_clust_9="73.89979"></scales>
<clustering>
<clus scale="   73.900">  1  9  2 -1</clus>
<clus scale="   79.426">  5  6 -1 -1</clus>
<clus scale="   85.892">  2  5  1 -1</clus>
<clus scale="   91.006">  7  8 -1 -1</clus>
<clus scale="   73.900">  1  5  2 -1</clus>
</clustering>
</event>
<event>
 9    2  0.1488992E-004  0.2566317E+03  0.7546771E-02  0.1119975E+00
          2   -1    0    0  502    0 -0.00000000000E+00  0.00000000000E+00  0.82498128148E+03  0.82498128148E+03  0.00000000000E+00 0. -1.
         21   -1    0    0  501  502  0.00000000000E+00 -0.00000000000E+00 -0.23582879633E+03  0.23582879633E+03  0.00000000000E+00 0. -1.
         24    2    1    2    0    0 -0.17425823413E+03  0.37865584369E+02  0.16707428730E+03  0.25709223296E+03  0.79892829050E+02 0.  0.
         23    2    1    2    0    0  0.10036753159E+03  0.20325241645E+03  0.48549030355E+03  0.54368165240E+03  0.92215606729E+02 0.  0.
        -11    1    3    3    0    0 -0.17923620508E+02  0.29507492639E+02  0.11523599025E+02  0.36397000267E+02  0.00000000000E+00 0.  1.
         12    1    3    3    0    0 -0.15633461362E+03  0.83580917299E+01  0.15555068827E+03  0.22069523270E+03  0.00000000000E+00 0. -1.
        -13    1    4    4    0    0 -0.11690328485E+02  0.50461762699E+02  0.14568144653E+03  0.15461609598E+03  0.00000000000E+00 0.  1.
         13    1    4    4    0    0  0.11205786008E+03  0.15279065375E+03  0.33980885702E+03  0.38906555641E+03  0.00000000000E+00 0. -1.
          1    1    1    2  501    0  0.73890702535E+02 -0.24111800082E+03 -0.63412105688E+02  0.26003619245E+03  0.00000000000E+00 0. -1.
<scales pt_clust_5="13000.00000" pt_clust_6="13000.00000" pt_clust_7="13000.00000" pt_clust_8="13000.00000" pt_clust_9="239.49140"></scales>
<clustering>
<clus scale="   79.893">  5  6 -1 -1</clus>
<clus scale="   92.216">  7  8 -1 -1</clus>
<clus scale="  195.404">  1  5  2 -1</clus>
<clus scale="  239.491">  2  9  1 -1</clus>
<clus scale="  239.491">  2  5  1 -1</clus>
</clustering>
</event>
<event>
 9    2  0.1488992E-004  0.1498772E+03  0.7546771E-02  0.1202423E+00
          2   -1    0    0  502    0 -0.00000000000E+00  0.00000000000E+00  0.10101919623E+04  0.10101919623E+04  0.00000000000E+00 0. -1.
         21   -1    0    0  501  502  0.00000000000E+00 -0.00000000000E+00 -0.45708050351E+02  0.45708050351E+02  0.00000000000E+00 0.  1.
         24    2    1    2    0    0 -0.11638562993E+03 -0.16493983176E+01  0.45684011497E+03  0.47840491191E+03  0.81363589686E+02 0.  0.
         23    2    1    2    0    0  0.11439438900E+03  0.59909414415E+02  0.49253958682E+03  0.51727606988E+03  0.91126690454E+02 0.  0.
        -13    1    3    3    0    0 -0.11045416458E+03  0.20930300783E+02  0.31072330705E+03  0.33043482490E+03  0.00000000000E+00 0.  1.
         14    1    3    3    0    0 -0.59314653468E+01 -0.22579699100E+02  0.14611680792E+03  0.14797008701E+03  0.00000000000E+00 0. -1.
        -13    1    4    4    0    0  0.19881957948E+02  0.45925887692E+02  0.27737105199E+03  0.28184956962E+03  0.00000000000E+00 0. -1.
         13    1    4    4    0    0  0.94512431056E+02  0.13983526723E+02  0.21516853483E+03  0.23542650026E+03  0.00000000000E+00 0.  1.
          1    1    1    2  501    0  0.19912409271E+01 -0.58260016097E+02  0.15104210191E+02  0.60219030892E+02  0.00000000000E+00 0. -1.
<scales pt_clust_5="13000.00000" pt_clust_6="13000.00000" pt_clust_7="13000.00000" pt_clust_8="13000.00000" pt_clust_9="58.29403"></scales>
<clustering>
<clus scale="   58.294">  2  9  1 -1</clus>
<clus scale="   81.364">  5  6 -1 -1</clus>
<clus scale="   91.127">  7  8 -1 -1</clus>
<clus scale="  144.150">  1  5  2 -1</clus>
<clus scale="   58.294">  2  5  1 -1</clus>
</clustering>
</event>
<event>
 9    2  0.1488992E-004  0.1388479E+03  0.7546771E-02  0.1236132E+00
          4   -1    0    0  502    0 -0.00000000000E+00  0.00000000000E+00  0.89395056980E+03  0.89395056980E+03  0.00000000000E+00 0. -1.
         21   -1    0    0  501  502  0.00000000000E+00 -0.00000000000E+00 -0.47561166958E+02  0.47561166958E+02  0.00000000000E+00 0.  1.
         24    2    1    2    0    0 -0.40266482289E+02  0.20680206359E+01  0.22289213734E+03  0.24009439955E+03  0.79616264044E+02 0.  0.
         23    2    1    2    0    0 -0.39834219534E+02 -0.88129401295E+02  0.11156243899E+03  0.17615554508E+03  0.96078311036E+02 0.  0.
        -13    1    3    3    0    0 -0.63248378549E+02 -0.19393740752E+01  0.18576187916E+03  0.19624371152E+03  0.00000000000E+00 0.  1.
         14    1    3    3    0    0  0.22981896261E+02  0.40073947110E+01  0.37130258176E+02  0.43850688025E+02  0.00000000000E+00 0. -1.
        -13    1    4    4    0    0  0.96554027924E+01 -0.74497583193E+02  0.32407893499E+02  0.81813130155E+02  0.00000000000E+00 0.  1.
         13    1    4    4    0    0 -0.49489622326E+02 -0.13631818102E+02  0.79154545487E+02  0.94342414926E+02  0.00000000000E+00 0. -1.
          3    1    1    2  501    0  0.80100701823E+02  0.86061380659E+02  0.51193482651E+03  0.52526179213E+03  0.00000000000E+00 0. -1.
<scales pt_clust_5="13000.00000" pt_clust_6="13000.00000" pt_clust_7="13000.00000" pt_clust_8="13000.00000" pt_clust_9="100.23829"></scales>
<clustering>
<clus scale="   79.616">  5  6 -1 -1</clus>
<clus scale="   89.244">  1  5  2 -1</clus>
<clus scale="   96.078">  7  8 -1 -1</clus>
<clus scale="  100.238">  2  9  1 -1</clus>
<clus scale="  100.238">  2  5  1 -1</clus>
</clustering>
</event>
<event>
 9    2  0.1488992E-004  0.1669405E+03  0.7546771E-02  0.1182615E+00
         21   -1    0    0  501  502  0.00000000000E+00  0.00000000000E+00  0.13459095694E+03  0.13459095694E+03  0.00000000000E+00 0. -1.
         -1   -1    0    0    0  501 -0.00000000000E+00 -0.00000000000E+00 -0.38037491841E+03  0.38037491841E+03  0.00000000000E+00 0.  1.
         24    2    1    2    0    0  0.12451493190E+03  0.10733802837E+02 -0.19244186364E+02  0.14971015765E+03  0.80147425449E+02 0.  0.
         23    2    1    2    0    0 -0.15523969140E+03 -0.10540440779E+02 -0.51393628470E+02  0.18743496267E+03  0.90995041113E+02 0.  0.
        -13    1    3    3    0    0  0.50809411046E+02 -0.31946681088E+02 -0.23446382011E+02  0.64435390220E+02  0.00000000000E+00 0.  1.
         14    1    3    3    0    0  0.73705520856E+02  0.42680483925E+02  0.42021956466E+01  0.85274767434E+02  0.00000000000E+00 0. -1.
        -13    1    4    4    0    0 -0.13227640312E+03 -0.43341275153E+02 -0.48048243284E+02  0.14725537897E+03  0.00000000000E+00 0. -1.
         13    1    4    4    0    0 -0.22963288286E+02  0.32800834374E+02 -0.33453851865E+01  0.40179583704E+02  0.00000000000E+00 0.  1.
         -2    1    1    2    0  502  0.30724759499E+02 -0.19336205791E+00 -0.17514614663E+03  0.17782075502E+03  0.00000000000E+00 0.  1.
<scales pt_clust_5="13000.00000" pt_clust_6="13000.00000" pt_clust_7="13000.00000" pt_clust_8="13000.00000" pt_clust_9="30.72538"></scales>
<clustering>
<clus scale="   30.725">  1  9  2 -1</clus>
<clus scale="   80.147">  5  6 -1 -1</clus>
<clus scale="   90.995">  7  8 -1 -1</clus>
<clus scale="  161.284">  2  5  1 -1</clus>
<clus scale="   30.725">  1  5  2 -1</clus>
</clustering>
</event>
<event>
 9    2  0.1488992E-004  0.1865771E+03  0.7546771E-02  0.1162484E+00
          2   -1    0    0  502    0 -0.00000000000E+00  0.00000000000E+00  0.15410140667E+04  0.15410140667E+04  0.00000000000E+00 0. -1.
         21   -1    0    0  501  502  0.00000000000E+00 -0.00000000000E+00 -0.42056201720E+02  0.42056201720E+02  0.00000000000E+00 0. -1.
         24    2    1    2    0    0 -0.76544317869E+02  0.17714934651E+03  0.11101950234E+04  0.11298286606E+04  0.82090735154E+02 0.  0.
         23    2    1    2    0    0  0.27859608537E+02 -0.94844305489E+02  0.18741545019E+03  0.23034007636E+03  0.90334930865E+02 0.  0.
        -11    1    3    3    0    0  0.14386927945E+02  0.56747898433E+02  0.28437390633E+03  0.29033743519E+03  0.00000000000E+00 0.  1.
         12    1    3    3    0    0 -0.90931245814E+02  0.12040144808E+03  0.82582111708E+03  0.83949122543E+03  0.00000000000E+00 0. -1.
        -13    1    4    4    0    0 -0.23266137035E+02 -0.38800239033E+02  0.12218276664E+03  0.13028967781E+03  0.00000000000E+00 0.  1.
         13    1    4    4    0    0  0.51125745573E+02 -0.56044066457E+02  0.65232683557E+02  0.10005039855E+03  0.00000000000E+00 0. -1.
          1    1    1    2  501    0  0.48684709331E+02 -0.82305041022E+02  0.20134739133E+03  0.22290153139E+03  0.00000000000E+00 0. -1.
<scales pt_clust_5="13000.00000" pt_clust_6="13000.00000" pt_clust_7="13000.00000" pt_clust_8="13000.00000" pt_clust_9="95.62594"></scales>
<clustering>
<clus scale="   82.091">  5  6 -1 -1</clus>
<clus scale="   90.335">  7  8 -1 -1</clus>
<clus scale="   95.626">  2  9  1 -1</clus>
<clus scale="  182.728">  1  5  2 -1</clus>
<clus scale="   95.626">  2  5  1 -1</clus>
</clustering>
</event>
<event>
 9    2  0.1488992E-004  0.9250392E+02  0.7546771E-02  0.1303958E+00
          2   -1    0    0  502    0 -0.00000000000E+00  0.00000000000E+00  0.69739429411E+03  0.69739429411E+03  0.00000000000E+00 0. -1.
         21   -1    0    0  501  502  0.00000000000E+00 -0.00000000000E+00 -0.28765502554E+02  0.28765502554E+02  0.00000000000E+00 0. -1.
         24    2    1    2    0    0 -0.20612950013E+02  0.28561371435E+00  0.42994236069E+03  0.43773727522E+03  0.79614780770E+02 0.  0.
         23    2    1    2    0    0 -0.15591383201E+02  0.44420642804E+02  0.13128215319E+03  0.16658212594E+03  0.91095094253E+02 0.  0.
        -11    1    3    3    0    0 -0.20602917920E+02  0.37401480808E+02  0.17651568059E+03  0.18160709371E+03  0.00000000000E+00 0.  1.
         12    1    3    3    0    0 -0.10032093284E-01 -0.37115867093E+02  0.25342668011E+03  0.25613018151E+03  0.00000000000E+00 0. -1.
        -11    1    4    4    0    0 -0.46352223487E+02  0.87608233677E+01  0.98464864924E+02  0.10918154731E+03  0.00000000000E+00 0. -1.
         11    1    4    4    0    0  0.30760840286E+02  0.35659819437E+02  0.32817288270E+02  0.57400578627E+02  0.00000000000E+00 0.  1.
          1    1    1    2  501    0  0.36204333214E+02 -0.44706256519E+02  0.10740427766E+03  0.12184039550E+03  0.00000000000E+00 0. -1.
<scales pt_clust_5="13000.00000" pt_clust_6="13000.00000" pt_clust_7="13000.00000" pt_clust_8="13000.00000" pt_clust_9="57.52741"></scales>
<clustering>
<clus scale="   57.527">  2  9  1 -1</clus>
<clus scale="   79.615">  5  6 -1 -1</clus>
<clus scale="   81.223">  1  5  2 -1</clus>
<clus scale="   91.095">  7  8 -1 -1</clus>
<clus scale="   57.527">  2  5  1 -1</clus>
</clustering>
</event>
<event>
 9    2  0.1488992E-004  0.1232164E+03  0.7546771E-02  0.1242677E+00
          2   -1    0    0  502    0 -0.00000000000E+00  0.00000000000E+00  0.91359968165E+03  0.91359968165E+03  0.00000000000E+00 0. -1.
         21   -1    0    0  501  502  0.00000000000E+00 -0.00000000000E+00 -0.37198728337E+02  0.37198728337E+02  0.00000000000E+00 0. -1.
         24    2    1    2    0    0 -0.69046085063E+02  0.35408769227E+02  0.40919850061E+03  0.42371203808E+03  0.77893103155E+02 0.  0.
         23    2    1    2    0    0  0.43585137999E+02 -0.97783769733E+02  0.16656340369E+03  0.21899103227E+03  0.93554128107E+02 0.  0.
        -11    1    3    3    0    0  0.29084687594E+01  0.24855480348E+02  0.38299076187E+02  0.45750118368E+02  0.00000000000E+00 0.  1.
         12    1    3    3    0    0 -0.71954553822E+02  0.10553288878E+02  0.37089942442E+03  0.37796191972E+03  0.00000000000E+00 0. -1.
        -13    1    4    4    0    0  0.23986598260E+02 -0.14322890022E+02  0.11630709247E+03  0.11961539129E+03  0.00000000000E+00 0.  1.
         13    1    4    4    0    0  0.19598539739E+02 -0.83460879711E+02  0.50256311226E+02  0.99375640979E+02  0.00000000000E+00 0. -1.
          1    1    1    2  501    0  0.25460947064E+02  0.62375000506E+02  0.30063904901E+03  0.30809533963E+03  0.00000000000E+00 0. -1.
<scales pt_clust_5="13000.00000" pt_clust_6="13000.00000" pt_clust_7="13000.00000" pt_clust_8="13000.00000" pt_clust_9="67.37140"></scales>
<clustering>
<clus scale="   67.371">  2  9  1 -1</clus>
<clus scale="   77.893">  5  6 -1 -1</clus>
<clus scale="   93.554">  7  8 -1 -1</clus>
<clus scale="  111.791">  1  5  2 -1</clus>
<clus scale="   67.371">  2  5  1 -1</clus>
</clustering>
</event>
<event>
 9    2  0.1708516E-004  0.1411998E+03  0.7546771E-02  0.1214328E+00
         21   -1    0    0  501  502  0.00000000000E+00  0.00000000000E+00  0.21026793094E+03  0.21026793094E+03  0.00000000000E+00 0. -1.
         -3   -1    0    0    0  501 -0.00000000000E+00 -0.00000000000E+00 -0.41658686233E+03  0.41658686233E+03  0.00000000000E+00 0.  1.
         23    2    1    2    0    0  0.54198291943E+02  0.91524409812E+02 -0.36627639367E+03  0.39235117409E+03  0.92015622615E+02 0.  0.
         24    2    1    2    0    0 -0.81357967126E+02 -0.86284869139E+02  0.12490266463E+03  0.18985006859E+03  0.79863480109E+02 0.  0.
        -11    1    4    4    0    0 -0.73455224496E+02 -0.28882883937E+02  0.44084382816E+02  0.90406436710E+02  0.00000000000E+00 0.  1.
         12    1    4    4    0    0 -0.79027426292E+01 -0.57401985202E+02  0.80818281817E+02  0.99443631883E+02  0.00000000000E+00 0. -1.
        -13    1    3    3    0    0  0.20020096210E+02 -0.15492148555E+02 -0.40622451503E+02  0.47864334166E+02  0.00000000000E+00 0. -1.
         13    1    3    3    0    0  0.34178195733E+02  0.10701655837E+03 -0.32565394217E+03  0.34448683992E+03  0.00000000000E+00 0.  1.
         -4    1    1    2    0  502  0.27159675183E+02 -0.52395406734E+01  0.35054797645E+02  0.44653550592E+02  0.00000000000E+00 0.  1.
<scales pt_clust_5="13000.00000" pt_clust_6="13000.00000" pt_clust_7="13000.00000" pt_clust_8="13000.00000" pt_clust_9="27.66045"></scales>
<clustering>
<clus scale="   27.660">  1  9  2 -1</clus>
<clus scale="   79.863">  5  6 -1 -1</clus>
<clus scale="   92.016">  7  8 -1 -1</clus>
<clus scale="  133.599">  1  5  2 -1</clus>
<clus scale="   27.660">  1  5  2 -1</clus>
</clustering>
</event>
<event>
 9    2  0.1488992E-004  0.3231712E+03  0.7546771E-02  0.1122648E+00
         21   -1    0    0  501  502  0.00000000000E+00  0.00000000000E+00  0.13095220670E+04  0.13095220670E+04  0.00000000000E+00 0. -1.
          2   -1    0    0  502    0 -0.00000000000E+00 -0.00000000000E+00 -0.10697015713E+03  0.10697015713E+03  0.00000000000E+00 0. -1.
         23    2    1    2    0    0  0.18094290840E+02 -0.18694502616E+01  0.13492536280E+03  0.16304677578E+03  0.89713429096E+02 0.  0.
         24    2    1    2    0    0 -0.26584008926E+03  0.18377609006E+03  0.41451846166E+03  0.53162955946E+03  0.79748536604E+02 0.  0.
        -13    1    4    4    0    0 -0.10594145561E+01  0.21370195686E+02  0.37078434322E+02  0.42809086823E+02  0.00000000000E+00 0.  1.
         14    1    4    4    0    0 -0.26478067470E+03  0.16240589437E+03  0.37744002734E+03  0.48882047263E+03  0.00000000000E+00 0. -1.
        -13    1    3    3    0    0  0.78859537464E+01 -0.27963742245E+02  0.42050649466E+01  0.29357140836E+02  0.00000000000E+00 0.  1.
         13    1    3    3    0    0  0.10208337094E+02  0.26094291984E+02  0.13072029786E+03  0.13368963495E+03  0.00000000000E+00 0. -1.
          1    1    1    2  501    0  0.24774579842E+03 -0.18190663980E+03  0.65310808536E+03  0.72181588886E+03  0.00000000000E+00 0. -1.
<scales pt_clust_5="13000.00000" pt_clust_6="13000.00000" pt_clust_7="13000.00000" pt_clust_8="13000.00000" pt_clust_9="313.17696"></scales>
<clustering>
<clus scale="   79.749">  5  6 -1 -1</clus>
<clus scale="   89.713">  7  8 -1 -1</clus>
<clus scale="   91.539">  2  7  1 -1</clus>
<clus scale="  313.177">  1  9  2 -1</clus>
<clus scale="  313.177">  1  5  2 -1</clus>
</clustering>
</event>
<event>
 9    2  0.1488992E-004  0.1201426E+03  0.7546771E-02  0.1256081E+00
          2   -1    0    0  502    0 -0.00000000000E+00  0.00000000000E+00  0.62089616299E+03  0.62089616299E+03  0.00000000000E+00 0. -1.
         21   -1    0    0  501  502  0.00000000000E+00 -0.00000000000E+00 -0.39364185088E+02  0.39364185088E+02  0.00000000000E+00 0. -1.
         23    2    1    2    0    0 -0.78271545936E+01  0.25723973874E+01  0.12729064163E+03  0.15719534293E+03  0.91867223829E+02 0.  0.
         24    2    1    2    0    0 -0.33927331710E+02  0.80101696497E+02  0.19867459383E+03  0.23123269881E+03  0.80184918459E+02 0.  0.
        -11    1    4    4    0    0  0.23810270168E+02  0.64599037271E+01  0.38510169645E+02  0.45735024738E+02  0.00000000000E+00 0.  1.
         12    1    4    4    0    0 -0.57737601878E+02  0.73641792770E+02  0.16016442418E+03  0.18549767407E+03  0.00000000000E+00 0. -1.
        -11    1    3    3    0    0 -0.28540838029E+02  0.19412000181E+02  0.86440211811E+01  0.35582640270E+02  0.00000000000E+00 0. -1.
         11    1    3    3    0    0  0.20713683435E+02 -0.16839602794E+02  0.11864662045E+03  0.12161270266E+03  0.00000000000E+00 0.  1.
          1    1    1    2  501    0  0.41754486303E+02 -0.82674093884E+02  0.25556674245E+03  0.27183230634E+03  0.00000000000E+00 0. -1.
<scales pt_clust_5="13000.00000" pt_clust_6="13000.00000" pt_clust_7="13000.00000" pt_clust_8="13000.00000" pt_clust_9="89.46856"></scales>
<clustering>
<clus scale="   80.185">  5  6 -1 -1</clus>
<clus scale="   91.867">  7  8 -1 -1</clus>
<clus scale="   92.236">  1  7  2 -1</clus>
<clus scale="   89.469">  2  9  1 -1</clus>
<clus scale="   89.469">  2  5  1 -1</clus>
</clustering>
</event>
<event>
 9    2  0.1488992E-004  0.9973987E+02  0.7546771E-02  0.1283467E+00
         -3   -1    0    0    0  501 -0.00000000000E+00  0.00000000000E+00  0.35461939101E+03  0.35461939101E+03  0.00000000000E+00 0.  1.
         21   -1    0    0  501  502  0.00000000000E+00 -0.00000000000E+00 -0.59015715232E+02  0.59015715232E+02  0.00000000000E+00 0.  1.
         24    2    1    2    0    0  0.10919910618E+02 -0.33664228384E+02  0.12173271143E+03  0.15308915077E+03  0.85819055760E+02 0.  0.
         23    2    1    2    0    0 -0.55004635224E+02  0.31627306225E+02  0.37504096966E+02  0.11721579634E+03  0.91143783266E+02 0.  0.
        -11    1    3    3    0    0 -0.25499354216E+02  0.91170902941E+01  0.75887192234E+02  0.80574216385E+02  0.00000000000E+00 0.  1.
         12    1    3    3    0    0  0.36419264834E+02 -0.42781318678E+02  0.45845519197E+02  0.72514934388E+02  0.00000000000E+00 0. -1.
        -13    1    4    4    0    0 -0.13723151459E+02 -0.16725356719E+02 -0.21482630510E+02  0.30488782478E+02  0.00000000000E+00 0.  1.
         13    1    4    4    0    0 -0.41281483765E+02  0.48352662944E+02  0.58986727476E+02  0.86727013865E+02  0.00000000000E+00 0. -1.
         -4    1    1    2    0  502  0.44084724606E+02  0.20369221589E+01  0.13636686738E+03  0.14333015913E+03  0.00000000000E+00 0.  1.
<scales pt_clust_5="13000.00000" pt_clust_6="13000.00000" pt_clust_7="13000.00000" pt_clust_8="13000.00000" pt_clust_9="44.13178"></scales>
<clustering>
<clus scale="   44.132">  2  9  1 -1</clus>
<clus scale="   85.819">  5  6 -1 -1</clus>
<clus scale="   91.144">  7  8 -1 -1</clus>
<clus scale="   94.899">  1  5  2 -1</clus>
<clus scale="   44.132">  2  5  1 -1</clus>
</clustering>
</event>
<event>
 9    2  0.1488992E-004  0.1962621E+03  0.7546771E-02  0.1154336E+00
         21   -1    0    0  501  502  0.00000000000E+00  0.00000000000E+00  0.62880670966E+03  0.62880670966E+03  0.00000000000E+00 0.  1.
          2   -1    0    0  502    0 -0.00000000000E+00 -0.00000000000E+00 -0.18466321785E+03  0.18466321785E+03  0.00000000000E+00 0. -1.
         24    2    1    2    0    0  0.17303082279E+03 -0.26297671352E+02 -0.97270519267E+02  0.21578653756E+03  0.80442791600E+02 0.  0.
         23    2    1    2    0    0 -0.15339725148E+03 -0.33019275943E+02  0.45943623522E+03  0.49460898433E+03  0.94527264856E+02 0.  0.
        -13    1    3    3    0    0  0.43088258237E+02 -0.35308803764E+02 -0.45335587022E+01  0.55891526868E+02  0.00000000000E+00 0.  1.
         14    1    3    3    0    0  0.12994256455E+03  0.90111324114E+01 -0.92736960565E+02  0.15989501069E+03  0.00000000000E+00 0. -1.
        -13    1    4    4    0    0 -0.88237841159E+02 -0.28895390922E+02  0.38295446868E+03  0.39404947064E+03  0.00000000000E+00 0.  1.
         13    1    4    4    0    0 -0.65159410319E+02 -0.41238850209E+01  0.76481766547E+02  0.10055951370E+03  0.00000000000E+00 0. -1.
          1    1    1    2  501    0 -0.19633571314E+02  0.59316947295E+02  0.81977775853E+02  0.10307440561E+03  0.00000000000E+00 0. -1.
<scales pt_clust_5="13000.00000" pt_clust_6="13000.00000" pt_clust_7="13000.00000" pt_clust_8="13000.00000" pt_clust_9="62.48182"></scales>
<clustering>
<clus scale="   62.482">  1  9  2 -1</clus>
<clus scale="   80.443">  5  6 -1 -1</clus>
<clus scale="   94.527">  7  8 -1 -1</clus>
<clus scale="  189.880">  2  5  1 -1</clus>
<clus scale="   62.482">  1  5  2 -1</clus>
</clustering>
</event>
<event>
 9    2  0.1488992E-004  0.1239633E+03  0.7546771E-02  0.1239482E+00
         -1   -1    0    0    0  501 -0.00000000000E+00  0.00000000000E+00  0.36674441830E+03  0.36674441830E+03  0.00000000000E+00 0.  1.
         21   -1    0    0  501  502  0.00000000000E+00 -0.00000000000E+00 -0.60484450925E+02  0.60484450925E+02  0.00000000000E+00 0. -1.
         24    2    1    2    0    0  0.33027368463E+01  0.78855953092E+02  0.16221500167E+03  0.19776200122E+03  0.81036614869E+02 0.  0.
         23    2    1    2    0    0 -0.29841549062E+02 -0.89425778731E+02  0.15130849758E+03  0.19999164683E+03  0.90636137430E+02 0.  0.
        -11    1    3    3    0    0  0.39447007483E+02  0.60677082150E+02  0.11070852155E+03  0.13226545823E+03  0.00000000000E+00 0.  1.
         12    1    3    3    0    0 -0.36144270636E+02  0.18178870942E+02  0.51506480129E+02  0.65496542991E+02  0.00000000000E+00 0. -1.
        -13    1    4    4    0    0 -0.53973617608E+02 -0.39569403929E+02  0.11714310366E+03  0.13491254893E+03  0.00000000000E+00 0.  1.
         13    1    4    4    0    0  0.24132068546E+02 -0.49856374802E+02  0.34165393924E+02  0.65079097894E+02  0.00000000000E+00 0. -1.
         -2    1    1    2    0  502  0.26538812216E+02  0.10569825639E+02 -0.72635318848E+01  0.29475221175E+02  0.00000000000E+00 0.  1.
<scales pt_clust_5="13000.00000" pt_clust_6="13000.00000" pt_clust_7="13000.00000" pt_clust_8="13000.00000" pt_clust_9="28.56623"></scales>
<clustering>
<clus scale="   28.566">  2  9  1 -1</clus>
<clus scale="   81.037">  5  6 -1 -1</clus>
<clus scale="   90.636">  7  8 -1 -1</clus>
<clus scale="  117.128">  1  5  2 -1</clus>
<clus scale="   28.566">  2  5  1 -1</clus>
</clustering>
</event>
<event>
 9    2  0.1488992E-004  0.1025711E+03  0.7546771E-02  0.1281001E+00
          4   -1    0    0  502    0 -0.00000000000E+00  0.00000000000E+00  0.69264094287E+03  0.69264094287E+03  0.00000000000E+00 0. -1.
         21   -1    0    0  501  502  0.00000000000E+00 -0.00000000000E+00 -0.39523501644E+02  0.39523501644E+02  0.00000000000E+00 0. -1.
         24    2    1    2    0    0 -0.49097071344E+02 -0.14247582714E+02  0.45344220368E+03  0.46320880394E+03  0.79618138295E+02 0.  0.
         23    2    1    2    0    0  0.26746768098E+02 -0.52758463339E+02  0.11991751709E+03  0.16241625708E+03  0.92195361057E+02 0.  0.
        -13    1    3    3    0    0  0.85227758779E+00  0.27596016557E+02  0.96681882105E+02  0.10054676939E+03  0.00000000000E+00 0.  1.
         14    1    3    3    0    0 -0.49949348932E+02 -0.41843599270E+02  0.35676032157E+03  0.36266203455E+03  0.00000000000E+00 0. -1.
        -11    1    4    4    0    0  0.40136751230E+02 -0.72177980207E+02  0.74435229719E+02  0.11118103727E+03  0.00000000000E+00 0. -1.
         11    1    4    4    0    0 -0.13389983132E+02  0.19419516868E+02  0.45482287375E+02  0.51235219806E+02  0.00000000000E+00 0.  1.
          3    1    1    2  501    0  0.22350303246E+02  0.67006046053E+02  0.79757720457E+02  0.10653938349E+03  0.00000000000E+00 0. -1.
<scales pt_clust_5="13000.00000" pt_clust_6="13000.00000" pt_clust_7="13000.00000" pt_clust_8="13000.00000" pt_clust_9="70.63530"></scales>
<clustering>
<clus scale="   70.635">  2  9  1 -1</clus>
<clus scale="   79.618">  5  6 -1 -1</clus>
<clus scale="   91.432">  1  5  2 -1</clus>
<clus scale="   92.195">  7  8 -1 -1</clus>
<clus scale="   70.635">  2  5  1 -1</clus>
</clustering>
</event>
<event>
 9    2  0.1488992E-004  0.1657880E+03  0.7546771E-02  0.1214714E+00
         21   -1    0    0  501  502  0.00000000000E+00  0.00000000000E+00  0.66735104967E+03  0.66735104967E+03  0.00000000000E+00 0. -1.
          2   -1    0    0  502    0 -0.00000000000E+00 -0.00000000000E+00 -0.10922083665E+03  0.10922083665E+03  0.00000000000E+00 0. -1.
         24    2    1    2    0    0 -0.27936638536E+01  0.29155223211E+01  0.41852794032E+02  0.91942921102E+02  0.81765148714E+02 0.  0.
         23    2    1    2    0    0  0.95542003697E+02  0.98926960432E+02  0.52106670513E+03  0.54679905882E+03  0.92541242452E+02 0.  0.
        -11    1    3    3    0    0 -0.24331452795E+02  0.28334730435E+02  0.44997734360E+02  0.58477967145E+02  0.00000000000E+00 0.  1.
         12    1    3    3    0    0  0.21537788941E+02 -0.25419208114E+02 -0.31449403277E+01  0.33464953956E+02  0.00000000000E+00 0. -1.
        -13    1    4    4    0    0 -0.19285409688E+01  0.36342035336E+02  0.50889528369E+02  0.62563622819E+02  0.00000000000E+00 0.  1.
         13    1    4    4    0    0  0.97470544666E+02  0.62584925096E+02  0.47017717676E+03  0.48423543600E+03  0.00000000000E+00 0. -1.
          1    1    1    2  501    0 -0.92748339843E+02 -0.10184248275E+03 -0.47892861459E+01  0.13782990640E+03  0.00000000000E+00 0. -1.
<scales pt_clust_5="13000.00000" pt_clust_6="13000.00000" pt_clust_7="13000.00000" pt_clust_8="13000.00000" pt_clust_9="137.55651"></scales>
<clustering>
<clus scale="   81.765">  5  6 -1 -1</clus>
<clus scale="   81.865">  2  5  1 -1</clus>
<clus scale="   92.541">  7  8 -1 -1</clus>
<clus scale="  137.557">  1  9  2 -1</clus>
<clus scale="  137.557">  1  5  2 -1</clus>
</clustering>
</event>
<event>
 9    2  0.1488992E-004  0.3726830E+03  0.7546771E-02  0.1053672E+00
          2   -1    0    0  502    0 -0.00000000000E+00  0.00000000000E+00  0.30171720442E+03  0.30171720442E+03  0.00000000000E+00 0. -1.
         21   -1    0    0  501  502  0.00000000000E+00 -0.00000000000E+00 -0.49557753767E+03  0.49557753767E+03  0.00000000000E+00 0.  1.
         24    2    1    2    0    0  0.12495468170E+03 -0.77884972757E+02 -0.14627128479E+03  0.22249205943E+03  0.80172852614E+02 0.  0.
         23    2    1    2    0    0  0.17178817582E+03  0.57293594431E+02 -0.15686609341E+03  0.25790869265E+03  0.95478736746E+02 0.  0.
        -13    1    3    3    0    0  0.93874362791E+02 -0.48901092319E+02 -0.14557547432E+03  0.17998869838E+03  0.00000000000E+00 0.  1.
         14    1    3    3    0    0  0.31080318913E+02 -0.28983880439E+02 -0.69581046771E+00  0.42503361058E+02  0.00000000000E+00 0. -1.
        -13    1    4    4    0    0  0.87635939159E+02  0.45876678969E+02 -0.13985045241E+03  0.17129762562E+03  0.00000000000E+00 0. -1.
         13    1    4    4    0    0  0.84152236657E+02  0.11416915462E+02 -0.17015641001E+02  0.86611067028E+02  0.00000000000E+00 0.  1.
          1    1    1    2  501    0 -0.29674285752E+03  0.20591378326E+02  0.10927704495E+03  0.31689399001E+03  0.00000000000E+00 0. -1.
<scales pt_clust_5="13000.00000" pt_clust_6="13000.00000" pt_clust_7="13000.00000" pt_clust_8="13000.00000" pt_clust_9="297.45658"></scales>
<clustering>
<clus scale="   80.173">  5  6 -1 -1</clus>
<clus scale="   95.479">  7  8 -1 -1</clus>
<clus scale="  158.170">  5  7 -1 -1</clus>
<clus scale="  297.457">  2  9  1 -1</clus>
<clus scale="  297.457">  2  5  1 -1</clus>
</clustering>
</event>
<event>
 9    2  0.1488992E-004  0.1152423E+03  0.7546771E-02  0.1254494E+00
         -1   -1    0    0    0  501 -0.00000000000E+00  0.00000000000E+00  0.45604765034E+03  0.45604765034E+03  0.00000000000E+00 0.  1.
         21   -1    0    0  501  502  0.00000000000E+00 -0.00000000000E+00 -0.44747428146E+02  0.44747428146E+02  0.00000000000E+00 0.  1.
         24    2    1    2    0    0  0.73118865817E+02  0.41666787860E+01  0.22772722909E+03  0.25257811833E+03  0.81069632035E+02 0.  0.
         23    2    1    2    0    0 -0.59318997305E+02 -0.49124006000E+02  0.14372413828E+03  0.18657664160E+03  0.90676920218E+02 0.  0.
        -11    1    3    3    0    0  0.43602470904E+02 -0.58743747318E+01  0.21406325966E+03  0.21853778365E+03  0.00000000000E+00 0.  1.
         12    1    3    3    0    0  0.29516394913E+02  0.10041053518E+02  0.13663969435E+02  0.34040334680E+02  0.00000000000E+00 0. -1.
        -13    1    4    4    0    0 -0.64824623995E+02 -0.95604890719E+01  0.43406268765E+02  0.78598594106E+02  0.00000000000E+00 0.  1.
         13    1    4    4    0    0  0.55056266899E+01 -0.39563516928E+02  0.10031786951E+03  0.10797804749E+03  0.00000000000E+00 0. -1.
         -2    1    1    2    0  502 -0.13799868513E+02  0.44957327214E+02  0.39848854829E+02  0.61640318562E+02  0.00000000000E+00 0.  1.
<scales pt_clust_5="13000.00000" pt_clust_6="13000.00000" pt_clust_7="13000.00000" pt_clust_8="13000.00000" pt_clust_9="47.02763"></scales>
<clustering>
<clus scale="   47.028">  2  9  1 -1</clus>
<clus scale="   81.070">  5  6 -1 -1</clus>
<clus scale="   90.677">  7  8 -1 -1</clus>
<clus scale="  107.846">  1  5  2 -1</clus>
<clus scale="   47.028">  2  5  1 -1</clus>
</clustering>
</event>
<event>
 9    2  0.1488992E-004  0.1600156E+03  0.7546771E-02  0.1191927E+00
         -3   -1    0    0    0  501 -0.00000000000E+00  0.00000000000E+00  0.11657093733E+03  0.11657093733E+03  0.00000000000E+00 0.  1.
         21   -1    0    0  501  502  0.00000000000E+00 -0.00000000000E+00 -0.25452858193E+03  0.25452858193E+03  0.00000000000E+00 0.  1.
         24    2    1    2    0    0 -0.87857222673E+02  0.69698481061E+02 -0.57718953141E+02  0.16591152648E+03  0.10778862291E+03 0.  0.
         23    2    1    2    0    0  0.11243759895E+03 -0.55267913932E+02 -0.47346179452E+02  0.16166382121E+03  0.90536039294E+02 0.  0.
        -13    1    3    3    0    0 -0.52632430356E+02  0.82449129262E+02 -0.76337459884E+02  0.12407836001E+03  0.00000000000E+00 0.  1.
         14    1    3    3    0    0 -0.35224792317E+02 -0.12750648201E+02  0.18618506743E+02  0.41833166467E+02  0.00000000000E+00 0. -1.
        -13    1    4    4    0    0  0.20237727671E+02 -0.10789417093E+02 -0.54416765948E+02  0.59052193513E+02  0.00000000000E+00 0. -1.
         13    1    4    4    0    0  0.92199871277E+02 -0.44478496838E+02  0.70705864959E+01  0.10261162769E+03  0.00000000000E+00 0.  1.
         -4    1    1    2    0  502 -0.24580376275E+02 -0.14430567129E+02 -0.32892512006E+02  0.43524171578E+02  0.00000000000E+00 0.  1.
<scales pt_clust_5="13000.00000" pt_clust_6="13000.00000" pt_clust_7="13000.00000" pt_clust_8="13000.00000" pt_clust_9="28.50327"></scales>
<clustering>
<clus scale="   28.503">  2  9  1 -1</clus>
<clus scale="   90.536">  7  8 -1 -1</clus>
<clus scale="  107.789">  5  6 -1 -1</clus>
<clus scale="  148.941">  2  7  1 -1</clus>
<clus scale="   28.503">  2  5  1 -1</clus>
</clustering>
</event>
<event>
 9    2  0.1488992E-004  0.1045098E+03  0.7546771E-02  0.1278132E+00
          2   -1    0    0  502    0 -0.00000000000E+00  0.00000000000E+00  0.17467232111E+03  0.17467232111E+03  0.00000000000E+00 0. -1.
         21   -1    0    0  501  502  0.00000000000E+00 -0.00000000000E+00 -0.10914370707E+03  0.10914370707E+03  0.00000000000E+00 0.  1.
         23    2    1    2    0    0  0.56961371181E+02 -0.10538444972E+02  0.11232087603E+03  0.15591646183E+03  0.91314332101E+02 0.  0.
         24    2    1    2    0    0 -0.24674610162E+02  0.24308418864E+02 -0.38524967764E+02  0.91838572580E+02  0.75831488565E+02 0.  0.
        -11    1    4    4    0    0 -0.99778756953E+01  0.50212921246E+02 -0.13518420216E+02  0.52949439549E+02  0.00000000000E+00 0.  1.
         12    1    4    4    0    0 -0.14696734467E+02 -0.25904502382E+02 -0.25006547548E+02  0.38889133031E+02  0.00000000000E+00 0. -1.
        -11    1    3    3    0    0  0.87642202816E+01 -0.45829925312E+02  0.63311921946E+02  0.78648541447E+02  0.00000000000E+00 0. -1.
         11    1    3    3    0    0  0.48197150900E+02  0.35291480340E+02  0.49008954086E+02  0.77267920381E+02  0.00000000000E+00 0.  1.
          1    1    1    2  501    0 -0.32286761019E+02 -0.13769973892E+02 -0.82672942275E+01  0.36060993774E+02  0.00000000000E+00 0. -1.
<scales pt_clust_5="13000.00000" pt_clust_6="13000.00000" pt_clust_7="13000.00000" pt_clust_8="13000.00000" pt_clust_9="35.10053"></scales>
<clustering>
<clus scale="   35.101">  2  9  1 -1</clus>
<clus scale="   75.831">  5  6 -1 -1</clus>
<clus scale="   91.293">  2  5  1 -1</clus>
<clus scale="   91.314">  7  8 -1 -1</clus>
<clus scale="   35.101">  2  5  1 -1</clus>
</clustering>
</event>
<event>
 9    2  0.1488992E-004  0.2862118E+03  0.7546771E-02  0.1122626E+00
         21   -1    0    0  501  502  0.00000000000E+00  0.00000000000E+00  0.21763459337E+03  0.21763459337E+03  0.00000000000E+00 0. -1.
          2   -1    0    0  502    0 -0.00000000000E+00 -0.00000000000E+00 -0.79719312603E+03  0.79719312603E+03  0.00000000000E+00 0. -1.
         24    2    1    2    0    0 -0.20857249701E+01  0.10415970065E+03  0.69311773117E+02  0.14895685003E+03  0.80811062301E+02 0.  0.
         23    2    1    2    0    0 -0.22075531239E+03  0.11080867535E+03 -0.28053237424E+03  0.38468237987E+03  0.90943113556E+02 0.  0.
        -13    1    3    3    0    0 -0.28838053862E+02  0.10160256923E+02  0.27243497802E+01  0.30696681466E+02  0.00000000000E+00 0.  1.
         14    1    3    3    0    0  0.26752328892E+02  0.93999443728E+02  0.66587423336E+02  0.11826016856E+03  0.00000000000E+00 0. -1.
        -13    1    4    4    0    0 -0.70729208076E+02  0.85150533430E+02 -0.10886418214E+03  0.15525670475E+03  0.00000000000E+00 0.  1.
         13    1    4    4    0    0 -0.15002610432E+03  0.25658141925E+02 -0.17166819210E+03  0.22942567512E+03  0.00000000000E+00 0. -1.
          1    1    1    2  501    0  0.22284103736E+03 -0.21496837601E+03 -0.36833793154E+03  0.48118848950E+03  0.00000000000E+00 0. -1.
<scales pt_clust_5="13000.00000" pt_clust_6="13000.00000" pt_clust_7="13000.00000" pt_clust_8="13000.00000" pt_clust_9="271.37909"></scales>
<clustering>
<clus scale="   80.811">  5  6 -1 -1</clus>
<clus scale="   90.943">  7  8 -1 -1</clus>
<clus scale="  131.849">  2  5  1 -1</clus>
<clus scale="  271.379">  1  9  2 -1</clus>
<clus scale="  271.379">  1  5  2 -1</clus>
</clustering>
</event>
<event>
 9    2  0.1488992E-004  0.9676335E+02  0.7546771E-02  0.1294098E+00
         21   -1    0    0  501  502  0.00000000000E+00  0.00000000000E+00  0.81742205326E+02  0.81742205326E+02  0.00000000000E+00 0.  1.
         -1   -1    0    0    0  501 -0.00000000000E+00 -0.00000000000E+00 -0.22350909001E+03  0.22350909001E+03  0.00000000000E+00 0.  1.
         23    2    1    2    0    0 -0.10839037215E+02  0.15161198357E+02 -0.30451055694E+02  0.10043548505E+03  0.93875839279E+02 0.  0.
         24    2    1    2    0    0 -0.92666086638E+01 -0.33952469996E+02  0.10905843841E+01  0.89089622009E+02  0.81836001371E+02 0.  0.
        -11    1    4    4    0    0 -0.22910992247E+02 -0.13205331828E+02  0.36970793919E+02  0.45454746258E+02  0.00000000000E+00 0.  1.
         12    1    4    4    0    0  0.13644383583E+02 -0.20747138168E+02 -0.35880209535E+02  0.43634875751E+02  0.00000000000E+00 0. -1.
        -11    1    3    3    0    0  0.33376414077E+02  0.15699219012E+02  0.12348114247E+02  0.38896354838E+02  0.00000000000E+00 0.  1.
         11    1    3    3    0    0 -0.44215451292E+02 -0.53802065503E+00 -0.42799169940E+02  0.61539130208E+02  0.00000000000E+00 0. -1.
         -2    1    1    2    0  502  0.20105645879E+02  0.18791271639E+02 -0.11240641337E+03  0.11572618828E+03  0.00000000000E+00 0.  1.
<scales pt_clust_5="13000.00000" pt_clust_6="13000.00000" pt_clust_7="13000.00000" pt_clust_8="13000.00000" pt_clust_9="27.51999"></scales>
<clustering>
<clus scale="   27.520">  1  9  2 -1</clus>
<clus scale="   81.836">  5  6 -1 -1</clus>
<clus scale="   85.133">  1  5  2 -1</clus>
<clus scale="   93.876">  7  8 -1 -1</clus>
<clus scale="   27.520">  1  5  2 -1</clus>
</clustering>
</event>
<event>
 9    2  0.1488992E-004  0.1353268E+03  0.7546771E-02  0.1220745E+00
         21   -1    0    0  501  502  0.00000000000E+00  0.00000000000E+00  0.13034663091E+02  0.13034663091E+02  0.00000000000E+00 0. -1.
          2   -1    0    0  502    0 -0.00000000000E+00 -0.00000000000E+00 -0.24597560998E+04  0.24597560998E+04  0.00000000000E+00 0. -1.
         24    2    1    2    0    0 -0.89919724804E+02  0.18942143973E+01 -0.10878702187E+04  0.10947124110E+04  0.82731523629E+02 0.  0.
         23    2    1    2    0    0  0.12968650386E+03 -0.49652077315E+02 -0.87168180961E+03  0.88696101090E+03  0.87101891997E+02 0.  0.
        -13    1    3    3    0    0  0.64266407548E+00  0.20547849870E+02 -0.79616800883E+02  0.82228110365E+02  0.00000000000E+00 0.  1.
         14    1    3    3    0    0 -0.90562388880E+02 -0.18653635473E+02 -0.10082534178E+04  0.10124843006E+04  0.00000000000E+00 0. -1.
        -11    1    4    4    0    0 -0.48837806660E+01 -0.24919811820E+02 -0.95862846479E+02  0.99169217350E+02  0.00000000000E+00 0.  1.
         11    1    4    4    0    0  0.13457028452E+03 -0.24732265495E+02 -0.77581896313E+03  0.78779179355E+03  0.00000000000E+00 0. -1.
          1    1    1    2  501    0 -0.39766779053E+02  0.47757862918E+02 -0.48716940836E+03  0.49111734100E+03  0.00000000000E+00 0. -1.
<scales pt_clust_5="13000.00000" pt_clust_6="13000.00000" pt_clust_7="13000.00000" pt_clust_8="13000.00000" pt_clust_9="62.14671"></scales>
<clustering>
<clus scale="   62.147">  1  9  2 -1</clus>
<clus scale="   82.732">  5  6 -1 -1</clus>
<clus scale="   87.102">  7  8 -1 -1</clus>
<clus scale="  132.556">  2  5  1 -1</clus>
<clus scale="   62.147">  1  5  2 -1</clus>
</clustering>
</event>
<event>
 9    2  0.3733693E-004  0.1106297E+03  0.7546771E-02  0.1263257E+00
          4   -1    0    0  502    0 -0.00000000000E+00  0.00000000000E+00  0.57898425610E+03  0.57898425610E+03  0.00000000000E+00 0. -1.
         21   -1    0    0  501  502  0.00000000000E+00 -0.00000000000E+00 -0.32097202302E+03  0.32097202302E+03  0.00000000000E+00 0.  1.
         24    2    1    2    0    0  0.17932457176E+02  0.60949769168E+02  0.56082512264E+03  0.57015367929E+03  0.80709060400E+02 0.  0.
         23    2    1    2    0    0  0.29813402755E+01 -0.55907367100E+02 -0.22343607867E+03  0.24756215449E+03  0.90712827075E+02 0.  0.
        -13    1    3    3    0    0  0.41260973685E+02  0.11825452676E+02  0.16003939188E+03  0.16569525109E+03  0.00000000000E+00 0.  1.
         14    1    3    3    0    0 -0.23328516509E+02  0.49124316492E+02  0.40078573077E+03  0.40445842820E+03  0.00000000000E+00 0. -1.
        -11    1    4    4    0    0  0.11811602975E+02 -0.77751837098E+02 -0.19717687312E+03  0.21228184433E+03  0.00000000000E+00 0.  1.
         11    1    4    4    0    0 -0.88302626991E+01  0.21844469998E+02 -0.26259205550E+02  0.35280310160E+02  0.00000000000E+00 0. -1.
          3    1    1    2  501    0 -0.20913797451E+02 -0.50424020681E+01 -0.79376810896E+02  0.82240445344E+02  0.00000000000E+00 0. -1.
<scales pt_clust_5="13000.00000" pt_clust_6="13000.00000" pt_clust_7="13000.00000" pt_clust_8="13000.00000" pt_clust_9="21.51308"></scales>
<clustering>
<clus scale="   21.513">  2  9  1 -1</clus>
<clus scale="   80.709">  5  6 -1 -1</clus>
<clus scale="   90.713">  7  8 -1 -1</clus>
<clus scale="  102.587">  1  5  2 -1</clus>
<clus scale="   21.513">  2  5  1 -1</clus>
</clustering>
</event>
<event>
 9    2  0.1488992E-004  0.3330499E+03  0.7546771E-02  0.1070055E+00
         21   -1    0    0  501  502  0.00000000000E+00  0.00000000000E+00  0.22961056898E+03  0.22961056898E+03  0.00000000000E+00 0.  1.
          2   -1    0    0  502    0 -0.00000000000E+00 -0.00000000000E+00 -0.75987597142E+03  0.75987597142E+03  0.00000000000E+00 0. -1.
         23    2    1    2    0    0  0.28893249880E+03 -0.98806115392E+01 -0.19809564528E+03  0.36121858492E+03  0.87506377312E+02 0.  0.
         24    2    1    2    0    0 -0.37569729415E+03 -0.31299428637E+02 -0.13328740873E+03  0.40741027747E+03  0.78035183077E+02 0.  0.
        -11    1    4    4    0    0 -0.35864569796E+03 -0.11592072712E+02 -0.12653484004E+03  0.38048939349E+03  0.00000000000E+00 0.  1.
         12    1    4    4    0    0 -0.17051596181E+02 -0.19707355925E+02 -0.67525686873E+01  0.26920883971E+02  0.00000000000E+00 0. -1.
        -13    1    3    3    0    0  0.38659322459E+02  0.23266860921E+02 -0.95419742040E+01  0.46118752171E+02  0.00000000000E+00 0.  1.
         13    1    3    3    0    0  0.25027317634E+03 -0.33147472460E+02 -0.18855367107E+03  0.31509983275E+03  0.00000000000E+00 0. -1.
          1    1    1    2  501    0  0.86764795348E+02  0.41180040176E+02 -0.19888234844E+03  0.22085767802E+03  0.00000000000E+00 0. -1.
<scales pt_clust_5="13000.00000" pt_clust_6="13000.00000" pt_clust_7="13000.00000" pt_clust_8="13000.00000" pt_clust_9="96.04132"></scales>
<clustering>
<clus scale="   78.035">  5  6 -1 -1</clus>
<clus scale="   87.506">  7  8 -1 -1</clus>
<clus scale="   96.041">  1  9  2 -1</clus>
<clus scale="  330.688">  1  5  2 -1</clus>
<clus scale="   96.041">  1  5  2 -1</clus>
</clustering>
</event>
<event>
 9    2  0.1488992E-004  0.1120876E+03  0.7546771E-02  0.1263578E+00
         -1   -1    0    0    0  501 -0.00000000000E+00  0.00000000000E+00  0.14213669685E+03  0.14213669685E+03  0.00000000000E+00 0.  1.
         21   -1    0    0  501  502  0.00000000000E+00 -0.00000000000E+00 -0.24395752886E+03  0.24395752886E+03  0.00000000000E+00 0. -1.
         24    2    1    2    0    0  0.42473422761E+02  0.34383058307E+02 -0.12216166094E+02  0.98776316506E+02  0.81371614515E+02 0.  0.
         23    2    1    2    0    0  0.65467126781E+02 -0.40221068021E+02 -0.13198706971E+03  0.17120799256E+03  0.77381594349E+02 0.  0.
        -13    1    3    3    0    0  0.62259572929E+00  0.50748004616E+02 -0.17146379227E+02  0.53570009507E+02  0.00000000000E+00 0.  1.
         14    1    3    3    0    0  0.41850827032E+02 -0.16364946309E+02  0.49302131334E+01  0.45206306999E+02  0.00000000000E+00 0. -1.
        -11    1    4    4    0    0  0.53362097864E+02 -0.56639742299E+02 -0.12891255811E+03  0.15057895449E+03  0.00000000000E+00 0. -1.
         11    1    4    4    0    0  0.12105028917E+02  0.16418674277E+02 -0.30745115965E+01  0.20629038070E+02  0.00000000000E+00 0.  1.
         -2    1    1    2    0  502 -0.10794054954E+03  0.58380097146E+01  0.42382403785E+02  0.11610991665E+03  0.00000000000E+00 0.  1.
<scales pt_clust_5="13000.00000" pt_clust_6="13000.00000" pt_clust_7="13000.00000" pt_clust_8="13000.00000" pt_clust_9="81.09084"></scales>
<clustering>
<clus scale="   77.382">  7  8 -1 -1</clus>
<clus scale="   81.372">  5  6 -1 -1</clus>
<clus scale="   98.018">  1  5  2 -1</clus>
<clus scale="   81.091">  2  9  1 -1</clus>
<clus scale="   81.091">  2  5  1 -1</clus>
</clustering>
</event>
<event>
 9    2  0.1488992E-004  0.1309516E+03  0.7546771E-02  0.1228214E+00
         21   -1    0    0  501  502  0.00000000000E+00  0.00000000000E+00  0.19926232981E+03  0.19926232981E+03  0.00000000000E+00 0. -1.
          2   -1    0    0  502    0 -0.00000000000E+00 -0.00000000000E+00 -0.20975633519E+03  0.20975633519E+03  0.00000000000E+00 0. -1.
         24    2    1    2    0    0 -0.80549935848E+02  0.13424856737E+02 -0.91710736014E+02  0.14781618044E+03  0.82281499470E+02 0.  0.
         23    2    1    2    0    0  0.12635919748E+03 -0.13869767272E+02 -0.12681617397E+02  0.15672480198E+03  0.90789993405E+02 0.  0.
        -13    1    3    3    0    0 -0.37379648255E+02  0.49765002261E+01  0.82527431657E+01  0.38601961452E+02  0.00000000000E+00 0.  1.
         14    1    3    3    0    0 -0.43170287593E+02  0.84483565106E+01 -0.99963479180E+02  0.10921421898E+03  0.00000000000E+00 0. -1.
        -13    1    4    4    0    0  0.61539854370E+02 -0.52361369548E+02 -0.52223796386E+01  0.80969994109E+02  0.00000000000E+00 0.  1.
         13    1    4    4    0    0  0.64819343110E+02  0.38491602276E+02 -0.74592377581E+01  0.75754807867E+02  0.00000000000E+00 0. -1.
          1    1    1    2  501    0 -0.45809261632E+02  0.44491053493E+00  0.93898348026E+02  0.10447768259E+03  0.00000000000E+00 0. -1.
<scales pt_clust_5="13000.00000" pt_clust_6="13000.00000" pt_clust_7="13000.00000" pt_clust_8="13000.00000" pt_clust_9="45.81142"></scales>
<clustering>
<clus scale="   45.811">  1  9  2 -1</clus>
<clus scale="   82.281">  5  6 -1 -1</clus>
<clus scale="   90.790">  7  8 -1 -1</clus>
<clus scale="  125.203">  2  5  1 -1</clus>
<clus scale="   45.811">  1  5  2 -1</clus>
</clustering>
</event>
<event>
 9    2  0.1488992E-004  0.1299545E+03  0.7546771E-02  0.1229942E+00
          2   -1    0    0  502    0 -0.00000000000E+00  0.00000000000E+00  0.77409379240E+03  0.77409379240E+03  0.00000000000E+00 0. -1.
         21   -1    0    0  501  502  0.00000000000E+00 -0.00000000000E+00 -0.69941110050E+02  0.69941110050E+02  0.00000000000E+00 0.  1.
         24    2    1    2    0    0 -0.80768366583E+02  0.45306849631E+02  0.65551423210E+03  0.66681925414E+03  0.79829628223E+02 0.  0.
         23    2    1    2    0    0  0.87852648990E+02 -0.66633399557E+02  0.57418991292E+02  0.15308876103E+03  0.89337172117E+02 0.  0.
        -11    1    3    3    0    0 -0.79000274091E+02  0.24526073168E+02  0.31542874195E+03  0.32609486782E+03  0.00000000000E+00 0.  1.
         12    1    3    3    0    0 -0.17680924924E+01  0.20780776463E+02  0.34008549015E+03  0.34072438632E+03  0.00000000000E+00 0. -1.
        -13    1    4    4    0    0  0.39498848912E+02 -0.49639047649E+02 -0.14212773835E+02  0.65009207478E+02  0.00000000000E+00 0.  1.
         13    1    4    4    0    0  0.48353800078E+02 -0.16994351908E+02  0.71631765127E+02  0.88079553552E+02  0.00000000000E+00 0. -1.
          1    1    1    2  501    0 -0.70842824065E+01  0.21326549925E+02 -0.87805410402E+01  0.24126887281E+02  0.00000000000E+00 0. -1.
<scales pt_clust_5="13000.00000" pt_clust_6="13000.00000" pt_clust_7="13000.00000" pt_clust_8="13000.00000" pt_clust_9="22.47240"></scales>
<clustering>
<clus scale="   22.472">  2  9  1 -1</clus>
<clus scale="   79.830">  5  6 -1 -1</clus>
<clus scale="   89.337">  7  8 -1 -1</clus>
<clus scale="  123.612">  1  5  2 -1</clus>
<clus scale="   22.472">  2  5  1 -1</clus>
</clustering>
</event>
<event>
 9    2  0.1488992E-004  0.1583496E+03  0.7546771E-02  0.1192784E+00
         -1   -1    0    0    0  501 -0.00000000000E+00  0.00000000000E+00  0.31892974705E+03  0.31892974705E+03  0.00000000000E+00 0.  1.
         21   -1    0    0  501  502  0.00000000000E+00 -0.00000000000E+00 -0.18634709946E+03  0.18634709946E+03  0.00000000000E+00 0.  1.
         23    2    1    2    0    0  0.11567044544E+03  0.52405919675E+02  0.24101121712E+03  0.28808369764E+03  0.93700467986E+02 0.  0.
         24    2    1    2    0    0 -0.11048171374E+03 -0.75274114304E+02 -0.11388625552E+03  0.19311694488E+03  0.80322312279E+02 0.  0.
        -13    1    4    4    0    0 -0.82123683697E+02 -0.63542183330E+02 -0.36829857561E+02  0.11017416618E+03  0.00000000000E+00 0.  1.
         14    1    4    4    0    0 -0.28358030040E+02 -0.11731930974E+02 -0.77056397955E+02  0.82942778697E+02  0.00000000000E+00 0. -1.
        -11    1    3    3    0    0  0.10047525726E+03  0.74911974212E+02  0.16386650722E+03  0.20629908723E+03  0.00000000000E+00 0.  1.
         11    1    3    3    0    0  0.15195188185E+02 -0.22506054537E+02  0.77144709898E+02  0.81784610411E+02  0.00000000000E+00 0. -1.
         -2    1    1    2    0  502 -0.51887317052E+01  0.22868194629E+02  0.54576859896E+01  0.24076203992E+02  0.00000000000E+00 0.  1.
<scales pt_clust_5="13000.00000" pt_clust_6="13000.00000" pt_clust_7="13000.00000" pt_clust_8="13000.00000" pt_clust_9="23.44946"></scales>
<clustering>
<clus scale="   23.449">  2  9  1 -1</clus>
<clus scale="   80.322">  5  6 -1 -1</clus>
<clus scale="   93.700">  7  8 -1 -1</clus>
<clus scale="  150.819">  2  5  1 -1</clus>
<clus scale="   23.449">  2  5  1 -1</clus>
</clustering>
</event>
<event>
 9    2  0.1488992E-004  0.3579678E+03  0.7546771E-02  0.1059748E+00
         21   -1    0    0  501  502  0.00000000000E+00  0.00000000000E+00  0.31983545960E+03  0.31983545960E+03  0.00000000000E+00 0. -1.
          2   -1    0    0  502    0 -0.00000000000E+00 -0.00000000000E+00 -0.82546286171E+03  0.82546286171E+03  0.00000000000E+00 0. -1.
         24    2    1    2    0    0 -0.15969110186E+03  0.32916458756E+03 -0.41777234885E+03  0.56102160294E+03  0.79755437345E+02 0.  0.
         23    2    1    2    0    0  0.26573482336E+03 -0.17844948716E+03  0.70782009299E+02  0.34111827213E+03  0.94299347440E+02 0.  0.
        -13    1    3    3    0    0 -0.60303749127E+02  0.18304225395E+03 -0.17200488308E+03  0.25831509575E+03  0.00000000000E+00 0.  1.
         14    1    3    3    0    0 -0.99387352737E+02  0.14612233361E+03 -0.24576746578E+03  0.30270650719E+03  0.00000000000E+00 0. -1.
        -11    1    4    4    0    0  0.22179082353E+03 -0.17557380249E+03  0.84100228706E+02  0.29511045049E+03  0.00000000000E+00 0. -1.
         11    1    4    4    0    0  0.43943999836E+02 -0.28756846685E+01 -0.13318219407E+02  0.46007821640E+02  0.00000000000E+00 0.  1.
          1    1    1    2  501    0 -0.10604372150E+03 -0.15071510040E+03 -0.15863706255E+03  0.24315844623E+03  0.00000000000E+00 0. -1.
<scales pt_clust_5="13000.00000" pt_clust_6="13000.00000" pt_clust_7="13000.00000" pt_clust_8="13000.00000" pt_clust_9="184.28333"></scales>
<clustering>
<clus scale="   79.755">  5  6 -1 -1</clus>
<clus scale="   94.299">  7  8 -1 -1</clus>
<clus scale="  184.283">  1  9  2 -1</clus>
<clus scale="  354.414">  2  5  1 -1</clus>
<clus scale="  184.283">  1  5  2 -1</clus>
</clustering>
</event>
<event>
 9    2  0.1488992E-004  0.1812041E+03  0.7546771E-02  0.1188899E+00
          2   -1    0    0  502    0 -0.00000000000E+00  0.00000000000E+00  0.50124641426E+03  0.50124641426E+03  0.00000000000E+00 0. -1.
         21   -1    0    0  501  502  0.00000000000E+00 -0.00000000000E+00 -0.22058782334E+03  0.22058782334E+03  0.00000000000E+00 0.  1.
         23    2    1    2    0    0  0.27245269218E+01 -0.61434775902E+02 -0.13036541204E+03  0.17035191363E+03  0.90790853514E+02 0.  0.
         24    2    1    2    0    0  0.13820522035E+03  0.10476091427E+03  0.12253783200E+03  0.22750297467E+03  0.81648950529E+02 0.  0.
        -13    1    4    4    0    0  0.14114460869E+03  0.83340917978E+02  0.86143127832E+02  0.18517059066E+03  0.00000000000E+00 0.  1.
         14    1    4    4    0    0 -0.29393883394E+01  0.21419996296E+02  0.36394704163E+02  0.42332384013E+02  0.00000000000E+00 0. -1.
        -13    1    3    3    0    0  0.19991963857E+02 -0.80986097447E+02 -0.95356769716E+02  0.12669388355E+03  0.00000000000E+00 0.  1.
         13    1    3    3    0    0 -0.17267436935E+02  0.19551321545E+02 -0.35008642326E+02  0.43658030074E+02  0.00000000000E+00 0. -1.
          1    1    1    2  501    0 -0.14092974728E+03 -0.43326138371E+02  0.28848617097E+03  0.32397934930E+03  0.00000000000E+00 0. -1.
<scales pt_clust_5="13000.00000" pt_clust_6="13000.00000" pt_clust_7="13000.00000" pt_clust_8="13000.00000" pt_clust_9="161.76646"></scales>
<clustering>
<clus scale="   81.649">  5  6 -1 -1</clus>
<clus scale="   90.791">  7  8 -1 -1</clus>
<clus scale="  109.657">  1  7  2 -1</clus>
<clus scale="  161.766">  2  9  1 -1</clus>
<clus scale="  161.766">  2  5  1 -1</clus>
</clustering>
</event>
<event>
 9    2  0.1488992E-004  0.1325849E+03  0.7546771E-02  0.1226021E+00
          2   -1    0    0  502    0 -0.00000000000E+00  0.00000000000E+00  0.80720810377E+03  0.80720810377E+03  0.00000000000E+00 0. -1.
         21   -1    0    0  501  502  0.00000000000E+00 -0.00000000000E+00 -0.53342038122E+02  0.53342038122E+02  0.00000000000E+00 0.  1.
         23    2    1    2    0    0  0.86933925844E+02 -0.91310011397E+02  0.20746190577E+03  0.25904729561E+03  0.90388236933E+02 0.  0.
         24    2    1    2    0    0 -0.56560646181E+02  0.39550020275E+02  0.84647773971E+02  0.13586286440E+03  0.80809414574E+02 0.  0.
        -13    1    4    4    0    0 -0.66803649872E+02  0.19791374179E+01  0.47056451640E+02  0.81737104561E+02  0.00000000000E+00 0.  1.
         14    1    4    4    0    0  0.10243003691E+02  0.37570882857E+02  0.37591322330E+02  0.54125759836E+02  0.00000000000E+00 0. -1.
        -13    1    3    3    0    0  0.25102387900E+02 -0.74853248306E+02  0.62848285089E+02  0.10091107768E+03  0.00000000000E+00 0. -1.
         13    1    3    3    0    0  0.61831537944E+02 -0.16456763091E+02  0.14461362068E+03  0.15813621793E+03  0.00000000000E+00 0.  1.
          1    1    1    2  501    0 -0.30373279663E+02  0.51759991122E+02  0.46175638591E+03  0.46563998188E+03  0.00000000000E+00 0. -1.
<scales pt_clust_5="13000.00000" pt_clust_6="13000.00000" pt_clust_7="13000.00000" pt_clust_8="13000.00000" pt_clust_9="60.01364"></scales>
<clustering>
<clus scale="   60.014">  2  9  1 -1</clus>
<clus scale="   80.809">  5  6 -1 -1</clus>
<clus scale="   90.388">  7  8 -1 -1</clus>
<clus scale="  126.249">  2  5  1 -1</clus>
<clus scale="   60.014">  2  5  1 -1</clus>
</clustering>
</event>
<event>
 9    2  0.1488992E-004  0.1109220E+03  0.7546771E-02  0.1261913E+00
          2   -1    0    0  502    0 -0.00000000000E+00  0.00000000000E+00  0.15634136001E+03  0.15634136001E+03  0.00000000000E+00 0. -1.
         21   -1    0    0  501  502  0.00000000000E+00 -0.00000000000E+00 -0.35709873855E+03  0.35709873855E+03  0.00000000000E+00 0.  1.
         23    2    1    2    0    0 -0.61001772853E+02  0.17589738843E+02  0.85225412829E+02  0.14006908901E+03  0.91243429906E+02 0.  0.
         24    2    1    2    0    0  0.76200385866E+02  0.75909954413E+02 -0.21726140436E+03  0.25634186998E+03  0.83305560992E+02 0.  0.
        -13    1    4    4    0    0  0.57424351627E+02  0.69115331479E+02 -0.21858111079E+03  0.23633067342E+03  0.00000000000E+00 0.  1.
         14    1    4    4    0    0  0.18776034239E+02  0.67946229339E+01  0.13197064264E+01  0.20011196556E+02  0.00000000000E+00 0. -1.
        -11    1    3    3    0    0 -0.39483332434E+02  0.41574931674E+02  0.90780207540E+02  0.10737064108E+03  0.00000000000E+00 0. -1.
         11    1    3    3    0    0 -0.21518440419E+02 -0.23985192831E+02 -0.55547947113E+01  0.32698447937E+02  0.00000000000E+00 0.  1.
          1    1    1    2  501    0 -0.15198613013E+02 -0.93499693256E+02 -0.68721387003E+02  0.11702913957E+03  0.00000000000E+00 0. -1.
<scales pt_clust_5="13000.00000" pt_clust_6="13000.00000" pt_clust_7="13000.00000" pt_clust_8="13000.00000" pt_clust_9="94.72693"></scales>
<clustering>
<clus scale="   83.306">  5  6 -1 -1</clus>
<clus scale="   91.243">  7  8 -1 -1</clus>
<clus scale="   94.727">  2  9  1 -1</clus>
<clus scale="  104.490">  2  5  1 -1</clus>
<clus scale="   94.727">  2  5  1 -1</clus>
</clustering>
</event>
<event>
 9    2  0.1488992E-004  0.1639781E+03  0.7546771E-02  0.1186022E+00
          2   -1    0    0  502    0 -0.00000000000E+00  0.00000000000E+00  0.16710707949E+04  0.16710707949E+04  0.00000000000E+00 0. -1.
         21   -1    0    0  501  502  0.00000000000E+00 -0.00000000000E+00 -0.39029334439E+02  0.39029334439E+02  0.00000000000E+00 0. -1.
         24    2    1    2    0    0  0.13618375549E+03  0.35256000687E+02  0.12886563785E+04  0.12989044971E+04  0.82028225537E+02 0.  0.
         23    2    1    2    0    0 -0.11464723671E+03 -0.24096678277E+02  0.35422395107E+03  0.38462811063E+03  0.93485491875E+02 0.  0.
        -13    1    3    3    0    0  0.23118948117E+02 -0.20435149065E+02  0.14033484760E+03  0.14368698803E+03  0.00000000000E+00 0.  1.
         14    1    3    3    0    0  0.11306480737E+03  0.55691149752E+02  0.11483215309E+04  0.11552175090E+04  0.00000000000E+00 0. -1.
        -13    1    4    4    0    0 -0.78780237068E+02 -0.56510010387E+02  0.18814179493E+03  0.21165311722E+03  0.00000000000E+00 0.  1.
         13    1    4    4    0    0 -0.35866999638E+02  0.32413332111E+02  0.16608215613E+03  0.17297499341E+03  0.00000000000E+00 0. -1.
          1    1    1    2  501    0 -0.21536518783E+02 -0.11159322410E+02 -0.10838869174E+02  0.26567521580E+02  0.00000000000E+00 0. -1.
<scales pt_clust_5="13000.00000" pt_clust_6="13000.00000" pt_clust_7="13000.00000" pt_clust_8="13000.00000" pt_clust_9="24.25597"></scales>
<clustering>
<clus scale="   24.256">  2  9  1 -1</clus>
<clus scale="   82.028">  5  6 -1 -1</clus>
<clus scale="   93.485">  7  8 -1 -1</clus>
<clus scale="  157.727">  1  5  2 -1</clus>
<clus scale="   24.256">  2  5  1 -1</clus>
</clustering>
</event>
<event>
 9    2  0.1488992E-004  0.9836748E+02  0.7546771E-02  0.1291266E+00
         21   -1    0    0  501  502  0.00000000000E+00  0.00000000000E+00  0.11687283896E+03  0.11687283896E+03  0.00000000000E+00 0.  1.
         -1   -1    0    0    0  501 -0.00000000000E+00 -0.00000000000E+00 -0.20416078877E+03  0.20416078877E+03  0.00000000000E+00 0.  1.
         24    2    1    2    0    0 -0.21132158132E+02 -0.21929608359E+02 -0.13560266161E+03  0.16023373353E+03  0.79745167220E+02 0.  0.
         23    2    1    2    0    0 -0.10665715585E+02  0.47513344280E+02  0.11833205752E+02  0.10605930048E+03  0.93473392395E+02 0.  0.
        -11    1    3    3    0    0 -0.34407395606E+02 -0.36050789239E+02 -0.43611554106E+02  0.66223077010E+02  0.00000000000E+00 0.  1.
         12    1    3    3    0    0  0.13275237474E+02  0.14121180879E+02 -0.91991107506E+02  0.94010656521E+02  0.00000000000E+00 0. -1.
        -11    1    4    4    0    0 -0.22028474859E+02  0.64337348559E+02 -0.17654851199E+02  0.70258393770E+02  0.00000000000E+00 0.  1.
         11    1    4    4    0    0  0.11362759275E+02 -0.16824004279E+02  0.29488056951E+02  0.35800906708E+02  0.00000000000E+00 0. -1.
         -2    1    1    2    0  502  0.31797873716E+02 -0.25583735921E+02  0.36481506050E+02  0.54740593715E+02  0.00000000000E+00 0.  1.
<scales pt_clust_5="13000.00000" pt_clust_6="13000.00000" pt_clust_7="13000.00000" pt_clust_8="13000.00000" pt_clust_9="40.81216"></scales>
<clustering>
<clus scale="   40.812">  1  9  2 -1</clus>
<clus scale="   79.745">  5  6 -1 -1</clus>
<clus scale="   85.429">  2  5  1 -1</clus>
<clus scale="   93.473">  7  8 -1 -1</clus>
<clus scale="   40.812">  1  5  2 -1</clus>
</clustering>
</event>
<event>
 9    2  0.1488992E-004  0.1779868E+03  0.7546771E-02  0.1171171E+00
          2   -1    0    0  502    0 -0.00000000000E+00  0.00000000000E+00  0.15803398916E+04  0.15803398916E+04  0.00000000000E+00 0. -1.
         21   -1    0    0  501  502  0.00000000000E+00 -0.00000000000E+00 -0.31722845576E+02  0.31722845576E+02  0.00000000000E+00 0. -1.
         24    2    1    2    0    0 -0.14787078366E+03  0.53804782481E+01  0.88119447520E+03  0.89727158390E+03  0.81840539806E+02 0.  0.
         23    2    1    2    0    0  0.15846347736E+03  0.56793559427E+02  0.48393742247E+03  0.52076894890E+03  0.93105785142E+02 0.  0.
        -13    1    3    3    0    0 -0.13151598555E+03  0.38345262416E+00  0.54505518347E+03  0.56069756065E+03  0.00000000000E+00 0.  1.
         14    1    3    3    0    0 -0.16354798109E+02  0.49970256240E+01  0.33613929172E+03  0.33657402325E+03  0.00000000000E+00 0. -1.
        -11    1    4    4    0    0  0.85352974562E+02  0.52403305425E+02  0.16084746966E+03  0.18948125285E+03  0.00000000000E+00 0. -1.
         11    1    4    4    0    0  0.73110502794E+02  0.43902540016E+01  0.32308995281E+03  0.33128769605E+03  0.00000000000E+00 0.  1.
          1    1    1    2  501    0 -0.10592693701E+02 -0.62174037675E+02  0.18348514831E+03  0.19402220433E+03  0.00000000000E+00 0. -1.
<scales pt_clust_5="13000.00000" pt_clust_6="13000.00000" pt_clust_7="13000.00000" pt_clust_8="13000.00000" pt_clust_9="63.06993"></scales>
<clustering>
<clus scale="   63.070">  2  9  1 -1</clus>
<clus scale="   81.841">  5  6 -1 -1</clus>
<clus scale="   93.106">  7  8 -1 -1</clus>
<clus scale="  172.362">  1  5  2 -1</clus>
<clus scale="   63.070">  2  5  1 -1</clus>
</clustering>
</event>
<event>
 9    2  0.1488992E-004  0.9418360E+02  0.7546771E-02  0.1298618E+00
         21   -1    0    0  501  502  0.00000000000E+00  0.00000000000E+00  0.20637374396E+03  0.20637374396E+03  0.00000000000E+00 0.  1.
         -1   -1    0    0    0  501 -0.00000000000E+00 -0.00000000000E+00 -0.11924145496E+03  0.11924145496E+03  0.00000000000E+00 0.  1.
         23    2    1    2    0    0 -0.26434199702E+02 -0.65214678844E+01  0.44027979624E+01  0.95728268119E+02  0.91669080010E+02 0.  0.
         24    2    1    2    0    0  0.44908832934E+01 -0.41908956612E+02  0.12953685813E+03  0.15904947768E+03  0.82100000353E+02 0.  0.
        -13    1    4    4    0    0 -0.13580739972E+02 -0.58737719241E+02  0.11638260210E+03  0.13107046285E+03  0.00000000000E+00 0.  1.
         14    1    4    4    0    0  0.18071623266E+02  0.16828762629E+02  0.13154256030E+02  0.27979014829E+02  0.00000000000E+00 0. -1.
        -13    1    3    3    0    0 -0.57445977252E+02 -0.12605529680E+02 -0.12147160991E+02  0.60054085632E+02  0.00000000000E+00 0. -1.
         13    1    3    3    0    0  0.31011777550E+02  0.60840617958E+01  0.16549958953E+02  0.35674182487E+02  0.00000000000E+00 0.  1.
         -2    1    1    2    0  502  0.21943316409E+02  0.48430424496E+02 -0.46807367085E+02  0.70837453125E+02  0.00000000000E+00 0.  1.
<scales pt_clust_5="13000.00000" pt_clust_6="13000.00000" pt_clust_7="13000.00000" pt_clust_8="13000.00000" pt_clust_9="53.16971"></scales>
<clustering>
<clus scale="   53.170">  1  9  2 -1</clus>
<clus scale="   82.100">  5  6 -1 -1</clus>
<clus scale="   84.898">  1  5  2 -1</clus>
<clus scale="   91.669">  7  8 -1 -1</clus>
<clus scale="   53.170">  1  5  2 -1</clus>
</clustering>
</event>
<event>
 9    2  0.1488992E-004  0.1328968E+03  0.7546771E-02  0.1236515E+00
         21   -1    0    0  501  502  0.00000000000E+00  0.00000000000E+00  0.98155917149E+02  0.98155917149E+02  0.00000000000E+00 0.  1.
          2   -1    0    0  502    0 -0.00000000000E+00 -0.00000000000E+00 -0.42032039045E+03  0.42032039045E+03  0.00000000000E+00 0. -1.
         23    2    1    2    0    0  0.31788778001E+02  0.33447102368E+02 -0.57562413991E+02  0.11623860470E+03  0.89826202493E+02 0.  0.
         24    2    1    2    0    0  0.70404900606E+02 -0.76520281171E+02 -0.21122064205E+02  0.13469078235E+03  0.82965425290E+02 0.  0.
        -11    1    4    4    0    0  0.82388361359E+02 -0.73696523172E+02 -0.35180958049E+02  0.11600310093E+03  0.00000000000E+00 0.  1.
         12    1    4    4    0    0 -0.11983460753E+02 -0.28237579990E+01  0.14058893844E+02  0.18687681423E+02  0.00000000000E+00 0. -1.
        -13    1    3    3    0    0 -0.24935253370E+02  0.26281941548E+02 -0.16457093246E+01  0.36265902323E+02  0.00000000000E+00 0.  1.
         13    1    3    3    0    0  0.56724031371E+02  0.71651608204E+01 -0.55916704666E+02  0.79972702375E+02  0.00000000000E+00 0. -1.
          1    1    1    2  501    0 -0.10219367861E+03  0.43073178804E+02 -0.24347999511E+03  0.26754692055E+03  0.00000000000E+00 0. -1.
<scales pt_clust_5="13000.00000" pt_clust_6="13000.00000" pt_clust_7="13000.00000" pt_clust_8="13000.00000" pt_clust_9="103.81867"></scales>
<clustering>
<clus scale="   82.965">  5  6 -1 -1</clus>
<clus scale="   89.826">  7  8 -1 -1</clus>
<clus scale="  100.985">  2  7  1 -1</clus>
<clus scale="  103.819">  1  9  2 -1</clus>
<clus scale="  103.819">  1  5  2 -1</clus>
</clustering>
</event>
<event>
 9    2  0.1488992E-004  0.1111664E+03  0.7546771E-02  0.1262231E+00
         21   -1    0    0  501  502  0.00000000000E+00  0.00000000000E+00  0.10124797511E+04  0.10124797511E+04  0.00000000000E+00 0. -1.
          4   -1    0    0  502    0 -0.00000000000E+00 -0.00000000000E+00 -0.21997868934E+02  0.21997868934E+02  0.00000000000E+00 0. -1.
         23    2    1    2    0    0  0.86487298459E+01  0.91762896548E+02  0.29165590994E+03  0.31898448248E+03  0.90513537939E+02 0.  0.
         24    2    1    2    0    0  0.40863769547E+01 -0.36823557530E+02  0.30355005816E+03  0.31621433502E+03  0.80474809680E+02 0.  0.
        -13    1    4    4    0    0 -0.27418865342E+02 -0.44860419741E+02  0.22766461896E+03  0.23365665015E+03  0.00000000000E+00 0.  1.
         14    1    4    4    0    0  0.31505242297E+02  0.80368622119E+01  0.75885439208E+02  0.82557684864E+02  0.00000000000E+00 0. -1.
        -13    1    3    3    0    0  0.32689087955E+02  0.19571649552E+02  0.17920190393E+03  0.18320739152E+03  0.00000000000E+00 0.  1.
         13    1    3    3    0    0 -0.24040358109E+02  0.72191246996E+02  0.11245400601E+03  0.13577709096E+03  0.00000000000E+00 0. -1.
          3    1    1    2  501    0 -0.12735106801E+02 -0.54939339018E+02  0.39527591409E+03  0.39927880256E+03  0.00000000000E+00 0. -1.
<scales pt_clust_5="13000.00000" pt_clust_6="13000.00000" pt_clust_7="13000.00000" pt_clust_8="13000.00000" pt_clust_9="56.39605"></scales>
<clustering>
<clus scale="   56.396">  1  9  2 -1</clus>
<clus scale="   80.475">  5  6 -1 -1</clus>
<clus scale="   90.514">  7  8 -1 -1</clus>
<clus scale="  103.158">  1  5  2 -1</clus>
<clus scale="   56.396">  1  5  2 -1</clus>
</clustering>
</event>
<event>
 9    2  0.1488992E-004  0.1003944E+03  0.7546771E-02  0.1282532E+00
         -1   -1    0    0    0  501 -0.00000000000E+00  0.00000000000E+00  0.13263622712E+03  0.13263622712E+03  0.00000000000E+00 0.  1.
         21   -1    0    0  501  502  0.00000000000E+00 -0.00000000000E+00 -0.15395514386E+03  0.15395514386E+03  0.00000000000E+00 0.  1.
         24    2    1    2    0    0  0.40525343196E+02  0.37699789367E+02  0.67671090905E+02  0.12009452172E+03  0.82339176841E+02 0.  0.
         23    2    1    2    0    0  0.41194430595E+01 -0.26247044139E+02 -0.71993468568E+02  0.11737246984E+03  0.88810810276E+02 0.  0.
        -11    1    3    3    0    0  0.28668609734E+02  0.56175751966E+02  0.74016938283E+02  0.97242539281E+02  0.00000000000E+00 0.  1.
         12    1    3    3    0    0  0.11856733462E+02 -0.18475962599E+02 -0.63458473780E+01  0.22851982437E+02  0.00000000000E+00 0. -1.
        -11    1    4    4    0    0  0.43911538437E+02 -0.97656450394E+01 -0.18362404220E+02  0.48587744542E+02  0.00000000000E+00 0.  1.
         11    1    4    4    0    0 -0.39792095377E+02 -0.16481399099E+02 -0.53631064348E+02  0.68784725295E+02  0.00000000000E+00 0. -1.
         -2    1    1    2    0  502 -0.44644786255E+02 -0.11452745228E+02 -0.16996539079E+02  0.49124379423E+02  0.00000000000E+00 0.  1.
<scales pt_clust_5="13000.00000" pt_clust_6="13000.00000" pt_clust_7="13000.00000" pt_clust_8="13000.00000" pt_clust_9="46.09037"></scales>
<clustering>
<clus scale="   46.090">  2  9  1 -1</clus>
<clus scale="   82.339">  5  6 -1 -1</clus>
<clus scale="   88.811">  7  8 -1 -1</clus>
<clus scale="   94.718">  1  5  2 -1</clus>
<clus scale="   46.090">  2  5  1 -1</clus>
</clustering>
</event>
<event>
 9    2  0.1488992E-004  0.9782651E+02  0.7546771E-02  0.1291015E+00
         21   -1    0    0  501  502  0.00000000000E+00  0.00000000000E+00  0.45026288537E+02  0.45026288537E+02  0.00000000000E+00 0.  1.
          2   -1    0    0  502    0 -0.00000000000E+00 -0.00000000000E+00 -0.71321606541E+03  0.71321606541E+03  0.00000000000E+00 0. -1.
         23    2    1    2    0    0  0.31680395456E+02 -0.77639998566E+01 -0.35338087404E+03  0.36717483914E+03  0.94209305355E+02 0.  0.
         24    2    1    2    0    0  0.19720045007E+02  0.36066032225E+02 -0.26007489523E+02  0.96365518462E+02  0.83188249059E+02 0.  0.
        -11    1    4    4    0    0  0.34454252131E+02  0.86517332556E+01  0.20040002524E+02  0.40786636039E+02  0.00000000000E+00 0.  1.
         12    1    4    4    0    0 -0.14734207124E+02  0.27414298970E+02 -0.46047492047E+02  0.55578882423E+02  0.00000000000E+00 0. -1.
        -13    1    3    3    0    0  0.61401686099E+02 -0.74935580934E+01 -0.29768987546E+03  0.30404865140E+03  0.00000000000E+00 0.  1.
         13    1    3    3    0    0 -0.29721290643E+02 -0.27044176322E+00 -0.55690998580E+02  0.63126187744E+02  0.00000000000E+00 0. -1.
          1    1    1    2  501    0 -0.51400440463E+02 -0.28302032369E+02 -0.28880141331E+03  0.29470199634E+03  0.00000000000E+00 0. -1.
<scales pt_clust_5="13000.00000" pt_clust_6="13000.00000" pt_clust_7="13000.00000" pt_clust_8="13000.00000" pt_clust_9="58.67720"></scales>
<clustering>
<clus scale="   58.677">  1  9  2 -1</clus>
<clus scale="   83.188">  5  6 -1 -1</clus>
<clus scale="   87.263">  1  5  2 -1</clus>
<clus scale="   94.209">  7  8 -1 -1</clus>
<clus scale="   58.677">  1  5  2 -1</clus>
</clustering>
</event>
<event>
 9    2  0.1488992E-004  0.1555294E+03  0.7546771E-02  0.1206518E+00
         21   -1    0    0  501  502  0.00000000000E+00  0.00000000000E+00  0.16175691549E+03  0.16175691549E+03  0.00000000000E+00 0.  1.
         -1   -1    0    0    0  501 -0.00000000000E+00 -0.00000000000E+00 -0.38651070801E+03  0.38651070801E+03  0.00000000000E+00 0.  1.
         23    2    1    2    0    0  0.79304285490E+02  0.35260893274E+02  0.38226432880E+02  0.12413226234E+03  0.80094057786E+02 0.  0.
         24    2    1    2    0    0  0.37339317529E+02 -0.12349104655E+03 -0.23034505104E+03  0.27428428615E+03  0.74355658020E+02 0.  0.
        -13    1    4    4    0    0 -0.12501595735E+02 -0.83007062455E+02 -0.11671553996E+03  0.14376710188E+03  0.00000000000E+00 0.  1.
         14    1    4    4    0    0  0.49840913264E+02 -0.40483984094E+02 -0.11362951108E+03  0.13051718428E+03  0.00000000000E+00 0. -1.
        -11    1    3    3    0    0  0.35894165374E+02  0.35025682453E+02  0.57789750464E+02  0.76516957584E+02  0.00000000000E+00 0.  1.
         11    1    3    3    0    0  0.43410120115E+02  0.23521082049E+00 -0.19563317584E+02  0.47615304761E+02  0.00000000000E+00 0. -1.
         -2    1    1    2    0  502 -0.11664360302E+03  0.88230153275E+02 -0.32635174354E+02  0.14985107500E+03  0.00000000000E+00 0.  1.
<scales pt_clust_5="13000.00000" pt_clust_6="13000.00000" pt_clust_7="13000.00000" pt_clust_8="13000.00000" pt_clust_9="136.60389"></scales>
<clustering>
<clus scale="   74.356">  5  6 -1 -1</clus>
<clus scale="   80.094">  7  8 -1 -1</clus>
<clus scale="  118.100">  2  7  1 -1</clus>
<clus scale="  136.604">  1  9  2 -1</clus>
<clus scale="  136.604">  1  5  2 -1</clus>
</clustering>
</event>
<event>
 9    2  0.1488992E-004  0.1309872E+03  0.7546771E-02  0.1229681E+00
         21   -1    0    0  501  502  0.00000000000E+00  0.00000000000E+00  0.33106667127E+03  0.33106667127E+03  0.00000000000E+00 0.  1.
          2   -1    0    0  502    0 -0.00000000000E+00 -0.00000000000E+00 -0.17479705041E+03  0.17479705041E+03  0.00000000000E+00 0. -1.
         23    2    1    2    0    0  0.97542245851E+02 -0.24214813790E+02  0.86051922902E+02  0.16187333027E+03  0.93258751256E+02 0.  0.
         24    2    1    2    0    0 -0.70019544773E+02  0.37820428120E+02  0.18980946931E+03  0.22052054248E+03  0.79174197713E+02 0.  0.
        -13    1    4    4    0    0 -0.81688809554E+02  0.49628086910E+02  0.16447295894E+03  0.19022976329E+03  0.00000000000E+00 0.  1.
         14    1    4    4    0    0  0.11669264782E+02 -0.11807658791E+02  0.25336510367E+02  0.30290779195E+02  0.00000000000E+00 0. -1.
        -13    1    3    3    0    0 -0.23166311717E+01  0.22825193022E+02  0.18050493246E+01  0.23013353070E+02  0.00000000000E+00 0. -1.
         13    1    3    3    0    0  0.99858877023E+02 -0.47040006812E+02  0.84246873577E+02  0.13885997720E+03  0.00000000000E+00 0.  1.
          1    1    1    2  501    0 -0.27522701078E+02 -0.13605614329E+02 -0.11959177136E+03  0.12346984892E+03  0.00000000000E+00 0. -1.
<scales pt_clust_5="13000.00000" pt_clust_6="13000.00000" pt_clust_7="13000.00000" pt_clust_8="13000.00000" pt_clust_9="30.70200"></scales>
<clustering>
<clus scale="   30.702">  1  9  2 -1</clus>
<clus scale="   79.174">  5  6 -1 -1</clus>
<clus scale="   93.259">  7  8 -1 -1</clus>
<clus scale="  121.363">  1  5  2 -1</clus>
<clus scale="   30.702">  1  5  2 -1</clus>
</clustering>
</event>
<event>
 9    2  0.1488992E-004  0.2270500E+03  0.7546771E-02  0.1129991E+00
         21   -1    0    0  501  502  0.00000000000E+00  0.00000000000E+00  0.56928849801E+02  0.56928849801E+02  0.00000000000E+00 0. -1.
          2   -1    0    0  502    0 -0.00000000000E+00 -0.00000000000E+00 -0.19233813448E+04  0.19233813448E+04  0.00000000000E+00 0. -1.
         24    2    1    2    0    0 -0.95741588761E+02 -0.18558095656E+03 -0.15038348839E+04  0.15203565117E+04  0.79735948076E+02 0.  0.
         23    2    1    2    0    0  0.60767810340E+02  0.17606640497E+03 -0.18902449950E+03  0.28261710949E+03  0.97211436747E+02 0.  0.
        -11    1    3    3    0    0 -0.19651745282E+02 -0.16424887946E+02 -0.69322263061E+02  0.73902261078E+02  0.00000000000E+00 0.  1.
         12    1    3    3    0    0 -0.76089843479E+02 -0.16915606862E+03 -0.14345126208E+04  0.14464542506E+04  0.00000000000E+00 0. -1.
        -13    1    4    4    0    0  0.32499468845E+02  0.30555230603E+02 -0.29328809711E+01  0.44703907919E+02  0.00000000000E+00 0.  1.
         13    1    4    4    0    0  0.28268341495E+02  0.14551117436E+03 -0.18609161853E+03  0.23791320157E+03  0.00000000000E+00 0. -1.
          1    1    1    2  501    0  0.34973778421E+02  0.95145515954E+01 -0.17359311159E+03  0.17733657338E+03  0.00000000000E+00 0. -1.
<scales pt_clust_5="13000.00000" pt_clust_6="13000.00000" pt_clust_7="13000.00000" pt_clust_8="13000.00000" pt_clust_9="36.24491"></scales>
<clustering>
<clus scale="   36.245">  1  9  2 -1</clus>
<clus scale="   79.736">  5  6 -1 -1</clus>
<clus scale="   97.211">  7  8 -1 -1</clus>
<clus scale="  220.135">  2  5  1 -1</clus>
<clus scale="   36.245">  1  5  2 -1</clus>
</clustering>
</event>
<event>
 9    2  0.1488992E-004  0.1016418E+03  0.7546771E-02  0.1279153E+00
         21   -1    0    0  501  502  0.00000000000E+00  0.00000000000E+00  0.80839562132E+02  0.80839562132E+02  0.00000000000E+00 0.  1.
          2   -1    0    0  502    0 -0.00000000000E+00 -0.00000000000E+00 -0.25975162935E+03  0.25975162935E+03  0.00000000000E+00 0. -1.
         23    2    1    2    0    0 -0.10360269059E+02 -0.49630116461E+02 -0.17939992762E+03  0.20765218514E+03  0.91458254559E+02 0.  0.
         24    2    1    2    0    0 -0.21956660250E+02  0.26828110002E+02 -0.16355786211E+01  0.93330618196E+02  0.86637675176E+02 0.  0.
        -11    1    4    4    0    0  0.22344223752E+02 -0.16941095472E+02  0.10391140390E+02  0.29903860110E+02  0.00000000000E+00 0.  1.
         12    1    4    4    0    0 -0.44300884001E+02  0.43769205474E+02 -0.12026719011E+02  0.63426758086E+02  0.00000000000E+00 0. -1.
        -13    1    3    3    0    0 -0.37981252343E+02 -0.39468256480E+02 -0.47479873850E+02  0.72489014478E+02  0.00000000000E+00 0.  1.
         13    1    3    3    0    0  0.27620983284E+02 -0.10161859981E+02 -0.13192005377E+03  0.13516317066E+03  0.00000000000E+00 0. -1.
          1    1    1    2  501    0  0.32316929309E+02  0.22802006458E+02  0.21234390238E+01  0.39608388149E+02  0.00000000000E+00 0. -1.
<scales pt_clust_5="13000.00000" pt_clust_6="13000.00000" pt_clust_7="13000.00000" pt_clust_8="13000.00000" pt_clust_9="39.55143"></scales>
<clustering>
<clus scale="   39.551">  1  9  2 -1</clus>
<clus scale="   86.638">  5  6 -1 -1</clus>
<clus scale="   91.458">  7  8 -1 -1</clus>
<clus scale="   97.327">  1  5  2 -1</clus>
<clus scale="   39.551">  1  5  2 -1</clus>
</clustering>
</event>
<event>
 9    2  0.1488992E-004  0.1335696E+03  0.7546771E-02  0.1224039E+00
         -3   -1    0    0    0  501 -0.00000000000E+00  0.00000000000E+00  0.11818265940E+04  0.11818265940E+04  0.00000000000E+00 0.  1.
         21   -1    0    0  501  502  0.00000000000E+00 -0.00000000000E+00 -0.24415295427E+02  0.24415295427E+02  0.00000000000E+00 0.  1.
         24    2    1    2    0    0  0.89962350386E+02  0.65738382543E+02  0.59002409101E+03  0.60574547171E+03  0.79902372346E+02 0.  0.
         23    2    1    2    0    0 -0.97394529318E+02 -0.49626676707E+01  0.44092208700E+03  0.45998893919E+03  0.87562634493E+02 0.  0.
        -11    1    3    3    0    0  0.15088642026E+02  0.35713803421E+02  0.74863527271E+02  0.84307120627E+02  0.00000000000E+00 0.  1.
         12    1    3    3    0    0  0.74873708360E+02  0.30024579122E+02  0.51516056373E+03  0.52143835108E+03  0.00000000000E+00 0. -1.
        -11    1    4    4    0    0 -0.83866229446E+02  0.19745287652E+02  0.40639891702E+03  0.41543170387E+03  0.00000000000E+00 0. -1.
         11    1    4    4    0    0 -0.13528299872E+02 -0.24707955323E+02  0.34523169982E+02  0.44557235319E+02  0.00000000000E+00 0.  1.
         -4    1    1    2    0  502  0.74321789324E+01 -0.60775714873E+02  0.12646512057E+03  0.14050747853E+03  0.00000000000E+00 0.  1.
<scales pt_clust_5="13000.00000" pt_clust_6="13000.00000" pt_clust_7="13000.00000" pt_clust_8="13000.00000" pt_clust_9="61.22846"></scales>
<clustering>
<clus scale="   61.228">  2  9  1 -1</clus>
<clus scale="   79.902">  5  6 -1 -1</clus>
<clus scale="   87.563">  7  8 -1 -1</clus>
<clus scale="  128.678">  1  5  2 -1</clus>
<clus scale="   61.228">  2  5  1 -1</clus>
</clustering>
</event>
<event>
 9    2  0.1488992E-004  0.1443156E+03  0.7546771E-02  0.1209330E+00
         21   -1    0    0  501  502  0.00000000000E+00  0.00000000000E+00  0.46432929658E+03  0.46432929658E+03  0.00000000000E+00 0. -1.
          2   -1    0    0  502    0 -0.00000000000E+00 -0.00000000000E+00 -0.12768493876E+03  0.12768493876E+03  0.00000000000E+00 0. -1.
         24    2    1    2    0    0 -0.11074450666E+03  0.39400922116E+02 -0.17981867091E+02  0.14377195922E+03  0.80809964078E+02 0.  0.
         23    2    1    2    0    0  0.11067088428E+03  0.30461508082E+01  0.66586061525E+02  0.15709129271E+03  0.89368042344E+02 0.  0.
        -11    1    3    3    0    0 -0.69824385177E+02  0.11110381611E+02 -0.48196739656E+02  0.85567581819E+02  0.00000000000E+00 0.  1.
         12    1    3    3    0    0 -0.40920121484E+02  0.28290540505E+02  0.30214872565E+02  0.58204377399E+02  0.00000000000E+00 0. -1.
        -11    1    4    4    0    0  0.50787802003E+02  0.10782778843E+02  0.79874108933E+02  0.95265641392E+02  0.00000000000E+00 0.  1.
         11    1    4    4    0    0  0.59883082281E+02 -0.77366280344E+01 -0.13288047408E+02  0.61825651317E+02  0.00000000000E+00 0. -1.
          1    1    1    2  501    0  0.73622376517E-01 -0.42447072924E+02  0.28804016338E+03  0.29115098341E+03  0.00000000000E+00 0. -1.
<scales pt_clust_5="13000.00000" pt_clust_6="13000.00000" pt_clust_7="13000.00000" pt_clust_8="13000.00000" pt_clust_9="42.44714"></scales>
<clustering>
<clus scale="   42.447">  1  9  2 -1</clus>
<clus scale="   80.810">  5  6 -1 -1</clus>
<clus scale="   89.368">  7  8 -1 -1</clus>
<clus scale="  139.178">  2  5  1 -1</clus>
<clus scale="   42.447">  1  5  2 -1</clus>
</clustering>
</event>
<event>
 9    2  0.1488992E-004  0.1013998E+03  0.7546771E-02  0.1284302E+00
         21   -1    0    0  501  502  0.00000000000E+00  0.00000000000E+00  0.30634095851E+03  0.30634095851E+03  0.00000000000E+00 0.  1.
          4   -1    0    0  502    0 -0.00000000000E+00 -0.00000000000E+00 -0.59151255356E+02  0.59151255356E+02  0.00000000000E+00 0. -1.
         24    2    1    2    0    0  0.35658966896E+02  0.19112265664E+02  0.29840377415E+02  0.94667933257E+02  0.80216761615E+02 0.  0.
         23    2    1    2    0    0 -0.43487668316E+02  0.28409496355E+02  0.18128279990E+03  0.21065451480E+03  0.93880745032E+02 0.  0.
        -11    1    3    3    0    0 -0.13130278486E+02  0.25937480137E+02 -0.10586911668E+02  0.30939291971E+02  0.00000000000E+00 0.  1.
         12    1    3    3    0    0  0.48789245382E+02 -0.68252144734E+01  0.40427289083E+02  0.63728641286E+02  0.00000000000E+00 0. -1.
        -13    1    4    4    0    0 -0.53190453554E+02 -0.83239380163E+00  0.16952820482E+03  0.17767872540E+03  0.00000000000E+00 0.  1.
         13    1    4    4    0    0  0.97027852381E+01  0.29241890157E+02  0.11754595078E+02  0.32975789403E+02  0.00000000000E+00 0. -1.
          3    1    1    2  501    0  0.78287014197E+01 -0.47521762019E+02  0.36066525839E+02  0.60169765808E+02  0.00000000000E+00 0. -1.
<scales pt_clust_5="13000.00000" pt_clust_6="13000.00000" pt_clust_7="13000.00000" pt_clust_8="13000.00000" pt_clust_9="48.16232"></scales>
<clustering>
<clus scale="   48.162">  1  9  2 -1</clus>
<clus scale="   80.217">  5  6 -1 -1</clus>
<clus scale="   88.899">  2  5  1 -1</clus>
<clus scale="   93.881">  7  8 -1 -1</clus>
<clus scale="   48.162">  1  5  2 -1</clus>
</clustering>
</event>
<event>
 9    2  0.1488992E-004  0.1487202E+03  0.7546771E-02  0.1228671E+00
         21   -1    0    0  501  502  0.00000000000E+00  0.00000000000E+00  0.39833494689E+03  0.39833494689E+03  0.00000000000E+00 0. -1.
          2   -1    0    0  502    0 -0.00000000000E+00 -0.00000000000E+00 -0.94014592801E+02  0.94014592801E+02  0.00000000000E+00 0. -1.
         24    2    1    2    0    0 -0.27665804450E+02 -0.54980691494E+01  0.15234125911E+01  0.84684336783E+02  0.79834144388E+02 0.  0.
         23    2    1    2    0    0 -0.77718630611E+02 -0.64351454448E+02  0.10053922692E+03  0.16914262912E+03  0.91212924538E+02 0.  0.
        -11    1    3    3    0    0 -0.37588724760E+02  0.40977263798E+01 -0.31294162928E+02  0.49081852287E+02  0.00000000000E+00 0.  1.
         12    1    3    3    0    0  0.99229203094E+01 -0.95957955292E+01  0.32817575519E+02  0.35602484496E+02  0.00000000000E+00 0. -1.
        -13    1    4    4    0    0 -0.86930812541E+02 -0.29266446291E+02  0.95679044214E+02  0.13254422111E+03  0.00000000000E+00 0. -1.
         13    1    4    4    0    0  0.92121819294E+01 -0.35085008157E+02  0.48601827096E+01  0.36598408015E+02  0.00000000000E+00 0.  1.
          1    1    1    2  501    0  0.10538443506E+03  0.69849523598E+02  0.20225771457E+03  0.23852257378E+03  0.00000000000E+00 0. -1.
<scales pt_clust_5="13000.00000" pt_clust_6="13000.00000" pt_clust_7="13000.00000" pt_clust_8="13000.00000" pt_clust_9="117.46447"></scales>
<clustering>
<clus scale="   79.834">  5  6 -1 -1</clus>
<clus scale="   84.671">  2  5  1 -1</clus>
<clus scale="   91.213">  7  8 -1 -1</clus>
<clus scale="  117.464">  1  9  2 -1</clus>
<clus scale="  117.464">  1  5  2 -1</clus>
</clustering>
</event>
<event>
 9    2  0.1488992E-004  0.1896636E+03  0.7546771E-02  0.1187345E+00
          2   -1    0    0  502    0 -0.00000000000E+00  0.00000000000E+00  0.16031696541E+04  0.16031696541E+04  0.00000000000E+00 0. -1.
         21   -1    0    0  501  502  0.00000000000E+00 -0.00000000000E+00 -0.34010255165E+02  0.34010255165E+02  0.00000000000E+00 0. -1.
         24    2    1    2    0    0 -0.50188584202E+02  0.29864964998E+02  0.47473296591E+03  0.48494129115E+03  0.79911556247E+02 0.  0.
         23    2    1    2    0    0  0.16350844088E+03 -0.11211549037E+03  0.61974563853E+03  0.65733620804E+03  0.93280976092E+02 0.  0.
        -13    1    3    3    0    0 -0.38379944618E+02 -0.10061611981E+02  0.95283745597E+02  0.10321457436E+03  0.00000000000E+00 0.  1.
         14    1    3    3    0    0 -0.11808639584E+02  0.39926576978E+02  0.37944922031E+03  0.38172671679E+03  0.00000000000E+00 0. -1.
        -13    1    4    4    0    0  0.26020725446E+02 -0.40358849668E+02  0.27706317817E+03  0.28119374033E+03  0.00000000000E+00 0.  1.
         13    1    4    4    0    0  0.13748771543E+03 -0.71756640700E+02  0.34268246036E+03  0.37614246771E+03  0.00000000000E+00 0. -1.
          1    1    1    2  501    0 -0.11331985668E+03  0.82250525371E+02  0.47468079453E+03  0.49490241012E+03  0.00000000000E+00 0. -1.
<scales pt_clust_5="13000.00000" pt_clust_6="13000.00000" pt_clust_7="13000.00000" pt_clust_8="13000.00000" pt_clust_9="165.13916"></scales>
<clustering>
<clus scale="   79.912">  5  6 -1 -1</clus>
<clus scale="   93.281">  7  8 -1 -1</clus>
<clus scale="   98.978">  1  5  2 -1</clus>
<clus scale="  165.139">  2  9  1 -1</clus>
<clus scale="  165.139">  2  5  1 -1</clus>
</clustering>
</event>
<event>
 9    2  0.1488992E-004  0.9902045E+02  0.7546771E-02  0.1287734E+00
         21   -1    0    0  501  502  0.00000000000E+00  0.00000000000E+00  0.73322691408E+03  0.73322691408E+03  0.00000000000E+00 0.  1.
         -1   -1    0    0    0  501 -0.00000000000E+00 -0.00000000000E+00 -0.46960459923E+02  0.46960459923E+02  0.00000000000E+00 0.  1.
         23    2    1    2    0    0  0.25031507381E+02 -0.38970930314E+02  0.24444859311E+02  0.10509185402E+03  0.91112221262E+02 0.  0.
         24    2    1    2    0    0 -0.62848755170E+01 -0.84067112611E+00  0.30402350634E+03  0.31460159222E+03  0.80645291443E+02 0.  0.
        -13    1    4    4    0    0  0.25456312792E+02 -0.28577159305E+02  0.16168729443E+03  0.16615492492E+03  0.00000000000E+00 0.  1.
         14    1    4    4    0    0 -0.31741188309E+02  0.27736488179E+02  0.14233621191E+03  0.14844666730E+03  0.00000000000E+00 0. -1.
        -13    1    3    3    0    0 -0.27953899723E+02 -0.92571141359E+01 -0.14610453827E+02  0.32872177185E+02  0.00000000000E+00 0.  1.
         13    1    3    3    0    0  0.52985407104E+02 -0.29713816178E+02  0.39055313139E+02  0.72219676835E+02  0.00000000000E+00 0. -1.
         -2    1    1    2    0  502 -0.18746631864E+02  0.39811601440E+02  0.35779808851E+03  0.36049392777E+03  0.00000000000E+00 0.  1.
<scales pt_clust_5="13000.00000" pt_clust_6="13000.00000" pt_clust_7="13000.00000" pt_clust_8="13000.00000" pt_clust_9="44.00454"></scales>
<clustering>
<clus scale="   44.005">  1  9  2 -1</clus>
<clus scale="   80.645">  5  6 -1 -1</clus>
<clus scale="   89.483">  1  5  2 -1</clus>
<clus scale="   91.112">  7  8 -1 -1</clus>
<clus scale="   44.005">  1  5  2 -1</clus>
</clustering>
</event>
<event>
 9    2  0.1488992E-004  0.9646186E+02  0.7546771E-02  0.1293932E+00
          4   -1    0    0  502    0 -0.00000000000E+00  0.00000000000E+00  0.37972217721E+03  0.37972217721E+03  0.00000000000E+00 0. -1.
         21   -1    0    0  501  502  0.00000000000E+00 -0.00000000000E+00 -0.45819633878E+02  0.45819633878E+02  0.00000000000E+00 0.  1.
         24    2    1    2    0    0 -0.12031859614E+02 -0.33796343170E+02  0.13214096135E+03  0.15851507845E+03  0.79867627807E+02 0.  0.
         23    2    1    2    0    0  0.43020897322E+02  0.26760674481E+01  0.56650444874E+02  0.11541527485E+03  0.90848521297E+02 0.  0.
        -13    1    3    3    0    0 -0.17893371044E+02  0.23509262323E+02  0.52213247059E+02  0.59992343767E+02  0.00000000000E+00 0.  1.
         14    1    3    3    0    0  0.58615114306E+01 -0.57305605493E+02  0.79927714291E+02  0.98522734680E+02  0.00000000000E+00 0. -1.
        -13    1    4    4    0    0 -0.19199839616E+01 -0.32923145088E+02 -0.24569110797E+01  0.33070473734E+02  0.00000000000E+00 0.  1.
         13    1    4    4    0    0  0.44940881283E+02  0.35599212536E+02  0.59107355954E+02  0.82344801121E+02  0.00000000000E+00 0. -1.
          3    1    1    2  501    0 -0.30989037708E+02  0.31120275722E+02  0.14511113711E+03  0.15161145779E+03  0.00000000000E+00 0. -1.
<scales pt_clust_5="13000.00000" pt_clust_6="13000.00000" pt_clust_7="13000.00000" pt_clust_8="13000.00000" pt_clust_9="43.91804"></scales>
<clustering>
<clus scale="   43.918">  2  9  1 -1</clus>
<clus scale="   79.868">  5  6 -1 -1</clus>
<clus scale="   86.199">  1  5  2 -1</clus>
<clus scale="   90.849">  7  8 -1 -1</clus>
<clus scale="   43.918">  2  5  1 -1</clus>
</clustering>
</event>
<event>
 9    2  0.1488992E-004  0.9035881E+02  0.7546771E-02  0.1306805E+00
         21   -1    0    0  501  502  0.00000000000E+00  0.00000000000E+00  0.43130694825E+03  0.43130694825E+03  0.00000000000E+00 0. -1.
          4   -1    0    0  502    0 -0.00000000000E+00 -0.00000000000E+00 -0.58106163551E+02  0.58106163551E+02  0.00000000000E+00 0. -1.
         24    2    1    2    0    0  0.12592417368E+01 -0.59005676587E+01  0.46404668108E+02  0.94271388535E+02  0.81837027596E+02 0.  0.
         23    2    1    2    0    0 -0.50550244344E+02  0.13093629316E+02  0.32933577550E+03  0.34526394323E+03  0.89545335681E+02 0.  0.
        -13    1    3    3    0    0  0.20504735142E+02  0.20022568379E+02  0.53973000320E+02  0.61110000583E+02  0.00000000000E+00 0.  1.
         14    1    3    3    0    0 -0.19245493405E+02 -0.25923136038E+02 -0.75683322123E+01  0.33161387952E+02  0.00000000000E+00 0. -1.
        -13    1    4    4    0    0 -0.13353439928E+01  0.38597580214E+02  0.68817283317E+02  0.78913717598E+02  0.00000000000E+00 0.  1.
         13    1    4    4    0    0 -0.49214900351E+02 -0.25503950897E+02  0.26051849218E+03  0.26635022563E+03  0.00000000000E+00 0. -1.
          3    1    1    2  501    0  0.49291002607E+02 -0.71930616577E+01 -0.25396589018E+01  0.49877780037E+02  0.00000000000E+00 0. -1.
<scales pt_clust_5="13000.00000" pt_clust_6="13000.00000" pt_clust_7="13000.00000" pt_clust_8="13000.00000" pt_clust_9="49.81311"></scales>
<clustering>
<clus scale="   49.813">  1  9  2 -1</clus>
<clus scale="   81.837">  5  6 -1 -1</clus>
<clus scale="   82.726">  2  5  1 -1</clus>
<clus scale="   89.545">  7  8 -1 -1</clus>
<clus scale="   49.813">  1  5  2 -1</clus>
</clustering>
</event>
<event>
 9    2  0.1488992E-004  0.1093400E+03  0.7546771E-02  0.1265034E+00
         21   -1    0    0  501  502  0.00000000000E+00  0.00000000000E+00  0.91402540410E+02  0.91402540410E+02  0.00000000000E+00 0. -1.
          2   -1    0    0  502    0 -0.00000000000E+00 -0.00000000000E+00 -0.82196207174E+03  0.82196207174E+03  0.00000000000E+00 0. -1.
         24    2    1    2    0    0  0.49618735395E+02  0.33683722490E+02 -0.67129001571E+03  0.67895217620E+03  0.82153273259E+02 0.  0.
         23    2    1    2    0    0 -0.69644895363E+02 -0.23000821486E+02 -0.12144653028E+03  0.16822216015E+03  0.90387976024E+02 0.  0.
        -13    1    3    3    0    0  0.79120074886E+01  0.48769137200E+02 -0.21956471073E+03  0.22505486176E+03  0.00000000000E+00 0.  1.
         14    1    3    3    0    0  0.41706727906E+02 -0.15085414710E+02 -0.45172530498E+03  0.45389731443E+03  0.00000000000E+00 0. -1.
        -13    1    4    4    0    0  0.14911088799E+02  0.14068237674E+02 -0.81229473469E+01  0.22050808466E+02  0.00000000000E+00 0. -1.
         13    1    4    4    0    0 -0.84555984162E+02 -0.37069059159E+02 -0.11332358294E+03  0.14617135169E+03  0.00000000000E+00 0.  1.
          1    1    1    2  501    0  0.20026159969E+02 -0.10682901004E+02  0.62177014667E+02  0.66190275795E+02  0.00000000000E+00 0. -1.
<scales pt_clust_5="13000.00000" pt_clust_6="13000.00000" pt_clust_7="13000.00000" pt_clust_8="13000.00000" pt_clust_9="22.69739"></scales>
<clustering>
<clus scale="   22.697">  1  9  2 -1</clus>
<clus scale="   82.153">  5  6 -1 -1</clus>
<clus scale="   90.388">  7  8 -1 -1</clus>
<clus scale="  102.637">  2  5  1 -1</clus>
<clus scale="   22.697">  1  5  2 -1</clus>
</clustering>
</event>
<event>
 9    2  0.1488992E-004  0.1359420E+03  0.7546771E-02  0.1222676E+00
         21   -1    0    0  501  502  0.00000000000E+00  0.00000000000E+00  0.29623088277E+03  0.29623088277E+03  0.00000000000E+00 0. -1.
          2   -1    0    0  502    0 -0.00000000000E+00 -0.00000000000E+00 -0.10663972734E+03  0.10663972734E+03  0.00000000000E+00 0. -1.
         24    2    1    2    0    0  0.69055912562E+02 -0.84122236405E+02 -0.69851657062E+01  0.13471581941E+03  0.79084067555E+02 0.  0.
         23    2    1    2    0    0 -0.48604123683E+02  0.60909458169E+02  0.77345167215E+02  0.14497534108E+03  0.94674451134E+02 0.  0.
        -13    1    3    3    0    0  0.85888271763E+02 -0.77228842872E+02 -0.11197790801E+02  0.11604516326E+03  0.00000000000E+00 0.  1.
         14    1    3    3    0    0 -0.16832359201E+02 -0.68933935328E+01  0.42126250949E+01  0.18670656145E+02  0.00000000000E+00 0. -1.
        -11    1    4    4    0    0 -0.28479756551E+02  0.44983074911E+02  0.98333762879E+02  0.11182174423E+03  0.00000000000E+00 0.  1.
         11    1    4    4    0    0 -0.20124367132E+02  0.15926383258E+02 -0.20988595664E+02  0.33153596850E+02  0.00000000000E+00 0. -1.
          1    1    1    2  501    0 -0.20451788879E+02  0.23212778236E+02  0.11923115392E+03  0.12317944962E+03  0.00000000000E+00 0. -1.
<scales pt_clust_5="13000.00000" pt_clust_6="13000.00000" pt_clust_7="13000.00000" pt_clust_8="13000.00000" pt_clust_9="30.93717"></scales>
<clustering>
<clus scale="   30.937">  1  9  2 -1</clus>
<clus scale="   79.084">  5  6 -1 -1</clus>
<clus scale="   94.674">  7  8 -1 -1</clus>
<clus scale="  125.584">  2  5  1 -1</clus>
<clus scale="   30.937">  1  5  2 -1</clus>
</clustering>
</event>
<event>
 9    2  0.1488992E-004  0.1438639E+03  0.7546771E-02  0.1213943E+00
          2   -1    0    0  502    0 -0.00000000000E+00  0.00000000000E+00  0.41867648115E+03  0.41867648115E+03  0.00000000000E+00 0. -1.
         21   -1    0    0  501  502  0.00000000000E+00 -0.00000000000E+00 -0.11491005698E+03  0.11491005698E+03  0.00000000000E+00 0. -1.
         24    2    1    2    0    0 -0.11272776243E+03 -0.30468812443E+02  0.27847384920E+03  0.30821577376E+03  0.61752583358E+02 0.  0.
         23    2    1    2    0    0  0.59936445348E+02  0.88618782586E+02 -0.65003474286E+01  0.14064100513E+03  0.91060264115E+02 0.  0.
        -13    1    3    3    0    0 -0.72046101800E+02 -0.11413837030E+02  0.97601523026E+02  0.12184815861E+03  0.00000000000E+00 0.  1.
         14    1    3    3    0    0 -0.40681660629E+02 -0.19054975413E+02  0.18087232617E+03  0.18636761514E+03  0.00000000000E+00 0. -1.
        -11    1    4    4    0    0  0.37901874507E+02  0.23801886204E+02  0.38232127916E+02  0.58862360495E+02  0.00000000000E+00 0.  1.
         11    1    4    4    0    0  0.22034570841E+02  0.64816896381E+02 -0.44732475345E+02  0.81778644640E+02  0.00000000000E+00 0. -1.
          1    1    1    2  501    0  0.52791317080E+02 -0.58149970143E+02  0.31792922402E+02  0.84729759244E+02  0.00000000000E+00 0. -1.
<scales pt_clust_5="13000.00000" pt_clust_6="13000.00000" pt_clust_7="13000.00000" pt_clust_8="13000.00000" pt_clust_9="78.53879"></scales>
<clustering>
<clus scale="   61.753">  5  6 -1 -1</clus>
<clus scale="   78.539">  2  9  1 -1</clus>
<clus scale="   91.060">  7  8 -1 -1</clus>
<clus scale="  127.351">  1  5  2 -1</clus>
<clus scale="   78.539">  2  5  1 -1</clus>
</clustering>
</event>
<event>
 9    2  0.1488992E-004  0.1551982E+03  0.7546771E-02  0.1203575E+00
         21   -1    0    0  501  502  0.00000000000E+00  0.00000000000E+00  0.96794927091E+02  0.96794927091E+02  0.00000000000E+00 0. -1.
          2   -1    0    0  502    0 -0.00000000000E+00 -0.00000000000E+00 -0.51774143700E+03  0.51774143700E+03  0.00000000000E+00 0. -1.
         24    2    1    2    0    0 -0.65408235379E+02 -0.11439740066E+03 -0.30535659758E+03  0.33988093948E+03  0.70081372731E+02 0.  0.
         23    2    1    2    0    0  0.16257219264E+02  0.13380964742E+02 -0.33151934264E+01  0.11582924536E+03  0.11385111408E+03 0.  0.
        -11    1    3    3    0    0 -0.61486327933E+02 -0.37779801325E+02 -0.13609221998E+03  0.15404211843E+03  0.00000000000E+00 0.  1.
         12    1    3    3    0    0 -0.39219074453E+01 -0.76617599336E+02 -0.16926437760E+03  0.18583882105E+03  0.00000000000E+00 0. -1.
        -11    1    4    4    0    0 -0.54929213157E+01  0.59792501446E+02  0.14133750398E+02  0.61685316843E+02  0.00000000000E+00 0. -1.
         11    1    4    4    0    0  0.21750140579E+02 -0.46411536704E+02 -0.17448943824E+02  0.54143928515E+02  0.00000000000E+00 0.  1.
          1    1    1    2  501    0  0.49151016115E+02  0.10101643592E+03 -0.11227471890E+03  0.15882617925E+03  0.00000000000E+00 0. -1.
<scales pt_clust_5="13000.00000" pt_clust_6="13000.00000" pt_clust_7="13000.00000" pt_clust_8="13000.00000" pt_clust_9="112.33946"></scales>
<clustering>
<clus scale="   70.081">  5  6 -1 -1</clus>
<clus scale="  112.339">  1  9  2 -1</clus>
<clus scale="  113.851">  7  8 -1 -1</clus>
<clus scale="  126.633">  2  5  1 -1</clus>
<clus scale="  112.339">  1  5  2 -1</clus>
</clustering>
</event>
<event>
 9    2  0.1488992E-004  0.1111370E+03  0.7546771E-02  0.1261882E+00
          2   -1    0    0  502    0 -0.00000000000E+00  0.00000000000E+00  0.70624425483E+03  0.70624425483E+03  0.00000000000E+00 0. -1.
         21   -1    0    0  501  502  0.00000000000E+00 -0.00000000000E+00 -0.84055898778E+02  0.84055898778E+02  0.00000000000E+00 0. -1.
         23    2    1    2    0    0  0.16837282704E+02 -0.66766821278E+02  0.52931499592E+03  0.54136420145E+03  0.90330123413E+02 0.  0.
         24    2    1    2    0    0  0.29948459443E+01  0.56632873938E+02  0.15440650525E+03  0.18349637573E+03  0.81322195791E+02 0.  0.
        -11    1    4    4    0    0 -0.35842549112E+02  0.40377025025E+02  0.63752378258E+02  0.83542553291E+02  0.00000000000E+00 0.  1.
         12    1    4    4    0    0  0.38837395057E+02  0.16255848913E+02  0.90654126996E+02  0.99953822438E+02  0.00000000000E+00 0. -1.
        -13    1    3    3    0    0  0.52089100097E+02 -0.26146133560E+02  0.23097427466E+03  0.23821421075E+03  0.00000000000E+00 0.  1.
         13    1    3    3    0    0 -0.35251817393E+02 -0.40620687717E+02  0.29834072126E+03  0.30314999070E+03  0.00000000000E+00 0. -1.
          1    1    1    2  501    0 -0.19832128649E+02  0.10133947340E+02 -0.61533145118E+02  0.65439576431E+02  0.00000000000E+00 0. -1.
<scales pt_clust_5="13000.00000" pt_clust_6="13000.00000" pt_clust_7="13000.00000" pt_clust_8="13000.00000" pt_clust_9="22.27129"></scales>
<clustering>
<clus scale="   22.271">  2  9  1 -1</clus>
<clus scale="   81.322">  5  6 -1 -1</clus>
<clus scale="   90.330">  7  8 -1 -1</clus>
<clus scale="  103.948">  2  5  1 -1</clus>
<clus scale="   22.271">  2  5  1 -1</clus>
</clustering>
</event>
<event>
 9    2  0.1488992E-004  0.1854624E+03  0.7546771E-02  0.1163383E+00
          2   -1    0    0  502    0 -0.00000000000E+00  0.00000000000E+00  0.20494035485E+03  0.20494035485E+03  0.00000000000E+00 0. -1.
         21   -1    0    0  501  502  0.00000000000E+00 -0.00000000000E+00 -0.19956011424E+03  0.19956011424E+03  0.00000000000E+00 0. -1.
         23    2    1    2    0    0  0.12078782217E+03  0.11420988406E+03  0.27841579656E+02  0.19139000831E+03  0.90671859595E+02 0.  0.
         24    2    1    2    0    0 -0.13378815244E+03 -0.84048438404E+02 -0.22523194602E+02  0.18026650827E+03  0.83817122222E+02 0.  0.
        -13    1    4    4    0    0 -0.36673568336E+02 -0.31490246793E+02  0.31132486246E+02  0.57496242985E+02  0.00000000000E+00 0.  1.
         14    1    4    4    0    0 -0.97114584103E+02 -0.52558191611E+02 -0.53655680847E+02  0.12277026528E+03  0.00000000000E+00 0. -1.
        -11    1    3    3    0    0  0.81794263960E+02  0.15583562257E+02  0.10454760730E+02  0.83919312743E+02  0.00000000000E+00 0.  1.
         11    1    3    3    0    0  0.38993558214E+02  0.98626321799E+02  0.17386818926E+02  0.10747069557E+03  0.00000000000E+00 0. -1.
          1    1    1    2  501    0  0.13000330265E+02 -0.30161445652E+02  0.61855555364E-01  0.32843952517E+02  0.00000000000E+00 0. -1.
<scales pt_clust_5="13000.00000" pt_clust_6="13000.00000" pt_clust_7="13000.00000" pt_clust_8="13000.00000" pt_clust_9="32.84389"></scales>
<clustering>
<clus scale="   32.844">  2  9  1 -1</clus>
<clus scale="   83.817">  5  6 -1 -1</clus>
<clus scale="   90.672">  7  8 -1 -1</clus>
<clus scale="  182.209">  2  5  1 -1</clus>
<clus scale="   32.844">  2  5  1 -1</clus>
</clustering>
</event>
<event>
 9    2  0.1488992E-004  0.3566845E+03  0.7546771E-02  0.1059904E+00
          2   -1    0    0  502    0 -0.00000000000E+00  0.00000000000E+00  0.20775465040E+03  0.20775465040E+03  0.00000000000E+00 0. -1.
         21   -1    0    0  501  502  0.00000000000E+00 -0.00000000000E+00 -0.53225538359E+03  0.53225538359E+03  0.00000000000E+00 0. -1.
         24    2    1    2    0    0 -0.12927353318E+03 -0.11167572704E+03 -0.57508997678E+02  0.19740181234E+03  0.80480285212E+02 0.  0.
         23    2    1    2    0    0 -0.10373324079E+03 -0.89052729500E+02 -0.98204985316E+02  0.19179055246E+03  0.91915303381E+02 0.  0.
        -11    1    3    3    0    0 -0.56087678042E+01 -0.46985909419E+02 -0.27220716953E+02  0.54590304923E+02  0.00000000000E+00 0.  1.
         12    1    3    3    0    0 -0.12366476538E+03 -0.64689817625E+02 -0.30288280725E+02  0.14281150741E+03  0.00000000000E+00 0. -1.
        -11    1    4    4    0    0 -0.76244712224E+02 -0.85565672089E+02 -0.11251369736E+03  0.16060533140E+03  0.00000000000E+00 0. -1.
         11    1    4    4    0    0 -0.27488528563E+02 -0.34870574109E+01  0.14308712041E+02  0.31185221055E+02  0.00000000000E+00 0.  1.
          1    1    1    2  501    0  0.23300677397E+03  0.20072845654E+03 -0.16878675019E+03  0.35081766920E+03  0.00000000000E+00 0. -1.
<scales pt_clust_5="13000.00000" pt_clust_6="13000.00000" pt_clust_7="13000.00000" pt_clust_8="13000.00000" pt_clust_9="307.54523"></scales>
<clustering>
<clus scale="   80.480">  5  6 -1 -1</clus>
<clus scale="   91.915">  7  8 -1 -1</clus>
<clus scale="  100.865">  5  7 -1 -1</clus>
<clus scale="  307.545">  2  9  1 -1</clus>
<clus scale="  307.545">  2  5  1 -1</clus>
</clustering>
</event>
<event>
 9    2  0.1488992E-004  0.1270584E+03  0.7546771E-02  0.1252160E+00
          2   -1    0    0  502    0 -0.00000000000E+00  0.00000000000E+00  0.15682292383E+04  0.15682292383E+04  0.00000000000E+00 0. -1.
         21   -1    0    0  501  502  0.00000000000E+00 -0.00000000000E+00 -0.30356809900E+02  0.30356809900E+02  0.00000000000E+00 0. -1.
         24    2    1    2    0    0  0.19240149765E+02 -0.16354466009E+02  0.10116767890E+04  0.10151820758E+04  0.80418093315E+02 0.  0.
         23    2    1    2    0    0  0.55693877974E+02 -0.57519570300E+02  0.15228071823E+03  0.19496498100E+03  0.91714871539E+02 0.  0.
        -11    1    3    3    0    0  0.23948088563E+02 -0.46373070230E+01  0.85300654244E+02  0.88719880392E+02  0.00000000000E+00 0.  1.
         12    1    3    3    0    0 -0.47079387985E+01 -0.11717158986E+02  0.92637613473E+03  0.92646219540E+03  0.00000000000E+00 0. -1.
        -11    1    4    4    0    0  0.54771046319E+02 -0.78197633526E+02  0.14377646826E+03  0.17258739881E+03  0.00000000000E+00 0.  1.
         11    1    4    4    0    0  0.92283165485E+00  0.20678063226E+02  0.85042499689E+01  0.22377582188E+02  0.00000000000E+00 0. -1.
          1    1    1    2  501    0 -0.74934027739E+02  0.73874036308E+02  0.37391492116E+03  0.38843899138E+03  0.00000000000E+00 0. -1.
<scales pt_clust_5="13000.00000" pt_clust_6="13000.00000" pt_clust_7="13000.00000" pt_clust_8="13000.00000" pt_clust_9="87.93308"></scales>
<clustering>
<clus scale="   80.418">  5  6 -1 -1</clus>
<clus scale="   84.290">  1  5  2 -1</clus>
<clus scale="   87.933">  2  9  1 -1</clus>
<clus scale="   91.715">  7  8 -1 -1</clus>
<clus scale="   87.933">  2  5  1 -1</clus>
</clustering>
</event>
<event>
 9    2  0.1488992E-004  0.1713695E+03  0.7546771E-02  0.1177491E+00
         21   -1    0    0  501  502  0.00000000000E+00  0.00000000000E+00  0.74717053064E+02  0.74717053064E+02  0.00000000000E+00 0. -1.
          2   -1    0    0  502    0 -0.00000000000E+00 -0.00000000000E+00 -0.13705156468E+04  0.13705156468E+04  0.00000000000E+00 0. -1.
         24    2    1    2    0    0  0.50654144196E+01  0.14833638504E+03 -0.12405030565E+04  0.12519520245E+04  0.80664099596E+02 0.  0.
         23    2    1    2    0    0  0.14313146253E+02 -0.12744936881E+03 -0.40450546286E+02  0.16115327557E+03  0.88802723861E+02 0.  0.
        -13    1    3    3    0    0  0.22418640585E+02  0.10768000200E+02 -0.99787662532E+02  0.10284027843E+03  0.00000000000E+00 0.  1.
         14    1    3    3    0    0 -0.17353226166E+02  0.13756838484E+03 -0.11407153939E+04  0.11491117461E+04  0.00000000000E+00 0. -1.
        -13    1    4    4    0    0  0.41707769513E+02 -0.43644928065E+02  0.74271900868E+01  0.60824180522E+02  0.00000000000E+00 0. -1.
         13    1    4    4    0    0 -0.27394623261E+02 -0.83804440748E+02 -0.47877736373E+02  0.10032909505E+03  0.00000000000E+00 0.  1.
          1    1    1    2  501    0 -0.19378560672E+02 -0.20887016229E+02 -0.14844990971E+02  0.32127399795E+02  0.00000000000E+00 0. -1.
<scales pt_clust_5="13000.00000" pt_clust_6="13000.00000" pt_clust_7="13000.00000" pt_clust_8="13000.00000" pt_clust_9="28.49204"></scales>
<clustering>
<clus scale="   28.492">  1  9  2 -1</clus>
<clus scale="   80.664">  5  6 -1 -1</clus>
<clus scale="   88.803">  7  8 -1 -1</clus>
<clus scale="  167.297">  2  5  1 -1</clus>
<clus scale="   28.492">  1  5  2 -1</clus>
</clustering>
</event>
<event>
 9    2  0.1488992E-004  0.9215807E+02  0.7546771E-02  0.1308570E+00
          2   -1    0    0  502    0 -0.00000000000E+00  0.00000000000E+00  0.46692245985E+03  0.46692245985E+03  0.00000000000E+00 0. -1.
         21   -1    0    0  501  502  0.00000000000E+00 -0.00000000000E+00 -0.13329381045E+03  0.13329381045E+03  0.00000000000E+00 0. -1.
         24    2    1    2    0    0  0.71039226798E+01 -0.92234462106E+01  0.40430750489E+03  0.41131437081E+03  0.74695484761E+02 0.  0.
         23    2    1    2    0    0 -0.26161268542E+02 -0.20130537578E+02  0.13064384580E+02  0.98139742983E+02  0.91493609031E+02 0.  0.
        -13    1    3    3    0    0  0.31427375548E+02 -0.29453487541E+02  0.20129394683E+03  0.20585053047E+03  0.00000000000E+00 0.  1.
         14    1    3    3    0    0 -0.24323452868E+02  0.20230041330E+02  0.20301355806E+03  0.20546384034E+03  0.00000000000E+00 0. -1.
        -11    1    4    4    0    0 -0.38213351105E+02 -0.77982408871E-01  0.44690513519E+02  0.58800580631E+02  0.00000000000E+00 0.  1.
         11    1    4    4    0    0  0.12052082563E+02 -0.20052555169E+02 -0.31626128939E+02  0.39339162352E+02  0.00000000000E+00 0. -1.
          1    1    1    2  501    0  0.19057345862E+02  0.29353983788E+02 -0.83743240072E+02  0.90762156504E+02  0.00000000000E+00 0. -1.
<scales pt_clust_5="13000.00000" pt_clust_6="13000.00000" pt_clust_7="13000.00000" pt_clust_8="13000.00000" pt_clust_9="34.99770"></scales>
<clustering>
<clus scale="   34.998">  2  9  1 -1</clus>
<clus scale="   74.695">  5  6 -1 -1</clus>
<clus scale="   75.508">  1  5  2 -1</clus>
<clus scale="   91.494">  7  8 -1 -1</clus>
<clus scale="   34.998">  2  5  1 -1</clus>
</clustering>
</event>
<event>
 9    2  0.1488992E-004  0.1586494E+03  0.7546771E-02  0.1214660E+00
         21   -1    0    0  501  502  0.00000000000E+00  0.00000000000E+00  0.11746587105E+03  0.11746587105E+03  0.00000000000E+00 0. -1.
          2   -1    0    0  502    0 -0.00000000000E+00 -0.00000000000E+00 -0.65675771984E+03  0.65675771984E+03  0.00000000000E+00 0. -1.
         24    2    1    2    0    0  0.62433934544E+02  0.33774355288E+01 -0.44295436629E+03  0.45272062362E+03  0.69555655254E+02 0.  0.
         23    2    1    2    0    0 -0.98546994514E+01  0.12672541015E+03 -0.11496669978E+02  0.15752342621E+03  0.92330989943E+02 0.  0.
        -13    1    3    3    0    0  0.67086799946E+02 -0.19546413739E+02 -0.34588267031E+03  0.35287040487E+03  0.00000000000E+00 0.  1.
         14    1    3    3    0    0 -0.46528654019E+01  0.22923849268E+02 -0.97071695983E+02  0.99850218742E+02  0.00000000000E+00 0. -1.
        -11    1    4    4    0    0  0.15318390174E+02  0.10601532045E+03 -0.39881435929E+02  0.11429973832E+03  0.00000000000E+00 0. -1.
         11    1    4    4    0    0 -0.25173089625E+02  0.20710089705E+02  0.28384765951E+02  0.43223687891E+02  0.00000000000E+00 0.  1.
          1    1    1    2  501    0 -0.52579235093E+02 -0.13010284568E+03 -0.84840812525E+02  0.16397954106E+03  0.00000000000E+00 0. -1.
<scales pt_clust_5="13000.00000" pt_clust_6="13000.00000" pt_clust_7="13000.00000" pt_clust_8="13000.00000" pt_clust_9="129.01414"></scales>
<clustering>
<clus scale="   69.556">  5  6 -1 -1</clus>
<clus scale="   92.331">  7  8 -1 -1</clus>
<clus scale="   93.527">  2  5  1 -1</clus>
<clus scale="  129.014">  1  9  2 -1</clus>
<clus scale="  129.014">  1  5  2 -1</clus>
</clustering>
</event>
<event>
 9    2  0.1488992E-004  0.9428567E+02  0.7546771E-02  0.1299653E+00
         21   -1    0    0  501  502  0.00000000000E+00  0.00000000000E+00  0.39109628995E+02  0.39109628995E+02  0.00000000000E+00 0.  1.
          2   -1    0    0  502    0 -0.00000000000E+00 -0.00000000000E+00 -0.63057905938E+03  0.63057905938E+03  0.00000000000E+00 0. -1.
         24    2    1    2    0    0  0.96731009834E+01 -0.16071389757E+02 -0.40668322773E+03  0.41472386346E+03  0.79074501259E+02 0.  0.
         23    2    1    2    0    0 -0.54209167701E+02  0.47577323818E+02 -0.95086429017E+02  0.14997847100E+03  0.90828834490E+02 0.  0.
        -13    1    3    3    0    0 -0.25993787104E+02 -0.32074633022E+02 -0.17815311916E+03  0.18287425439E+03  0.00000000000E+00 0.  1.
         14    1    3    3    0    0  0.35666888087E+02  0.16003243264E+02 -0.22853010858E+03  0.23184960907E+03  0.00000000000E+00 0. -1.
        -11    1    4    4    0    0 -0.63029564445E+02  0.22526978446E+02 -0.19281659623E+02  0.69656106336E+02  0.00000000000E+00 0.  1.
         11    1    4    4    0    0  0.88203967434E+01  0.25050345371E+02 -0.75804769393E+02  0.80322364661E+02  0.00000000000E+00 0. -1.
          1    1    1    2  501    0  0.44536066718E+02 -0.31505934060E+02 -0.89699773636E+02  0.10498635392E+03  0.00000000000E+00 0. -1.
<scales pt_clust_5="13000.00000" pt_clust_6="13000.00000" pt_clust_7="13000.00000" pt_clust_8="13000.00000" pt_clust_9="54.55351"></scales>
<clustering>
<clus scale="   54.554">  1  9  2 -1</clus>
<clus scale="   79.075">  5  6 -1 -1</clus>
<clus scale="   83.022">  2  5  1 -1</clus>
<clus scale="   90.829">  7  8 -1 -1</clus>
<clus scale="   54.554">  1  5  2 -1</clus>
</clustering>
</event>
<event>
 9    2  0.1488992E-004  0.1337532E+03  0.7546771E-02  0.1226448E+00
         21   -1    0    0  501  502  0.00000000000E+00  0.00000000000E+00  0.10311913650E+03  0.10311913650E+03  0.00000000000E+00 0. -1.
          2   -1    0    0  502    0 -0.00000000000E+00 -0.00000000000E+00 -0.35190740649E+03  0.35190740649E+03  0.00000000000E+00 0. -1.
         24    2    1    2    0    0 -0.15033113246E+02  0.11255411576E+03 -0.92776956879E+02  0.16698225018E+03  0.79881691768E+02 0.  0.
         23    2    1    2    0    0  0.87472787575E+02 -0.38706402373E+02 -0.68272568805E+02  0.15240109010E+03  0.97032337200E+02 0.  0.
        -13    1    3    3    0    0  0.28561078865E+02  0.77888187920E+02 -0.51325484549E+02  0.97553115828E+02  0.00000000000E+00 0.  1.
         14    1    3    3    0    0 -0.43594192111E+02  0.34665927836E+02 -0.41451472329E+02  0.69429134352E+02  0.00000000000E+00 0. -1.
        -11    1    4    4    0    0  0.52152455359E+02 -0.47739972034E+02  0.46674416894E+01  0.70857381703E+02  0.00000000000E+00 0.  1.
         11    1    4    4    0    0  0.35320332216E+02  0.90335696612E+01 -0.72940010495E+02  0.81543708400E+02  0.00000000000E+00 0. -1.
          1    1    1    2  501    0 -0.72439674329E+02 -0.73847713383E+02 -0.87738744300E+02  0.13564320271E+03  0.00000000000E+00 0. -1.
<scales pt_clust_5="13000.00000" pt_clust_6="13000.00000" pt_clust_7="13000.00000" pt_clust_8="13000.00000" pt_clust_9="103.44565"></scales>
<clustering>
<clus scale="   79.882">  5  6 -1 -1</clus>
<clus scale="   97.032">  7  8 -1 -1</clus>
<clus scale="  103.446">  1  9  2 -1</clus>
<clus scale="  121.884">  2  5  1 -1</clus>
<clus scale="  103.446">  1  5  2 -1</clus>
</clustering>
</event>
<event>
 9    2  0.1488992E-004  0.3101438E+03  0.7546771E-02  0.1080510E+00
         21   -1    0    0  501  502  0.00000000000E+00  0.00000000000E+00  0.74957551148E+03  0.74957551148E+03  0.00000000000E+00 0.  1.
          2   -1    0    0  502    0 -0.00000000000E+00 -0.00000000000E+00 -0.17288409496E+03  0.17288409496E+03  0.00000000000E+00 0. -1.
         23    2    1    2    0    0 -0.27188261751E+03  0.60099909916E+02  0.16646077933E+03  0.33595362696E+03  0.87312608106E+02 0.  0.
         24    2    1    2    0    0  0.30307885478E+03 -0.12919208305E+03  0.30010545481E+03  0.45281046946E+03  0.80166393907E+02 0.  0.
        -11    1    4    4    0    0  0.10506987740E+02 -0.22513611643E+02  0.87165234002E+01  0.26329399552E+02  0.00000000000E+00 0.  1.
         12    1    4    4    0    0  0.29257186704E+03 -0.10667847140E+03  0.29138893141E+03  0.42648106991E+03  0.00000000000E+00 0. -1.
        -13    1    3    3    0    0 -0.15884376957E+03  0.34597604103E+02  0.14554550571E+03  0.21820135557E+03  0.00000000000E+00 0.  1.
         13    1    3    3    0    0 -0.11303884794E+03  0.25502305813E+02  0.20915273618E+02  0.11775227139E+03  0.00000000000E+00 0. -1.
          1    1    1    2  501    0 -0.31196237266E+02  0.69092173132E+02  0.11012518237E+03  0.13369551002E+03  0.00000000000E+00 0. -1.
<scales pt_clust_5="13000.00000" pt_clust_6="13000.00000" pt_clust_7="13000.00000" pt_clust_8="13000.00000" pt_clust_9="75.80853"></scales>
<clustering>
<clus scale="   75.809">  1  9  2 -1</clus>
<clus scale="   80.166">  5  6 -1 -1</clus>
<clus scale="   87.313">  7  8 -1 -1</clus>
<clus scale="  308.208">  1  5  2 -1</clus>
<clus scale="   75.809">  1  5  2 -1</clus>
</clustering>
</event>
<event>
 9    2  0.1488992E-004  0.1378143E+03  0.7546771E-02  0.1219378E+00
         21   -1    0    0  501  502  0.00000000000E+00  0.00000000000E+00  0.90389796142E+02  0.90389796142E+02  0.00000000000E+00 0. -1.
          4   -1    0    0  502    0 -0.00000000000E+00 -0.00000000000E+00 -0.71249709588E+03  0.71249709588E+03  0.00000000000E+00 0. -1.
         23    2    1    2    0    0 -0.69539458028E+02  0.93881238576E+02 -0.41148353342E+03  0.43733419774E+03  0.91066344229E+02 0.  0.
         24    2    1    2    0    0  0.65088130090E+02 -0.63705207868E+02 -0.27195910356E+03  0.29705137500E+03  0.77349513202E+02 0.  0.
        -11    1    4    4    0    0 -0.11602206942E+02 -0.16398023884E+02 -0.15956811930E+02  0.25653971236E+02  0.00000000000E+00 0.  1.
         12    1    4    4    0    0  0.76690337031E+02 -0.47307183984E+02 -0.25600229163E+03  0.27139740376E+03  0.00000000000E+00 0. -1.
        -11    1    3    3    0    0 -0.91760523091E+02  0.71303505926E+02 -0.33325497154E+03  0.35293492263E+03  0.00000000000E+00 0.  1.
         11    1    3    3    0    0  0.22221065063E+02  0.22577732650E+02 -0.78228561883E+02  0.84399275106E+02  0.00000000000E+00 0. -1.
          3    1    1    2  501    0  0.44513279385E+01 -0.30176030707E+02  0.61335337242E+02  0.68501319289E+02  0.00000000000E+00 0. -1.
<scales pt_clust_5="13000.00000" pt_clust_6="13000.00000" pt_clust_7="13000.00000" pt_clust_8="13000.00000" pt_clust_9="30.50258"></scales>
<clustering>
<clus scale="   30.503">  1  9  2 -1</clus>
<clus scale="   77.350">  5  6 -1 -1</clus>
<clus scale="   91.066">  7  8 -1 -1</clus>
<clus scale="  129.161">  1  5  2 -1</clus>
<clus scale="   30.503">  1  5  2 -1</clus>
</clustering>
</event>
<event>
 9    2  0.1488992E-004  0.1441471E+03  0.7546771E-02  0.1225464E+00
          2   -1    0    0  502    0 -0.00000000000E+00  0.00000000000E+00  0.12952483005E+04  0.12952483005E+04  0.00000000000E+00 0. -1.
         21   -1    0    0  501  502  0.00000000000E+00 -0.00000000000E+00 -0.31524632692E+02  0.31524632692E+02  0.00000000000E+00 0. -1.
         24    2    1    2    0    0  0.57025051688E+02  0.13526872155E+02  0.13446034609E+03  0.16720350798E+03  0.80265781133E+02 0.  0.
         23    2    1    2    0    0 -0.10795788691E+03  0.72968727432E+02  0.58893878106E+03  0.61000027425E+03  0.90951119928E+02 0.  0.
        -13    1    3    3    0    0  0.70474677144E+02  0.20913790030E+02  0.13277423103E+03  0.15176647573E+03  0.00000000000E+00 0.  1.
         14    1    3    3    0    0 -0.13449625456E+02 -0.73869178747E+01  0.16861150601E+01  0.15437032247E+02  0.00000000000E+00 0. -1.
        -11    1    4    4    0    0 -0.48741308275E+00  0.48726821285E+02  0.18328174365E+03  0.18964898692E+03  0.00000000000E+00 0.  1.
         11    1    4    4    0    0 -0.10747047383E+03  0.24241906147E+02  0.40565703741E+03  0.42035128733E+03  0.00000000000E+00 0. -1.
          1    1    1    2  501    0  0.50932835222E+02 -0.86495599587E+02  0.54032454069E+03  0.54956915100E+03  0.00000000000E+00 0. -1.
<scales pt_clust_5="13000.00000" pt_clust_6="13000.00000" pt_clust_7="13000.00000" pt_clust_8="13000.00000" pt_clust_9="111.83153"></scales>
<clustering>
<clus scale="   80.266">  5  6 -1 -1</clus>
<clus scale="   90.951">  7  8 -1 -1</clus>
<clus scale="   99.385">  1  5  2 -1</clus>
<clus scale="  111.832">  2  9  1 -1</clus>
<clus scale="  111.832">  2  5  1 -1</clus>
</clustering>
</event>
<event>
 9    2  0.1488992E-004  0.9475956E+02  0.7546771E-02  0.1297761E+00
          4   -1    0    0  502    0 -0.00000000000E+00  0.00000000000E+00  0.39374944045E+02  0.39374944045E+02  0.00000000000E+00 0. -1.
         21   -1    0    0  501  502  0.00000000000E+00 -0.00000000000E+00 -0.44978985604E+03  0.44978985604E+03  0.00000000000E+00 0.  1.
         24    2    1    2    0    0  0.32892619709E+02  0.15622257965E+02 -0.48491698422E+02  0.10036194196E+03  0.79969339145E+02 0.  0.
         23    2    1    2    0    0 -0.73606709542E+01  0.24781944185E+02 -0.24608440999E+03  0.26349121312E+03  0.90563559534E+02 0.  0.
        -11    1    3    3    0    0  0.35628566934E+02  0.43805680381E+02 -0.19247905694E+02  0.59655798452E+02  0.00000000000E+00 0.  1.
         12    1    3    3    0    0 -0.27359472250E+01 -0.28183422416E+02 -0.29243792728E+02  0.40706143509E+02  0.00000000000E+00 0. -1.
        -11    1    4    4    0    0 -0.22472587343E+02  0.51459738103E+02 -0.20291663132E+03  0.21054282485E+03  0.00000000000E+00 0.  1.
         11    1    4    4    0    0  0.15111916389E+02 -0.26677793917E+02 -0.43167778664E+02  0.52948388266E+02  0.00000000000E+00 0. -1.
          3    1    1    2  501    0 -0.25531948755E+02 -0.40404202151E+02 -0.11583880358E+03  0.12531164501E+03  0.00000000000E+00 0. -1.
<scales pt_clust_5="13000.00000" pt_clust_6="13000.00000" pt_clust_7="13000.00000" pt_clust_8="13000.00000" pt_clust_9="47.79519"></scales>
<clustering>
<clus scale="   47.795">  2  9  1 -1</clus>
<clus scale="   79.969">  5  6 -1 -1</clus>
<clus scale="   84.692">  1  5  2 -1</clus>
<clus scale="   90.564">  7  8 -1 -1</clus>
<clus scale="   47.795">  2  5  1 -1</clus>
</clustering>
</event>
<event>
 9    2  0.1488992E-004  0.1483319E+03  0.7546771E-02  0.1219619E+00
          2   -1    0    0  502    0 -0.00000000000E+00  0.00000000000E+00  0.94755387137E+03  0.94755387137E+03  0.00000000000E+00 0. -1.
         21   -1    0    0  501  502  0.00000000000E+00 -0.00000000000E+00 -0.94562385097E+02  0.94562385097E+02  0.00000000000E+00 0. -1.
         24    2    1    2    0    0 -0.65294295158E+02 -0.10022232621E+01  0.67725092118E+03  0.68504827664E+03  0.79736952883E+02 0.  0.
         23    2    1    2    0    0  0.41674544966E+02 -0.11581067731E+03  0.18181766602E+03  0.23773618400E+03  0.91169889930E+02 0.  0.
        -13    1    3    3    0    0 -0.75699426433E+02  0.13295849024E+02  0.40530118597E+03  0.41252422245E+03  0.00000000000E+00 0.  1.
         14    1    3    3    0    0  0.10405131274E+02 -0.14298072286E+02  0.27194973521E+03  0.27252405419E+03  0.00000000000E+00 0. -1.
        -13    1    4    4    0    0  0.63226540323E+02 -0.49634723612E+02  0.73100455420E+02  0.10865025436E+03  0.00000000000E+00 0.  1.
         13    1    4    4    0    0 -0.21551995357E+02 -0.66175953701E+02  0.10871721060E+03  0.12908592964E+03  0.00000000000E+00 0. -1.
          1    1    1    2  501    0  0.23619750193E+02  0.11681290057E+03 -0.60771009244E+01  0.11933179583E+03  0.00000000000E+00 0. -1.
<scales pt_clust_5="13000.00000" pt_clust_6="13000.00000" pt_clust_7="13000.00000" pt_clust_8="13000.00000" pt_clust_9="117.00602"></scales>
<clustering>
<clus scale="   79.737">  5  6 -1 -1</clus>
<clus scale="   91.170">  7  8 -1 -1</clus>
<clus scale="  103.065">  1  5  2 -1</clus>
<clus scale="  117.006">  2  9  1 -1</clus>
<clus scale="  117.006">  2  5  1 -1</clus>
</clustering>
</event>
<event>
 9    2  0.1488992E-004  0.1541094E+03  0.7546771E-02  0.1204018E+00
          2   -1    0    0  502    0 -0.00000000000E+00  0.00000000000E+00  0.26178091599E+03  0.26178091599E+03  0.00000000000E+00 0. -1.
         21   -1    0    0  501  502  0.00000000000E+00 -0.00000000000E+00 -0.18108315209E+03  0.18108315209E+03  0.00000000000E+00 0. -1.
         23    2    1    2    0    0  0.13318741282E+02  0.89038325490E+02 -0.26549663400E+02  0.13082772033E+03  0.91136137203E+02 0.  0.
         24    2    1    2    0    0  0.11629607571E+03 -0.43570474807E+02  0.47187492825E+02  0.16212129861E+03  0.92916588845E+02 0.  0.
        -13    1    4    4    0    0  0.36612593616E+01  0.22677888984E+02 -0.61344648872E+00  0.22979725531E+02  0.00000000000E+00 0.  1.
         14    1    4    4    0    0  0.11263481635E+03 -0.66248363791E+02  0.47800939313E+02  0.13914157308E+03  0.00000000000E+00 0. -1.
        -11    1    3    3    0    0  0.75757835866E+01  0.66787092653E+02  0.27092726122E+02  0.72470159726E+02  0.00000000000E+00 0. -1.
         11    1    3    3    0    0  0.57429576956E+01  0.22251232837E+02 -0.53642389522E+02  0.58357560603E+02  0.00000000000E+00 0.  1.
          1    1    1    2  501    0 -0.12961481699E+03 -0.45467850683E+02  0.60059934482E+02  0.14991504915E+03  0.00000000000E+00 0. -1.
<scales pt_clust_5="13000.00000" pt_clust_6="13000.00000" pt_clust_7="13000.00000" pt_clust_8="13000.00000" pt_clust_9="122.94806"></scales>
<clustering>
<clus scale="   91.136">  7  8 -1 -1</clus>
<clus scale="   92.917">  5  6 -1 -1</clus>
<clus scale="  128.106">  1  7  2 -1</clus>
<clus scale="  122.948">  2  9  1 -1</clus>
<clus scale="  122.948">  2  5  1 -1</clus>
</clustering>
</event>
<event>
 9    2  0.1488992E-004  0.1926773E+03  0.7546771E-02  0.1157128E+00
         21   -1    0    0  501  502  0.00000000000E+00  0.00000000000E+00  0.19623377260E+03  0.19623377260E+03  0.00000000000E+00 0. -1.
          2   -1    0    0  502    0 -0.00000000000E+00 -0.00000000000E+00 -0.45259748559E+03  0.45259748559E+03  0.00000000000E+00 0. -1.
         24    2    1    2    0    0 -0.64074489488E+02  0.13045991867E+03 -0.14233403450E+03  0.21870417588E+03  0.80294511564E+02 0.  0.
         23    2    1    2    0    0  0.85785970564E+01 -0.25738958362E+03 -0.50404169984E+02  0.27768319343E+03  0.90798598436E+02 0.  0.
        -11    1    3    3    0    0 -0.64977458630E+02  0.45010465020E+02 -0.53544378964E+02  0.95472575172E+02  0.00000000000E+00 0.  1.
         12    1    3    3    0    0  0.90296914284E+00  0.85449453654E+02 -0.88789655541E+02  0.12323160071E+03  0.00000000000E+00 0. -1.
        -13    1    4    4    0    0  0.26395629490E+02 -0.11013594460E+03 -0.61618717083E+02  0.12893223741E+03  0.00000000000E+00 0.  1.
         13    1    4    4    0    0 -0.17817032433E+02 -0.14725363902E+03  0.11214547100E+02  0.14875095602E+03  0.00000000000E+00 0. -1.
          1    1    1    2  501    0  0.55495892431E+02  0.12692966495E+03 -0.63625508501E+02  0.15244388887E+03  0.00000000000E+00 0. -1.
<scales pt_clust_5="13000.00000" pt_clust_6="13000.00000" pt_clust_7="13000.00000" pt_clust_8="13000.00000" pt_clust_9="138.53142"></scales>
<clustering>
<clus scale="   80.295">  5  6 -1 -1</clus>
<clus scale="   90.799">  7  8 -1 -1</clus>
<clus scale="  138.531">  1  9  2 -1</clus>
<clus scale="  187.956">  2  5  1 -1</clus>
<clus scale="  138.531">  1  5  2 -1</clus>
</clustering>
</event>
<event>
 9    2  0.1488992E-004  0.1299046E+03  0.7546771E-02  0.1230393E+00
         21   -1    0    0  501  502  0.00000000000E+00  0.00000000000E+00  0.19480232075E+03  0.19480232075E+03  0.00000000000E+00 0.  1.
          2   -1    0    0  502    0 -0.00000000000E+00 -0.00000000000E+00 -0.40813557149E+03  0.40813557149E+03  0.00000000000E+00 0. -1.
         23    2    1    2    0    0 -0.76694720253E+01  0.90608145975E+02 -0.34574501165E+03  0.36905899231E+03  0.91631161738E+02 0.  0.
         24    2    1    2    0    0 -0.16359384685E+02 -0.10213200341E+03  0.39405081926E+02  0.13712959719E+03  0.80951777960E+02 0.  0.
        -11    1    4    4    0    0 -0.42884630640E+01 -0.11411906284E+03  0.32177988241E+02  0.11864642576E+03  0.00000000000E+00 0.  1.
         12    1    4    4    0    0 -0.12070921621E+02  0.11987059433E+02  0.72270936845E+01  0.18483171420E+02  0.00000000000E+00 0. -1.
        -11    1    3    3    0    0  0.33500906596E+02  0.12961490469E+02 -0.58292853198E+02  0.68471656266E+02  0.00000000000E+00 0.  1.
         11    1    3    3    0    0 -0.41170378622E+02  0.77646655507E+02 -0.28745215846E+03  0.30058733604E+03  0.00000000000E+00 0. -1.
          1    1    1    2  501    0  0.24028856710E+02  0.11523857434E+02  0.93006678989E+02  0.96749302745E+02  0.00000000000E+00 0. -1.
<scales pt_clust_5="13000.00000" pt_clust_6="13000.00000" pt_clust_7="13000.00000" pt_clust_8="13000.00000" pt_clust_9="26.64930"></scales>
<clustering>
<clus scale="   26.649">  1  9  2 -1</clus>
<clus scale="   80.952">  5  6 -1 -1</clus>
<clus scale="   91.631">  7  8 -1 -1</clus>
<clus scale="  122.606">  1  5  2 -1</clus>
<clus scale="   26.649">  1  5  2 -1</clus>
</clustering>
</event>
<event>
 9    2  0.1488992E-004  0.1717867E+03  0.7546771E-02  0.1212681E+00
         21   -1    0    0  501  502  0.00000000000E+00  0.00000000000E+00  0.42318644282E+02  0.42318644282E+02  0.00000000000E+00 0.  1.
          2   -1    0    0  502    0 -0.00000000000E+00 -0.00000000000E+00 -0.10733380986E+04  0.10733380986E+04  0.00000000000E+00 0. -1.
         24    2    1    2    0    0  0.12701601417E+02  0.33829676493E+00 -0.34696233290E+03  0.35536666047E+03  0.75770428283E+02 0.  0.
         23    2    1    2    0    0 -0.90545734020E+02  0.11814361632E+03 -0.25852830873E+03  0.31176757111E+03  0.90585252426E+02 0.  0.
        -11    1    3    3    0    0  0.38192579692E+02  0.13647159845E+02 -0.12179025155E+03  0.12836581901E+03  0.00000000000E+00 0.  1.
         12    1    3    3    0    0 -0.25490978276E+02 -0.13308863080E+02 -0.22517208134E+03  0.22700084147E+03  0.00000000000E+00 0. -1.
        -13    1    4    4    0    0  0.33979678259E+01  0.41009983813E+02 -0.12307102312E+03  0.12976841560E+03  0.00000000000E+00 0. -1.
         13    1    4    4    0    0 -0.93943701846E+02  0.77133632506E+02 -0.13545728561E+03  0.18199915551E+03  0.00000000000E+00 0.  1.
          1    1    1    2  501    0  0.77844132603E+02 -0.11848191308E+03 -0.42552881267E+03  0.44852251128E+03  0.00000000000E+00 0. -1.
<scales pt_clust_5="13000.00000" pt_clust_6="13000.00000" pt_clust_7="13000.00000" pt_clust_8="13000.00000" pt_clust_9="145.96229"></scales>
<clustering>
<clus scale="   75.770">  5  6 -1 -1</clus>
<clus scale="   76.828">  2  5  1 -1</clus>
<clus scale="   90.585">  7  8 -1 -1</clus>
<clus scale="  145.962">  1  9  2 -1</clus>
<clus scale="  145.962">  1  5  2 -1</clus>
</clustering>
</event>
<event>
 9    2  0.1488992E-004  0.1128977E+03  0.7546771E-02  0.1259437E+00
          2   -1    0    0  502    0 -0.00000000000E+00  0.00000000000E+00  0.84752379386E+03  0.84752379386E+03  0.00000000000E+00 0. -1.
         21   -1    0    0  501  502  0.00000000000E+00 -0.00000000000E+00 -0.23025859332E+02  0.23025859332E+02  0.00000000000E+00 0. -1.
         23    2    1    2    0    0  0.56216216056E+02  0.64593943733E+02  0.54654520665E+03  0.56069023900E+03  0.91264673816E+02 0.  0.
         24    2    1    2    0    0 -0.31681616687E+02 -0.26510582404E+02  0.20601133807E+03  0.22484263618E+03  0.80043761866E+02 0.  0.
        -13    1    4    4    0    0 -0.25122870882E+02  0.21883289413E+02  0.13223057190E+03  0.13636334237E+03  0.00000000000E+00 0.  1.
         14    1    4    4    0    0 -0.65587458046E+01 -0.48393871817E+02  0.73780766168E+02  0.88479293806E+02  0.00000000000E+00 0. -1.
        -13    1    3    3    0    0 -0.17056035839E+02  0.25941351185E+02  0.64553777009E+02  0.71631363145E+02  0.00000000000E+00 0.  1.
         13    1    3    3    0    0  0.73272251895E+02  0.38652592547E+02  0.48199142964E+03  0.48905887586E+03  0.00000000000E+00 0. -1.
          1    1    1    2  501    0 -0.24534599369E+02 -0.38083361329E+02  0.71941389808E+02  0.85016778014E+02  0.00000000000E+00 0. -1.
<scales pt_clust_5="13000.00000" pt_clust_6="13000.00000" pt_clust_7="13000.00000" pt_clust_8="13000.00000" pt_clust_9="45.30220"></scales>
<clustering>
<clus scale="   45.302">  2  9  1 -1</clus>
<clus scale="   80.044">  5  6 -1 -1</clus>
<clus scale="   91.265">  7  8 -1 -1</clus>
<clus scale="  104.037">  2  5  1 -1</clus>
<clus scale="   45.302">  2  5  1 -1</clus>
</clustering>
</event>
<event>
 9    2  0.1488992E-004  0.9742655E+02  0.7546771E-02  0.1292082E+00
         21   -1    0    0  501  502  0.00000000000E+00  0.00000000000E+00  0.43365829285E+02  0.43365829285E+02  0.00000000000E+00 0. -1.
          2   -1    0    0  502    0 -0.00000000000E+00 -0.00000000000E+00 -0.46798690149E+03  0.46798690149E+03  0.00000000000E+00 0. -1.
         24    2    1    2    0    0  0.23772483761E+02  0.20435195533E+02 -0.29319426675E+03  0.30567917536E+03  0.80586301523E+02 0.  0.
         23    2    1    2    0    0  0.50956753864E+01 -0.50416114026E+02 -0.55019686368E+02  0.11866623427E+03  0.92123606127E+02 0.  0.
        -13    1    3    3    0    0 -0.94052936245E+01 -0.26340849725E+02 -0.12083574224E+03  0.12403054670E+03  0.00000000000E+00 0.  1.
         14    1    3    3    0    0  0.33177777386E+02  0.46776045258E+02 -0.17235852451E+03  0.18164862866E+03  0.00000000000E+00 0. -1.
        -11    1    4    4    0    0 -0.32892264690E+02 -0.24294034032E+02  0.68990433174E+01  0.41469241188E+02  0.00000000000E+00 0. -1.
         11    1    4    4    0    0  0.37987940077E+02 -0.26122079994E+02 -0.61918729685E+02  0.77196993078E+02  0.00000000000E+00 0.  1.
          1    1    1    2  501    0 -0.28868159148E+02  0.29980918492E+02 -0.76407119085E+02  0.87007321146E+02  0.00000000000E+00 0. -1.
<scales pt_clust_5="13000.00000" pt_clust_6="13000.00000" pt_clust_7="13000.00000" pt_clust_8="13000.00000" pt_clust_9="41.62004"></scales>
<clustering>
<clus scale="   41.620">  1  9  2 -1</clus>
<clus scale="   80.586">  5  6 -1 -1</clus>
<clus scale="   86.599">  2  5  1 -1</clus>
<clus scale="   92.124">  7  8 -1 -1</clus>
<clus scale="   41.620">  1  5  2 -1</clus>
</clustering>
</event>
<event>
 9    2  0.1488992E-004  0.1193204E+03  0.7546771E-02  0.1248546E+00
         21   -1    0    0  501  502  0.00000000000E+00  0.00000000000E+00  0.63194604687E+02  0.63194604687E+02  0.00000000000E+00 0.  1.
         -1   -1    0    0    0  501 -0.00000000000E+00 -0.00000000000E+00 -0.35373280413E+03  0.35373280413E+03  0.00000000000E+00 0.  1.
         23    2    1    2    0    0  0.62736614188E+02 -0.25559509713E+00 -0.14141967666E+03  0.18006781573E+03  0.92135472143E+02 0.  0.
         24    2    1    2    0    0 -0.92906535794E+02  0.44574709913E+02 -0.96174881132E+02  0.16151082204E+03  0.78851814925E+02 0.  0.
        -13    1    4    4    0    0 -0.77014275549E+02  0.66949548290E+02 -0.71470854814E+02  0.12458540742E+03  0.00000000000E+00 0.  1.
         14    1    4    4    0    0 -0.15892260245E+02 -0.22374838377E+02 -0.24704026318E+02  0.36925414614E+02  0.00000000000E+00 0. -1.
        -11    1    3    3    0    0  0.55554283282E+02  0.23277154715E+02 -0.32577244923E+02  0.68479056721E+02  0.00000000000E+00 0.  1.
         11    1    3    3    0    0  0.71823309059E+01 -0.23532749813E+02 -0.10884243174E+03  0.11158875901E+03  0.00000000000E+00 0. -1.
         -2    1    1    2    0  502  0.30169921606E+02 -0.44319114816E+02 -0.52943641653E+02  0.75348771053E+02  0.00000000000E+00 0.  1.
<scales pt_clust_5="13000.00000" pt_clust_6="13000.00000" pt_clust_7="13000.00000" pt_clust_8="13000.00000" pt_clust_9="53.61353"></scales>
<clustering>
<clus scale="   53.614">  1  9  2 -1</clus>
<clus scale="   78.852">  5  6 -1 -1</clus>
<clus scale="   92.135">  7  8 -1 -1</clus>
<clus scale="  109.389">  1  5  2 -1</clus>
<clus scale="   53.614">  1  5  2 -1</clus>
</clustering>
</event>
<event>
 9    2  0.1488992E-004  0.1791671E+03  0.7546771E-02  0.1174825E+00
          4   -1    0    0  502    0 -0.00000000000E+00  0.00000000000E+00  0.17396827075E+03  0.17396827075E+03  0.00000000000E+00 0. -1.
         21   -1    0    0  501  502  0.00000000000E+00 -0.00000000000E+00 -0.31051623193E+03  0.31051623193E+03  0.00000000000E+00 0. -1.
         23    2    1    2    0    0 -0.12725437948E+03 -0.28610320408E+02 -0.17966554293E+02  0.17642551901E+03  0.11743482940E+03 0.  0.
         24    2    1    2    0    0  0.15033883373E+03 -0.23363441561E+02 -0.16310084256E+03  0.23583610561E+03  0.76610498863E+02 0.  0.
        -11    1    4    4    0    0  0.19349010379E+02  0.51477528806E+01  0.51843397566E+01  0.20682382384E+02  0.00000000000E+00 0.  1.
         12    1    4    4    0    0  0.13098982335E+03 -0.28511194442E+02 -0.16828518232E+03  0.21515372322E+03  0.00000000000E+00 0. -1.
        -11    1    3    3    0    0 -0.49837288233E+02  0.36714448576E+02 -0.38737501710E+02  0.73022599730E+02  0.00000000000E+00 0.  1.
         11    1    3    3    0    0 -0.77417091247E+02 -0.65324768984E+02  0.20770947417E+02  0.10340291928E+03  0.00000000000E+00 0. -1.
          3    1    1    2  501    0 -0.23084454247E+02  0.51973761969E+02  0.44519435681E+02  0.72222878054E+02  0.00000000000E+00 0. -1.
<scales pt_clust_5="13000.00000" pt_clust_6="13000.00000" pt_clust_7="13000.00000" pt_clust_8="13000.00000" pt_clust_9="56.86974"></scales>
<clustering>
<clus scale="   56.870">  2  9  1 -1</clus>
<clus scale="   76.610">  5  6 -1 -1</clus>
<clus scale="  117.435">  7  8 -1 -1</clus>
<clus scale="  155.496">  2  5  1 -1</clus>
<clus scale="   56.870">  2  5  1 -1</clus>
</clustering>
</event>
<event>
 9    2  0.1488992E-004  0.8809725E+02  0.7546771E-02  0.1313117E+00
         21   -1    0    0  501  502  0.00000000000E+00  0.00000000000E+00  0.71291793504E+02  0.71291793504E+02  0.00000000000E+00 0.  1.
          2   -1    0    0  502    0 -0.00000000000E+00 -0.00000000000E+00 -0.17089823706E+03  0.17089823706E+03  0.00000000000E+00 0. -1.
         24    2    1    2    0    0  0.17774716383E+01  0.27888410260E+01 -0.85604417476E+02  0.11679923852E+03  0.79391490650E+02 0.  0.
         23    2    1    2    0    0  0.23390682746E+02  0.17060039794E+02 -0.10488076143E+02  0.93145452703E+02  0.87908512790E+02 0.  0.
        -13    1    3    3    0    0 -0.30724567125E+01 -0.33546440927E+02 -0.14244967314E+02  0.36574892794E+02  0.00000000000E+00 0.  1.
         14    1    3    3    0    0  0.48499283508E+01  0.36335281953E+02 -0.71359450163E+02  0.80224345726E+02  0.00000000000E+00 0. -1.
        -11    1    4    4    0    0  0.14633115648E+02 -0.15551412075E+02  0.32249370645E+02  0.38678112650E+02  0.00000000000E+00 0.  1.
         11    1    4    4    0    0  0.87575670980E+01  0.32611451869E+02 -0.42737446789E+02  0.54467340054E+02  0.00000000000E+00 0. -1.
          1    1    1    2  501    0 -0.25168154385E+02 -0.19848880820E+02 -0.35139499353E+01  0.32245339339E+02  0.00000000000E+00 0. -1.
<scales pt_clust_5="13000.00000" pt_clust_6="13000.00000" pt_clust_7="13000.00000" pt_clust_8="13000.00000" pt_clust_9="32.05330"></scales>
<clustering>
<clus scale="   32.053">  1  9  2 -1</clus>
<clus scale="   79.391">  5  6 -1 -1</clus>
<clus scale="   79.600">  2  5  1 -1</clus>
<clus scale="   87.909">  7  8 -1 -1</clus>
<clus scale="   32.053">  1  5  2 -1</clus>
</clustering>
</event>
<event>
 9    2  0.1488992E-004  0.9874605E+02  0.7546771E-02  0.1288396E+00
         21   -1    0    0  501  502  0.00000000000E+00  0.00000000000E+00  0.67913133542E+02  0.67913133542E+02  0.00000000000E+00 0.  1.
         -3   -1    0    0    0  501 -0.00000000000E+00 -0.00000000000E+00 -0.24813214600E+03  0.24813214600E+03  0.00000000000E+00 0.  1.
         23    2    1    2    0    0 -0.10736671756E+02  0.26439216930E+02 -0.11882829623E+03  0.15249415693E+03  0.91214009903E+02 0.  0.
         24    2    1    2    0    0  0.26308503802E+02 -0.57303992062E+02 -0.11774828638E+02  0.10307920682E+03  0.80689475218E+02 0.  0.
        -13    1    4    4    0    0  0.27742633757E+02 -0.77418256205E+02 -0.95425421892E+01  0.82790701368E+02  0.00000000000E+00 0.  1.
         14    1    4    4    0    0 -0.14341299551E+01  0.20114264143E+02 -0.22322864491E+01  0.20288505454E+02  0.00000000000E+00 0. -1.
        -11    1    3    3    0    0  0.32939094471E+02 -0.13405910517E+02 -0.54970307031E+02  0.65470886937E+02  0.00000000000E+00 0. -1.
         11    1    3    3    0    0 -0.43675766226E+02  0.39845127447E+02 -0.63857989197E+02  0.87023269997E+02  0.00000000000E+00 0.  1.
         -4    1    1    2    0  502 -0.15571832046E+02  0.30864775132E+02 -0.49615887596E+02  0.60471915789E+02  0.00000000000E+00 0.  1.
<scales pt_clust_5="13000.00000" pt_clust_6="13000.00000" pt_clust_7="13000.00000" pt_clust_8="13000.00000" pt_clust_9="34.57047"></scales>
<clustering>
<clus scale="   34.570">  1  9  2 -1</clus>
<clus scale="   80.689">  5  6 -1 -1</clus>
<clus scale="   89.116">  1  5  2 -1</clus>
<clus scale="   91.214">  7  8 -1 -1</clus>
<clus scale="   34.570">  1  5  2 -1</clus>
</clustering>
</event>
<event>
 9    2  0.1488992E-004  0.1185194E+03  0.7546771E-02  0.1250498E+00
          2   -1    0    0  502    0 -0.00000000000E+00  0.00000000000E+00  0.30969607724E+03  0.30969607724E+03  0.00000000000E+00 0. -1.
         21   -1    0    0  501  502  0.00000000000E+00 -0.00000000000E+00 -0.12763409326E+03  0.12763409326E+03  0.00000000000E+00 0.  1.
         24    2    1    2    0    0 -0.60897261332E+02  0.13481594652E+02  0.16821905670E+03  0.19607256979E+03  0.79098494010E+02 0.  0.
         23    2    1    2    0    0  0.98836392187E+02 -0.20408633063E+02  0.83921185830E+02  0.16126807744E+03  0.93698893516E+02 0.  0.
        -13    1    3    3    0    0 -0.53734106059E+01 -0.29397042150E+02  0.40186683261E+02  0.50080227039E+02  0.00000000000E+00 0.  1.
         14    1    3    3    0    0 -0.55523850727E+02  0.42878636802E+02  0.12803237344E+03  0.14599234275E+03  0.00000000000E+00 0. -1.
        -13    1    4    4    0    0  0.90739958157E+01 -0.40153621169E+02  0.46309722232E+02  0.61961609617E+02  0.00000000000E+00 0. -1.
         13    1    4    4    0    0  0.89762396371E+02  0.19744988106E+02  0.37611463598E+02  0.99306467823E+02  0.00000000000E+00 0.  1.
          1    1    1    2  501    0 -0.37939130854E+02  0.69270384110E+01 -0.70078258554E+02  0.79989523271E+02  0.00000000000E+00 0. -1.
<scales pt_clust_5="13000.00000" pt_clust_6="13000.00000" pt_clust_7="13000.00000" pt_clust_8="13000.00000" pt_clust_9="38.56633"></scales>
<clustering>
<clus scale="   38.566">  2  9  1 -1</clus>
<clus scale="   79.098">  5  6 -1 -1</clus>
<clus scale="   93.699">  7  8 -1 -1</clus>
<clus scale="  107.350">  1  5  2 -1</clus>
<clus scale="   38.566">  2  5  1 -1</clus>
</clustering>
</event>
<event>
 9    2  0.1488992E-004  0.1447126E+03  0.7546771E-02  0.1219510E+00
          2   -1    0    0  502    0 -0.00000000000E+00  0.00000000000E+00  0.10411495151E+04  0.10411495151E+04  0.00000000000E+00 0. -1.
         21   -1    0    0  501  502  0.00000000000E+00 -0.00000000000E+00 -0.47374438561E+02  0.47374438561E+02  0.00000000000E+00 0. -1.
         24    2    1    2    0    0  0.65930363802E+02  0.39193328148E+02  0.30427377602E+03  0.32397315205E+03  0.80580038677E+02 0.  0.
         23    2    1    2    0    0  0.93422858300E+02 -0.30586437338E+02  0.14919047911E+03  0.20116522166E+03  0.92446128894E+02 0.  0.
        -13    1    3    3    0    0 -0.31072799738E+01  0.39497998282E+02  0.79332842084E+02  0.88676078455E+02  0.00000000000E+00 0.  1.
         14    1    3    3    0    0  0.69037643776E+02 -0.30467013398E+00  0.22494093393E+03  0.23529707359E+03  0.00000000000E+00 0. -1.
        -11    1    4    4    0    0 -0.37662501558E+01 -0.36975406969E+02  0.34664672552E+02  0.50823271086E+02  0.00000000000E+00 0.  1.
         11    1    4    4    0    0  0.97189108455E+02  0.63889696306E+01  0.11452580655E+03  0.15034195057E+03  0.00000000000E+00 0. -1.
          1    1    1    2  501    0 -0.15935322210E+03 -0.86068908097E+01  0.54031082143E+03  0.56338557997E+03  0.00000000000E+00 0. -1.
<scales pt_clust_5="13000.00000" pt_clust_6="13000.00000" pt_clust_7="13000.00000" pt_clust_8="13000.00000" pt_clust_9="111.33488"></scales>
<clustering>
<clus scale="   80.580">  5  6 -1 -1</clus>
<clus scale="   92.446">  7  8 -1 -1</clus>
<clus scale="  111.248">  1  5  2 -1</clus>
<clus scale="  111.335">  2  9  1 -1</clus>
<clus scale="  111.335">  2  5  1 -1</clus>
</clustering>
</event>
<event>
 9    2  0.1488992E-004  0.2331003E+03  0.7546771E-02  0.1141875E+00
         21   -1    0    0  501  502  0.00000000000E+00  0.00000000000E+00  0.12075468023E+03  0.12075468023E+03  0.00000000000E+00 0.  1.
          2   -1    0    0  502    0 -0.00000000000E+00 -0.00000000000E+00 -0.11144198556E+04  0.11144198556E+04  0.00000000000E+00 0. -1.
         23    2    1    2    0    0 -0.12167422605E+03  0.94422523586E+01 -0.52179425514E+02  0.16109709593E+03  0.91300648726E+02 0.  0.
         24    2    1    2    0    0 -0.48423383056E+02  0.19900990573E+03 -0.25579752641E+03  0.33749489963E+03  0.80750641818E+02 0.  0.
        -13    1    4    4    0    0 -0.36446293867E+02  0.19197247767E+03 -0.19850631363E+03  0.27854357122E+03  0.00000000000E+00 0.  1.
         14    1    4    4    0    0 -0.11977089189E+02  0.70374280609E+01 -0.57291212779E+02  0.58951328406E+02  0.00000000000E+00 0. -1.
        -11    1    3    3    0    0 -0.28053146894E+02 -0.22317515917E+01 -0.60157271900E+02  0.66414284068E+02  0.00000000000E+00 0.  1.
         11    1    3    3    0    0 -0.93621079152E+02  0.11674003950E+02  0.79778463860E+01  0.94682811865E+02  0.00000000000E+00 0. -1.
          1    1    1    2  501    0  0.17009760910E+03 -0.20845215809E+03 -0.68568822343E+03  0.73658254024E+03  0.00000000000E+00 0. -1.
<scales pt_clust_5="13000.00000" pt_clust_6="13000.00000" pt_clust_7="13000.00000" pt_clust_8="13000.00000" pt_clust_9="218.66676"></scales>
<clustering>
<clus scale="   80.751">  5  6 -1 -1</clus>
<clus scale="   91.301">  7  8 -1 -1</clus>
<clus scale="  152.413">  2  7  1 -1</clus>
<clus scale="  218.667">  1  9  2 -1</clus>
<clus scale="  218.667">  1  5  2 -1</clus>
</clustering>
</event>
<event>
 9    2  0.1488992E-004  0.1329433E+03  0.7546771E-02  0.1243497E+00
         21   -1    0    0  501  502  0.00000000000E+00  0.00000000000E+00  0.45355235327E+02  0.45355235327E+02  0.00000000000E+00 0.  1.
          2   -1    0    0  502    0 -0.00000000000E+00 -0.00000000000E+00 -0.81282406314E+03  0.81282406314E+03  0.00000000000E+00 0. -1.
         24    2    1    2    0    0 -0.28069641878E+02  0.13611525866E+02 -0.30432471601E+03  0.31666573982E+03  0.81795351773E+02 0.  0.
         23    2    1    2    0    0 -0.87688807998E+02  0.22686987913E+02 -0.10912487056E+03  0.16728471958E+03  0.88723804924E+02 0.  0.
        -13    1    3    3    0    0 -0.34287414083E+02  0.44407809642E+02 -0.19834309147E+03  0.20612535569E+03  0.00000000000E+00 0.  1.
         14    1    3    3    0    0  0.62177722043E+01 -0.30796283777E+02 -0.10598162453E+03  0.11054038413E+03  0.00000000000E+00 0. -1.
        -13    1    4    4    0    0 -0.65736654046E+02  0.44039243488E+02 -0.33929905663E+02  0.86092979682E+02  0.00000000000E+00 0.  1.
         13    1    4    4    0    0 -0.21952153951E+02 -0.21352255575E+02 -0.75194964896E+02  0.81191739893E+02  0.00000000000E+00 0. -1.
          1    1    1    2  501    0  0.11575844988E+03 -0.36298513779E+02 -0.35401924125E+03  0.37422883907E+03  0.00000000000E+00 0. -1.
<scales pt_clust_5="13000.00000" pt_clust_6="13000.00000" pt_clust_7="13000.00000" pt_clust_8="13000.00000" pt_clust_9="99.00515"></scales>
<clustering>
<clus scale="   81.795">  5  6 -1 -1</clus>
<clus scale="   87.542">  2  5  1 -1</clus>
<clus scale="   88.724">  7  8 -1 -1</clus>
<clus scale="   99.005">  1  9  2 -1</clus>
<clus scale="   99.005">  1  5  2 -1</clus>
</clustering>
</event>
<event>
 9    2  0.1488992E-004  0.1144594E+03  0.7546771E-02  0.1255730E+00
         21   -1    0    0  501  502  0.00000000000E+00  0.00000000000E+00  0.51459452789E+02  0.51459452789E+02  0.00000000000E+00 0. -1.
          2   -1    0    0  502    0 -0.00000000000E+00 -0.00000000000E+00 -0.44521785680E+03  0.44521785680E+03  0.00000000000E+00 0. -1.
         24    2    1    2    0    0 -0.59852841920E+02  0.45964258560E+02 -0.24781657900E+03  0.27017395960E+03  0.76719201419E+02 0.  0.
         23    2    1    2    0    0  0.24116282307E+02 -0.82709154529E+02 -0.10395189781E+03  0.16024293150E+03  0.86309910912E+02 0.  0.
        -13    1    3    3    0    0 -0.34270005515E+02 -0.14367918807E+02 -0.13169474322E+03  0.13683704090E+03  0.00000000000E+00 0.  1.
         14    1    3    3    0    0 -0.25582836405E+02  0.60332177367E+02 -0.11612183578E+03  0.13333691870E+03  0.00000000000E+00 0. -1.
        -11    1    4    4    0    0  0.57880336593E+01 -0.95781788270E+02 -0.97557595793E+02  0.13683982167E+03  0.00000000000E+00 0. -1.
         11    1    4    4    0    0  0.18328248647E+02  0.13072633741E+02 -0.63943020203E+01  0.23403109830E+02  0.00000000000E+00 0.  1.
          1    1    1    2  501    0  0.35736559613E+02  0.36744895969E+02 -0.41989927198E+02  0.66260418492E+02  0.00000000000E+00 0. -1.
<scales pt_clust_5="13000.00000" pt_clust_6="13000.00000" pt_clust_7="13000.00000" pt_clust_8="13000.00000" pt_clust_9="51.25709"></scales>
<clustering>
<clus scale="   51.257">  1  9  2 -1</clus>
<clus scale="   76.719">  5  6 -1 -1</clus>
<clus scale="   86.310">  7  8 -1 -1</clus>
<clus scale="  107.412">  2  5  1 -1</clus>
<clus scale="   51.257">  1  5  2 -1</clus>
</clustering>
</event>
<event>
 9    2  0.1488992E-004  0.1127621E+03  0.7546771E-02  0.1259971E+00
         21   -1    0    0  501  502  0.00000000000E+00  0.00000000000E+00  0.40070241108E+03  0.40070241108E+03  0.00000000000E+00 0. -1.
         -1   -1    0    0    0  501 -0.00000000000E+00 -0.00000000000E+00 -0.18089103602E+03  0.18089103602E+03  0.00000000000E+00 0.  1.
         24    2    1    2    0    0 -0.54208383895E+02  0.35239988221E+02 -0.14629745236E+03  0.17923533801E+03  0.80882360055E+02 0.  0.
         23    2    1    2    0    0  0.70185096726E+02  0.44124504204E+01  0.31465331982E+03  0.33546087068E+03  0.92638364440E+02 0.  0.
        -13    1    3    3    0    0 -0.59867152610E+02 -0.75372120579E+01 -0.82296468109E+02  0.10204701951E+03  0.00000000000E+00 0.  1.
         14    1    3    3    0    0  0.56587687153E+01  0.42777200279E+02 -0.64000984254E+02  0.77188318498E+02  0.00000000000E+00 0. -1.
        -13    1    4    4    0    0 -0.20697322255E+02  0.13633757406E+02  0.74931464355E+02  0.78923905377E+02  0.00000000000E+00 0.  1.
         13    1    4    4    0    0  0.90882418981E+02 -0.92213069853E+01  0.23972185546E+03  0.25653696531E+03  0.00000000000E+00 0. -1.
         -2    1    1    2    0  502 -0.15976712831E+02 -0.39652438642E+02  0.51455507612E+02  0.66897238409E+02  0.00000000000E+00 0.  1.
<scales pt_clust_5="13000.00000" pt_clust_6="13000.00000" pt_clust_7="13000.00000" pt_clust_8="13000.00000" pt_clust_9="42.75010"></scales>
<clustering>
<clus scale="   42.750">  1  9  2 -1</clus>
<clus scale="   80.882">  5  6 -1 -1</clus>
<clus scale="   92.638">  7  8 -1 -1</clus>
<clus scale="  103.322">  2  5  1 -1</clus>
<clus scale="   42.750">  1  5  2 -1</clus>
</clustering>
</event>
<event>
 9    2  0.1488992E-004  0.1602163E+03  0.7546771E-02  0.1190175E+00
          2   -1    0    0  502    0 -0.00000000000E+00  0.00000000000E+00  0.30270548994E+03  0.30270548994E+03  0.00000000000E+00 0. -1.
         21   -1    0    0  501  502  0.00000000000E+00 -0.00000000000E+00 -0.14504769749E+03  0.14504769749E+03  0.00000000000E+00 0. -1.
         24    2    1    2    0    0 -0.45487555857E+02 -0.15033913149E+03  0.81143009711E+02  0.19435182040E+03  0.80730848337E+02 0.  0.
         23    2    1    2    0    0  0.64689948475E+02  0.79484623153E+02 -0.12458220218E+02  0.13805281486E+03  0.91655756441E+02 0.  0.
        -13    1    3    3    0    0  0.18607383093E+02 -0.52871444941E+02  0.46028619580E+02  0.72527637602E+02  0.00000000000E+00 0.  1.
         14    1    3    3    0    0 -0.64094938950E+02 -0.97467686546E+02  0.35114390130E+02  0.12182418280E+03  0.00000000000E+00 0. -1.
        -11    1    4    4    0    0  0.47162148905E+02 -0.33617324002E+01  0.14041959736E+02  0.49322876714E+02  0.00000000000E+00 0.  1.
         11    1    4    4    0    0  0.17527799570E+02  0.82846355553E+02 -0.26500179954E+02  0.88729938148E+02  0.00000000000E+00 0. -1.
          1    1    1    2  501    0 -0.19202392618E+02  0.70854508334E+02  0.88973002956E+02  0.11534855217E+03  0.00000000000E+00 0. -1.
<scales pt_clust_5="13000.00000" pt_clust_6="13000.00000" pt_clust_7="13000.00000" pt_clust_8="13000.00000" pt_clust_9="73.41048"></scales>
<clustering>
<clus scale="   73.410">  2  9  1 -1</clus>
<clus scale="   80.731">  5  6 -1 -1</clus>
<clus scale="   91.656">  7  8 -1 -1</clus>
<clus scale="  154.227">  1  5  2 -1</clus>
<clus scale="   73.410">  2  5  1 -1</clus>
</clustering>
</event>
<event>
 9    2  0.1488992E-004  0.1053603E+03  0.7546771E-02  0.1274167E+00
         21   -1    0    0  501  502  0.00000000000E+00  0.00000000000E+00  0.12106556681E+03  0.12106556681E+03  0.00000000000E+00 0. -1.
          2   -1    0    0  502    0 -0.00000000000E+00 -0.00000000000E+00 -0.17316231788E+03  0.17316231788E+03  0.00000000000E+00 0. -1.
         23    2    1    2    0    0  0.24570965934E+02 -0.57167708372E+02 -0.95775607840E+02  0.14746354079E+03  0.93277272463E+02 0.  0.
         24    2    1    2    0    0  0.14867566691E+02  0.28345679177E+02  0.14493000245E+02  0.89861607195E+02  0.82707553006E+02 0.  0.
        -11    1    4    4    0    0 -0.23023177493E+02  0.34259026006E+02 -0.12311199855E+02  0.43073346824E+02  0.00000000000E+00 0.  1.
         12    1    4    4    0    0  0.37890744184E+02 -0.59133468293E+01  0.26804200100E+02  0.46788260371E+02  0.00000000000E+00 0. -1.
        -11    1    3    3    0    0 -0.14902850137E+02 -0.66937019432E+02 -0.75600551331E+02  0.10206910832E+03  0.00000000000E+00 0. -1.
         11    1    3    3    0    0  0.39473816071E+02  0.97693110606E+01 -0.20175056509E+02  0.45394432467E+02  0.00000000000E+00 0.  1.
          1    1    1    2  501    0 -0.39438532625E+02  0.28822029195E+02  0.29185856530E+02  0.56902736700E+02  0.00000000000E+00 0. -1.
<scales pt_clust_5="13000.00000" pt_clust_6="13000.00000" pt_clust_7="13000.00000" pt_clust_8="13000.00000" pt_clust_9="48.84780"></scales>
<clustering>
<clus scale="   48.848">  1  9  2 -1</clus>
<clus scale="   82.708">  5  6 -1 -1</clus>
<clus scale="   93.277">  7  8 -1 -1</clus>
<clus scale="   96.128">  1  5  2 -1</clus>
<clus scale="   48.848">  1  5  2 -1</clus>
</clustering>
</event>
<event>
 9    2  0.1488992E-004  0.2193731E+03  0.7546771E-02  0.1134351E+00
         21   -1    0    0  501  502  0.00000000000E+00  0.00000000000E+00  0.19639754591E+03  0.19639754591E+03  0.00000000000E+00 0. -1.
          2   -1    0    0  502    0 -0.00000000000E+00 -0.00000000000E+00 -0.21843523995E+03  0.21843523995E+03  0.00000000000E+00 0. -1.
         24    2    1    2    0    0 -0.44438600031E+02  0.75565511313E+02  0.65929834551E+02  0.13645036140E+03  0.81160472956E+02 0.  0.
         23    2    1    2    0    0 -0.16373644060E+02  0.36056274285E+02  0.31825140740E+02  0.10371750045E+03  0.90423056695E+02 0.  0.
        -13    1    3    3    0    0  0.75439668235E+01  0.65490314713E+02  0.43270346579E+02  0.78855663397E+02  0.00000000000E+00 0.  1.
         14    1    3    3    0    0 -0.51982566855E+02  0.10075196600E+02  0.22659487972E+02  0.57594698007E+02  0.00000000000E+00 0. -1.
        -13    1    4    4    0    0  0.23892014994E+02  0.46236710568E+02  0.11022364256E+01  0.52056476156E+02  0.00000000000E+00 0.  1.
         13    1    4    4    0    0 -0.40265659054E+02 -0.10180436283E+02  0.30722904314E+02  0.51661024298E+02  0.00000000000E+00 0. -1.
          1    1    1    2  501    0  0.60812244092E+02 -0.11162178560E+03 -0.11979266933E+03  0.17466492400E+03  0.00000000000E+00 0. -1.
<scales pt_clust_5="13000.00000" pt_clust_6="13000.00000" pt_clust_7="13000.00000" pt_clust_8="13000.00000" pt_clust_9="127.11242"></scales>
<clustering>
<clus scale="   81.160">  5  6 -1 -1</clus>
<clus scale="   90.423">  7  8 -1 -1</clus>
<clus scale="   90.576">  5  7 -1 -1</clus>
<clus scale="  127.112">  1  9  2 -1</clus>
<clus scale="  127.112">  1  5  2 -1</clus>
</clustering>
</event>
<event>
 9    2  0.1488992E-004  0.1016493E+03  0.7546771E-02  0.1281249E+00
         21   -1    0    0  501  502  0.00000000000E+00  0.00000000000E+00  0.26256078083E+02  0.26256078083E+02  0.00000000000E+00 0.  1.
          2   -1    0    0  502    0 -0.00000000000E+00 -0.00000000000E+00 -0.63035070008E+03  0.63035070008E+03  0.00000000000E+00 0. -1.
         23    2    1    2    0    0 -0.24315508743E+02 -0.36076951537E+02 -0.44010383599E+03  0.45128654267E+03  0.89863044367E+02 0.  0.
         24    2    1    2    0    0  0.18878067992E+02  0.57581004178E+02 -0.14158780306E+03  0.17379431463E+03  0.80532008088E+02 0.  0.
        -13    1    4    4    0    0  0.45860657173E+02  0.20083147817E+02 -0.99106512748E+02  0.11103438013E+03  0.00000000000E+00 0.  1.
         14    1    4    4    0    0 -0.26982589181E+02  0.37497856361E+02 -0.42481290315E+02  0.62759934492E+02  0.00000000000E+00 0. -1.
        -11    1    3    3    0    0  0.32591305043E+02 -0.18389652633E+02 -0.12058729610E+03  0.12626032025E+03  0.00000000000E+00 0.  1.
         11    1    3    3    0    0 -0.56906813786E+02 -0.17687298905E+02 -0.31951653988E+03  0.32502622242E+03  0.00000000000E+00 0. -1.
          1    1    1    2  501    0  0.54374407512E+01 -0.21504052640E+02 -0.22402982947E+02  0.31525920871E+02  0.00000000000E+00 0. -1.
<scales pt_clust_5="13000.00000" pt_clust_6="13000.00000" pt_clust_7="13000.00000" pt_clust_8="13000.00000" pt_clust_9="22.18085"></scales>
<clustering>
<clus scale="   22.181">  1  9  2 -1</clus>
<clus scale="   80.532">  5  6 -1 -1</clus>
<clus scale="   89.863">  7  8 -1 -1</clus>
<clus scale="   93.502">  1  5  2 -1</clus>
<clus scale="   22.181">  1  5  2 -1</clus>
</clustering>
</event>
<event>
 9    2  0.1488992E-004  0.9275352E+02  0.7546771E-02  0.1302424E+00
         21   -1    0    0  501  502  0.00000000000E+00  0.00000000000E+00  0.61062414668E+02  0.61062414668E+02  0.00000000000E+00 0. -1.
          2   -1    0    0  502    0 -0.00000000000E+00 -0.00000000000E+00 -0.29435934660E+03  0.29435934660E+03  0.00000000000E+00 0. -1.
         23    2    1    2    0    0 -0.10046377891E+02 -0.13422256120E+01 -0.20926222675E+03  0.22862100428E+03  0.91510397093E+02 0.  0.
         24    2    1    2    0    0  0.37503768603E+02  0.78711000523E+01 -0.47701889509E+00  0.90038016480E+02  0.81474719939E+02 0.  0.
        -13    1    4    4    0    0 -0.15239971838E+02  0.19914590273E+02 -0.20459734518E+02  0.32364307252E+02  0.00000000000E+00 0.  1.
         14    1    4    4    0    0  0.52743740441E+02 -0.12043490221E+02  0.19982715623E+02  0.57673709228E+02  0.00000000000E+00 0. -1.
        -11    1    3    3    0    0 -0.50959419215E+02  0.21273360800E+01 -0.11460159844E+03  0.12543888684E+03  0.00000000000E+00 0.  1.
         11    1    3    3    0    0  0.40913041324E+02 -0.34695616920E+01 -0.94660628308E+02  0.10318211744E+03  0.00000000000E+00 0. -1.
          1    1    1    2  501    0 -0.27457390712E+02 -0.65288744403E+01 -0.23557686280E+02  0.36762740500E+02  0.00000000000E+00 0. -1.
<scales pt_clust_5="13000.00000" pt_clust_6="13000.00000" pt_clust_7="13000.00000" pt_clust_8="13000.00000" pt_clust_9="28.22294"></scales>
<clustering>
<clus scale="   28.223">  1  9  2 -1</clus>
<clus scale="   81.475">  5  6 -1 -1</clus>
<clus scale="   82.869">  1  5  2 -1</clus>
<clus scale="   91.510">  7  8 -1 -1</clus>
<clus scale="   28.223">  1  5  2 -1</clus>
</clustering>
</event>
<event>
 9    2  0.1488992E-004  0.2313755E+03  0.7546771E-02  0.1152947E+00
          2   -1    0    0  502    0 -0.00000000000E+00  0.00000000000E+00  0.14751173913E+03  0.14751173913E+03  0.00000000000E+00 0. -1.
         21   -1    0    0  501  502  0.00000000000E+00 -0.00000000000E+00 -0.60109579875E+03  0.60109579875E+03  0.00000000000E+00 0.  1.
         24    2    1    2    0    0 -0.48220532077E+02  0.77748483147E+02 -0.10337722806E+03  0.15818947035E+03  0.77246429725E+02 0.  0.
         23    2    1    2    0    0 -0.17881093553E+03 -0.29605176483E+02 -0.46743462359E+02  0.20838262190E+03  0.91589020609E+02 0.  0.
        -13    1    3    3    0    0  0.12543494214E+02  0.39585989340E+02 -0.64137428458E+02  0.76406802893E+02  0.00000000000E+00 0.  1.
         14    1    3    3    0    0 -0.60764026292E+02  0.38162493806E+02 -0.39239799597E+02  0.81782667461E+02  0.00000000000E+00 0. -1.
        -11    1    4    4    0    0 -0.13806374054E+03 -0.33631967614E+02  0.52549273930E+01  0.14219817143E+03  0.00000000000E+00 0.  1.
         11    1    4    4    0    0 -0.40747194990E+02  0.40267911305E+01 -0.51998389752E+02  0.66184450463E+02  0.00000000000E+00 0. -1.
          1    1    1    2  501    0  0.22703146761E+03 -0.48143306664E+02 -0.30346336921E+03  0.38203544562E+03  0.00000000000E+00 0. -1.
<scales pt_clust_5="13000.00000" pt_clust_6="13000.00000" pt_clust_7="13000.00000" pt_clust_8="13000.00000" pt_clust_9="212.47610"></scales>
<clustering>
<clus scale="   77.246">  5  6 -1 -1</clus>
<clus scale="   91.589">  7  8 -1 -1</clus>
<clus scale="  119.738">  1  5  2 -1</clus>
<clus scale="  212.476">  2  9  1 -1</clus>
<clus scale="  212.476">  2  5  1 -1</clus>
</clustering>
</event>
<event>
 9    2  0.1488992E-004  0.1612193E+03  0.7546771E-02  0.1211121E+00
         21   -1    0    0  501  502  0.00000000000E+00  0.00000000000E+00  0.40982630804E+03  0.40982630804E+03  0.00000000000E+00 0.  1.
          2   -1    0    0  502    0 -0.00000000000E+00 -0.00000000000E+00 -0.19209169143E+03  0.19209169143E+03  0.00000000000E+00 0. -1.
         23    2    1    2    0    0  0.20040061990E+02  0.18769402902E+02  0.62254331170E+02  0.11449081549E+03  0.92079587927E+02 0.  0.
         24    2    1    2    0    0 -0.12253901338E+03 -0.62588048535E+02  0.27732161279E+03  0.32228658392E+03  0.89600734556E+02 0.  0.
        -11    1    4    4    0    0 -0.84156692634E+02 -0.54066341950E+02  0.26137033033E+03  0.27985704891E+03  0.00000000000E+00 0.  1.
         12    1    4    4    0    0 -0.38382320742E+02 -0.85217065856E+01  0.15951282457E+02  0.42429535004E+02  0.00000000000E+00 0. -1.
        -13    1    3    3    0    0  0.45911479599E+02  0.12348898711E+02  0.71853857016E+02  0.86158783802E+02  0.00000000000E+00 0.  1.
         13    1    3    3    0    0 -0.25871417609E+02  0.64205041916E+01 -0.95995258461E+01  0.28332031689E+02  0.00000000000E+00 0. -1.
          1    1    1    2  501    0  0.10249895139E+03  0.43818645633E+02 -0.12184132734E+03  0.16514060006E+03  0.00000000000E+00 0. -1.
<scales pt_clust_5="13000.00000" pt_clust_6="13000.00000" pt_clust_7="13000.00000" pt_clust_8="13000.00000" pt_clust_9="134.02754"></scales>
<clustering>
<clus scale="   89.601">  5  6 -1 -1</clus>
<clus scale="   92.080">  7  8 -1 -1</clus>
<clus scale="   96.086">  2  7  1 -1</clus>
<clus scale="  134.028">  1  9  2 -1</clus>
<clus scale="  134.028">  1  5  2 -1</clus>
</clustering>
</event>
<event>
 9    2  0.1488992E-004  0.1120528E+03  0.7546771E-02  0.1261878E+00
          2   -1    0    0  502    0 -0.00000000000E+00  0.00000000000E+00  0.46229226124E+03  0.46229226124E+03  0.00000000000E+00 0. -1.
         21   -1    0    0  501  502  0.00000000000E+00 -0.00000000000E+00 -0.59228839722E+02  0.59228839722E+02  0.00000000000E+00 0.  1.
         23    2    1    2    0    0  0.52808157863E+02 -0.59702017072E+01  0.11749063314E+03  0.15869997854E+03  0.92505618575E+02 0.  0.
         24    2    1    2    0    0 -0.81732351821E+02 -0.19810582110E+02  0.53214188964E+02  0.12725419662E+03  0.79304754914E+02 0.  0.
        -13    1    4    4    0    0 -0.92885128252E+02 -0.27940541647E+02  0.32370539548E+02  0.10225542894E+03  0.00000000000E+00 0.  1.
         14    1    4    4    0    0  0.11152776431E+02  0.81299595371E+01  0.20843649416E+02  0.24998767673E+02  0.00000000000E+00 0. -1.
        -11    1    3    3    0    0  0.59935956438E+02  0.29965828289E+02  0.56967030091E+02  0.87951760963E+02  0.00000000000E+00 0.  1.
         11    1    3    3    0    0 -0.71277985748E+01 -0.35936029996E+02  0.60523603049E+02  0.70748217578E+02  0.00000000000E+00 0. -1.
          1    1    1    2  501    0  0.28924193958E+02  0.25780783817E+02  0.23235859942E+03  0.23556692581E+03  0.00000000000E+00 0. -1.
<scales pt_clust_5="13000.00000" pt_clust_6="13000.00000" pt_clust_7="13000.00000" pt_clust_8="13000.00000" pt_clust_9="38.74609"></scales>
<clustering>
<clus scale="   38.746">  2  9  1 -1</clus>
<clus scale="   79.305">  5  6 -1 -1</clus>
<clus scale="   92.506">  7  8 -1 -1</clus>
<clus scale="  101.429">  2  5  1 -1</clus>
<clus scale="   38.746">  2  5  1 -1</clus>
</clustering>
</event>
<event>
 9    2  0.1488992E-004  0.1226107E+03  0.7546771E-02  0.1243473E+00
          2   -1    0    0  502    0 -0.00000000000E+00  0.00000000000E+00  0.66830238237E+03  0.66830238237E+03  0.00000000000E+00 0. -1.
         21   -1    0    0  501  502  0.00000000000E+00 -0.00000000000E+00 -0.29960421861E+02  0.29960421861E+02  0.00000000000E+00 0. -1.
         24    2    1    2    0    0 -0.55540953427E+01  0.71878870361E+02  0.32249528487E+03  0.33983782546E+03  0.79303965019E+02 0.  0.
         23    2    1    2    0    0  0.31839680441E+02 -0.85262398064E+02  0.29363419060E+03  0.32150011873E+03  0.94116134008E+02 0.  0.
        -11    1    3    3    0    0  0.30859128280E+02  0.16591773145E+02  0.63596453358E+02  0.72609101455E+02  0.00000000000E+00 0.  1.
         12    1    3    3    0    0 -0.36413223623E+02  0.55287097216E+02  0.25889883151E+03  0.26722872400E+03  0.00000000000E+00 0. -1.
        -13    1    4    4    0    0  0.58101960715E+02 -0.67950120943E+02  0.15137716872E+03  0.17580700778E+03  0.00000000000E+00 0. -1.
         13    1    4    4    0    0 -0.26262280274E+02 -0.17312277121E+02  0.14225702188E+03  0.14569311095E+03  0.00000000000E+00 0.  1.
          1    1    1    2  501    0 -0.26285585099E+02  0.13383527703E+02  0.22212485041E+02  0.36924860047E+02  0.00000000000E+00 0. -1.
<scales pt_clust_5="13000.00000" pt_clust_6="13000.00000" pt_clust_7="13000.00000" pt_clust_8="13000.00000" pt_clust_9="29.49662"></scales>
<clustering>
<clus scale="   29.497">  2  9  1 -1</clus>
<clus scale="   79.304">  5  6 -1 -1</clus>
<clus scale="   94.116">  7  8 -1 -1</clus>
<clus scale="  111.645">  1  5  2 -1</clus>
<clus scale="   29.497">  2  5  1 -1</clus>
</clustering>
</event>
<event>
 9    2  0.1488992E-004  0.1244879E+03  0.7546771E-02  0.1238848E+00
          2   -1    0    0  502    0 -0.00000000000E+00  0.00000000000E+00  0.39824690726E+03  0.39824690726E+03  0.00000000000E+00 0. -1.
         21   -1    0    0  501  502  0.00000000000E+00 -0.00000000000E+00 -0.10634918940E+03  0.10634918940E+03  0.00000000000E+00 0.  1.
         23    2    1    2    0    0  0.83089792252E+02 -0.31265542454E+02  0.28099613394E+03  0.30833251388E+03  0.90711984337E+02 0.  0.
         24    2    1    2    0    0 -0.81282911585E+02 -0.36482603862E+02 -0.20251207124E+02  0.12167422338E+03  0.80353053116E+02 0.  0.
        -11    1    4    4    0    0 -0.52067945538E+02 -0.37569159639E+02 -0.48926298292E+02  0.80723573837E+02  0.00000000000E+00 0.  1.
         12    1    4    4    0    0 -0.29214966046E+02  0.10865557761E+01  0.28675091168E+02  0.40950649544E+02  0.00000000000E+00 0. -1.
        -11    1    3    3    0    0  0.58722335875E+02 -0.63315753825E+02  0.18137868928E+03  0.20088660069E+03  0.00000000000E+00 0.  1.
         11    1    3    3    0    0  0.24367456377E+02  0.32050211370E+02  0.99617444658E+02  0.10744591318E+03  0.00000000000E+00 0. -1.
          1    1    1    2  501    0 -0.18068806675E+01  0.67748146317E+02  0.31152791039E+02  0.74589359406E+02  0.00000000000E+00 0. -1.
<scales pt_clust_5="13000.00000" pt_clust_6="13000.00000" pt_clust_7="13000.00000" pt_clust_8="13000.00000" pt_clust_9="67.77224"></scales>
<clustering>
<clus scale="   67.772">  2  9  1 -1</clus>
<clus scale="   80.353">  5  6 -1 -1</clus>
<clus scale="   90.712">  7  8 -1 -1</clus>
<clus scale="  117.155">  2  5  1 -1</clus>
<clus scale="   67.772">  2  5  1 -1</clus>
</clustering>
</event>
<event>
 9    2  0.1488992E-004  0.1262522E+03  0.7546771E-02  0.1236047E+00
          2   -1    0    0  502    0 -0.00000000000E+00  0.00000000000E+00  0.63447223257E+03  0.63447223257E+03  0.00000000000E+00 0. -1.
         21   -1    0    0  501  502  0.00000000000E+00 -0.00000000000E+00 -0.32742263514E+02  0.32742263514E+02  0.00000000000E+00 0.  1.
         23    2    1    2    0    0  0.67626793828E+02 -0.59748908071E+02  0.41288955472E+03  0.43278893969E+03  0.93194241560E+02 0.  0.
         24    2    1    2    0    0 -0.47028417777E+02  0.58706157822E+02  0.12748219344E+03  0.16969371187E+03  0.82982896791E+02 0.  0.
        -13    1    4    4    0    0 -0.17556628312E+02  0.34278288040E+02  0.20686351149E+01  0.38568322233E+02  0.00000000000E+00 0.  1.
         14    1    4    4    0    0 -0.29471789465E+02  0.24427869783E+02  0.12541355832E+03  0.13112538964E+03  0.00000000000E+00 0. -1.
        -13    1    3    3    0    0  0.54347226809E+02  0.48530969586E+01  0.10984096999E+03  0.12264669706E+03  0.00000000000E+00 0.  1.
         13    1    3    3    0    0  0.13279567019E+02 -0.64602005029E+02  0.30304858473E+03  0.31014224262E+03  0.00000000000E+00 0. -1.
          1    1    1    2  501    0 -0.20598376051E+02  0.10427502484E+01  0.61358220904E+02  0.64731844532E+02  0.00000000000E+00 0. -1.
<scales pt_clust_5="13000.00000" pt_clust_6="13000.00000" pt_clust_7="13000.00000" pt_clust_8="13000.00000" pt_clust_9="20.62476"></scales>
<clustering>
<clus scale="   20.625">  2  9  1 -1</clus>
<clus scale="   82.983">  5  6 -1 -1</clus>
<clus scale="   93.194">  7  8 -1 -1</clus>
<clus scale="  118.914">  2  5  1 -1</clus>
<clus scale="   20.625">  2  5  1 -1</clus>
</clustering>
</event>
<event>
 9    2  0.1488992E-004  0.1176549E+03  0.7546771E-02  0.1250538E+00
         -1   -1    0    0    0  501 -0.00000000000E+00  0.00000000000E+00  0.83555990772E+02  0.83555990772E+02  0.00000000000E+00 0.  1.
         21   -1    0    0  501  502  0.00000000000E+00 -0.00000000000E+00 -0.43881440549E+03  0.43881440549E+03  0.00000000000E+00 0.  1.
         24    2    1    2    0    0 -0.48663936576E+01 -0.66131927598E+02 -0.59073049187E+02  0.11983751861E+03  0.80462985850E+02 0.  0.
         23    2    1    2    0    0  0.14546590761E+02  0.10463342276E+03 -0.32487557874E+03  0.35355125171E+03  0.91074636775E+02 0.  0.
        -11    1    3    3    0    0 -0.29372356163E+02 -0.56396762027E+02 -0.66933140904E+02  0.92322128577E+02  0.00000000000E+00 0.  1.
         12    1    3    3    0    0  0.24505962505E+02 -0.97351655708E+01  0.78600917169E+01  0.27515390035E+02  0.00000000000E+00 0. -1.
        -11    1    4    4    0    0  0.40958389048E+02  0.96458748894E+02 -0.29393701283E+03  0.31205904471E+03  0.00000000000E+00 0.  1.
         11    1    4    4    0    0 -0.26411798287E+02  0.81746738696E+01 -0.30938565907E+02  0.41492207004E+02  0.00000000000E+00 0. -1.
         -2    1    1    2    0  502 -0.96801971030E+01 -0.38501495166E+02  0.28690213207E+02  0.48981625941E+02  0.00000000000E+00 0.  1.
<scales pt_clust_5="13000.00000" pt_clust_6="13000.00000" pt_clust_7="13000.00000" pt_clust_8="13000.00000" pt_clust_9="39.69978"></scales>
<clustering>
<clus scale="   39.700">  2  9  1 -1</clus>
<clus scale="   80.463">  5  6 -1 -1</clus>
<clus scale="   91.075">  7  8 -1 -1</clus>
<clus scale="  109.647">  1  5  2 -1</clus>
<clus scale="   39.700">  2  5  1 -1</clus>
</clustering>
</event>
<event>
 9    2  0.1488992E-004  0.1162890E+03  0.7546771E-02  0.1268711E+00
         21   -1    0    0  501  502  0.00000000000E+00  0.00000000000E+00  0.50077300676E+02  0.50077300676E+02  0.00000000000E+00 0.  1.
          4   -1    0    0  502    0 -0.00000000000E+00 -0.00000000000E+00 -0.38285347490E+03  0.38285347490E+03  0.00000000000E+00 0. -1.
         24    2    1    2    0    0  0.22456014554E+01 -0.16812114569E+02 -0.21394828891E+03  0.22773628444E+03  0.76172534424E+02 0.  0.
         23    2    1    2    0    0 -0.35786848429E+02  0.37862241301E+02 -0.10392467819E+03  0.16288339725E+03  0.11408950226E+03 0.  0.
        -13    1    3    3    0    0  0.83221658614E+01 -0.45092088001E+02 -0.16099782488E+03  0.16740028214E+03  0.00000000000E+00 0.  1.
         14    1    3    3    0    0 -0.60765644060E+01  0.28279973432E+02 -0.52950464023E+02  0.60336002292E+02  0.00000000000E+00 0. -1.
        -11    1    4    4    0    0  0.15031032699E+02  0.48375559791E+02 -0.46580349291E+01  0.50870659702E+02  0.00000000000E+00 0.  1.
         11    1    4    4    0    0 -0.50817881128E+02 -0.10513318490E+02 -0.99266643262E+02  0.11201273755E+03  0.00000000000E+00 0. -1.
          3    1    1    2  501    0  0.33541246974E+02 -0.21050126732E+02 -0.14903207132E+02  0.42311093898E+02  0.00000000000E+00 0. -1.
<scales pt_clust_5="13000.00000" pt_clust_6="13000.00000" pt_clust_7="13000.00000" pt_clust_8="13000.00000" pt_clust_9="39.59953"></scales>
<clustering>
<clus scale="   39.600">  1  9  2 -1</clus>
<clus scale="   76.173">  5  6 -1 -1</clus>
<clus scale="   79.429">  2  5  1 -1</clus>
<clus scale="  114.090">  7  8 -1 -1</clus>
<clus scale="   39.600">  1  5  2 -1</clus>
</clustering>
</event>
<event>
 9    2  0.1488992E-004  0.1090937E+03  0.7546771E-02  0.1263577E+00
         -3   -1    0    0    0  501 -0.00000000000E+00  0.00000000000E+00  0.19019397171E+03  0.19019397171E+03  0.00000000000E+00 0.  1.
         21   -1    0    0  501  502  0.00000000000E+00 -0.00000000000E+00 -0.17461827140E+03  0.17461827140E+03  0.00000000000E+00 0. -1.
         24    2    1    2    0    0 -0.22176869742E+02  0.39835829719E+02  0.62421057595E+02  0.11615865655E+03  0.86704891319E+02 0.  0.
         23    2    1    2    0    0  0.49276802694E+02 -0.11768519510E+03 -0.55530962138E+02  0.16576589274E+03  0.90092369329E+02 0.  0.
        -11    1    3    3    0    0 -0.54109621483E+02  0.12062495874E+02  0.39081609804E+02  0.67828660377E+02  0.00000000000E+00 0.  1.
         12    1    3    3    0    0  0.31932751740E+02  0.27773333845E+02  0.23339447791E+02  0.48329996170E+02  0.00000000000E+00 0. -1.
        -13    1    4    4    0    0 -0.96395988901E+01 -0.28171268768E+02 -0.50328869710E+02  0.58476810593E+02  0.00000000000E+00 0. -1.
         13    1    4    4    0    0  0.58916401584E+02 -0.89513926332E+02 -0.52020924279E+01  0.10728908215E+03  0.00000000000E+00 0.  1.
         -4    1    1    2    0  502 -0.27099932952E+02  0.77849365381E+02  0.86856048566E+01  0.82887693827E+02  0.00000000000E+00 0.  1.
<scales pt_clust_5="13000.00000" pt_clust_6="13000.00000" pt_clust_7="13000.00000" pt_clust_8="13000.00000" pt_clust_9="82.43141"></scales>
<clustering>
<clus scale="   82.431">  2  9  1 -1</clus>
<clus scale="   86.705">  5  6 -1 -1</clus>
<clus scale="   90.092">  7  8 -1 -1</clus>
<clus scale="  106.313">  1  5  2 -1</clus>
<clus scale="   82.431">  2  5  1 -1</clus>
</clustering>
</event>
<event>
 9    2  0.1488992E-004  0.1284067E+03  0.7546771E-02  0.1233102E+00
         21   -1    0    0  501  502  0.00000000000E+00  0.00000000000E+00  0.62168813569E+02  0.62168813569E+02  0.00000000000E+00 0.  1.
          2   -1    0    0  502    0 -0.00000000000E+00 -0.00000000000E+00 -0.93029588199E+03  0.93029588199E+03  0.00000000000E+00 0. -1.
         24    2    1    2    0    0 -0.57931263282E+02  0.67684541010E+02 -0.79979809243E+03  0.80889030321E+03  0.81788175207E+02 0.  0.
         23    2    1    2    0    0  0.80282962829E+02 -0.31497734939E+02 -0.57601254310E+02  0.13970905959E+03  0.93612260981E+02 0.  0.
        -13    1    3    3    0    0 -0.66145150933E+02  0.26581352129E+02 -0.35271790757E+03  0.35984951242E+03  0.00000000000E+00 0.  1.
         14    1    3    3    0    0  0.82138876514E+01  0.41103188881E+02 -0.44708018486E+03  0.44904079078E+03  0.00000000000E+00 0. -1.
        -11    1    4    4    0    0  0.62101945246E+02 -0.64327732703E+02 -0.45174153770E+02  0.10017690835E+03  0.00000000000E+00 0.  1.
         11    1    4    4    0    0  0.18181017582E+02  0.32829997764E+02 -0.12427100540E+02  0.39532151236E+02  0.00000000000E+00 0. -1.
          1    1    1    2  501    0 -0.22351699546E+02 -0.36186806071E+02 -0.10727721678E+02  0.43865332766E+02  0.00000000000E+00 0. -1.
<scales pt_clust_5="13000.00000" pt_clust_6="13000.00000" pt_clust_7="13000.00000" pt_clust_8="13000.00000" pt_clust_9="42.53332"></scales>
<clustering>
<clus scale="   42.533">  1  9  2 -1</clus>
<clus scale="   81.788">  5  6 -1 -1</clus>
<clus scale="   93.612">  7  8 -1 -1</clus>
<clus scale="  120.060">  2  5  1 -1</clus>
<clus scale="   42.533">  1  5  2 -1</clus>
</clustering>
</event>
<event>
 9    2  0.1488992E-004  0.1012271E+03  0.7546771E-02  0.1280978E+00
          2   -1    0    0  502    0 -0.00000000000E+00  0.00000000000E+00  0.39995306168E+03  0.39995306168E+03  0.00000000000E+00 0. -1.
         21   -1    0    0  501  502  0.00000000000E+00 -0.00000000000E+00 -0.13006105026E+03  0.13006105026E+03  0.00000000000E+00 0.  1.
         23    2    1    2    0    0  0.45282580026E+02 -0.66288294459E+01  0.54291836271E+02  0.11125978074E+03  0.85654432990E+02 0.  0.
         24    2    1    2    0    0 -0.84221175575E+02 -0.20991803188E+02 -0.65212178456E+02  0.13391281122E+03  0.78397388815E+02 0.  0.
        -11    1    4    4    0    0 -0.72988589959E+02 -0.45693535905E+02 -0.62980657799E+02  0.10668550391E+03  0.00000000000E+00 0.  1.
         12    1    4    4    0    0 -0.11232585616E+02  0.24701732716E+02 -0.22315206571E+01  0.27227307308E+02  0.00000000000E+00 0. -1.
        -13    1    3    3    0    0  0.10354829896E+02  0.38390356239E+02  0.27139843164E+02  0.48141593672E+02  0.00000000000E+00 0. -1.
         13    1    3    3    0    0  0.34927750130E+02 -0.45019185685E+02  0.27151993107E+02  0.63118187067E+02  0.00000000000E+00 0.  1.
          1    1    1    2  501    0  0.38938595549E+02  0.27620632634E+02  0.28081235360E+03  0.28484151999E+03  0.00000000000E+00 0. -1.
<scales pt_clust_5="13000.00000" pt_clust_6="13000.00000" pt_clust_7="13000.00000" pt_clust_8="13000.00000" pt_clust_9="47.74009"></scales>
<clustering>
<clus scale="   47.740">  2  9  1 -1</clus>
<clus scale="   78.397">  5  6 -1 -1</clus>
<clus scale="   85.654">  7  8 -1 -1</clus>
<clus scale="   95.165">  2  5  1 -1</clus>
<clus scale="   47.740">  2  5  1 -1</clus>
</clustering>
</event>
<event>
 9    2  0.1488992E-004  0.9239640E+02  0.7546771E-02  0.1303992E+00
         21   -1    0    0  501  502  0.00000000000E+00  0.00000000000E+00  0.39610258568E+02  0.39610258568E+02  0.00000000000E+00 0.  1.
          2   -1    0    0  502    0 -0.00000000000E+00 -0.00000000000E+00 -0.78705689705E+03  0.78705689705E+03  0.00000000000E+00 0. -1.
         24    2    1    2    0    0 -0.95690773846E+01  0.17855592798E+02 -0.63407943641E+03  0.63936998720E+03  0.79541557759E+02 0.  0.
         23    2    1    2    0    0  0.23375451483E+02  0.28310054970E+02 -0.57431909486E+02  0.11346871892E+03  0.90713036555E+02 0.  0.
        -11    1    3    3    0    0 -0.23524089698E+02  0.32898629696E+02 -0.16653982668E+03  0.17138032706E+03  0.00000000000E+00 0.  1.
         12    1    3    3    0    0  0.13955012313E+02 -0.15043036898E+02 -0.46753960974E+03  0.46798966014E+03  0.00000000000E+00 0. -1.
        -11    1    4    4    0    0  0.38441744267E+02  0.18389155636E+01 -0.70503654555E+02  0.80323811030E+02  0.00000000000E+00 0.  1.
         11    1    4    4    0    0 -0.15066292784E+02  0.26471139407E+02  0.13071745069E+02  0.33144907888E+02  0.00000000000E+00 0. -1.
          1    1    1    2  501    0 -0.13806374098E+02 -0.46165647769E+02 -0.55935292580E+02  0.73828449501E+02  0.00000000000E+00 0. -1.
<scales pt_clust_5="13000.00000" pt_clust_6="13000.00000" pt_clust_7="13000.00000" pt_clust_8="13000.00000" pt_clust_9="48.18592"></scales>
<clustering>
<clus scale="   48.186">  1  9  2 -1</clus>
<clus scale="   79.542">  5  6 -1 -1</clus>
<clus scale="   81.456">  2  5  1 -1</clus>
<clus scale="   90.713">  7  8 -1 -1</clus>
<clus scale="   48.186">  1  5  2 -1</clus>
</clustering>
</event>
<event>
 9    2  0.1488992E-004  0.1065620E+03  0.7546771E-02  0.1267956E+00
         21   -1    0    0  501  502  0.00000000000E+00  0.00000000000E+00  0.35298383591E+02  0.35298383591E+02  0.00000000000E+00 0.  1.
          2   -1    0    0  502    0 -0.00000000000E+00 -0.00000000000E+00 -0.40921247851E+03  0.40921247851E+03  0.00000000000E+00 0. -1.
         23    2    1    2    0    0  0.40272397069E+02  0.54603218707E+02 -0.20959631753E+03  0.23540917875E+03  0.82966786485E+02 0.  0.
         24    2    1    2    0    0 -0.54178896211E+02 -0.39775431771E+02 -0.11469131636E+03  0.15547296327E+03  0.80624478233E+02 0.  0.
        -11    1    4    4    0    0 -0.25088950002E+02 -0.54941744912E+02 -0.36236498785E+02  0.70435322036E+02  0.00000000000E+00 0.  1.
         12    1    4    4    0    0 -0.29089946209E+02  0.15166313141E+02 -0.78454817578E+02  0.85037641229E+02  0.00000000000E+00 0. -1.
        -11    1    3    3    0    0 -0.17616117604E+02  0.35514204908E+02 -0.12503173117E+03  0.13116600226E+03  0.00000000000E+00 0. -1.
         11    1    3    3    0    0  0.57888514673E+02  0.19089013798E+02 -0.84564586360E+02  0.10424317649E+03  0.00000000000E+00 0.  1.
          1    1    1    2  501    0  0.13906499142E+02 -0.14827786936E+02 -0.49626461030E+02  0.53628720087E+02  0.00000000000E+00 0. -1.
<scales pt_clust_5="13000.00000" pt_clust_6="13000.00000" pt_clust_7="13000.00000" pt_clust_8="13000.00000" pt_clust_9="20.32866"></scales>
<clustering>
<clus scale="   20.329">  1  9  2 -1</clus>
<clus scale="   80.624">  5  6 -1 -1</clus>
<clus scale="   82.967">  7  8 -1 -1</clus>
<clus scale="  104.749">  1  5  2 -1</clus>
<clus scale="   20.329">  1  5  2 -1</clus>
</clustering>
</event>
<event>
 9    2  0.1488992E-004  0.1055394E+03  0.7546771E-02  0.1274771E+00
          2   -1    0    0  502    0 -0.00000000000E+00  0.00000000000E+00  0.46742075295E+02  0.46742075295E+02  0.00000000000E+00 0. -1.
         21   -1    0    0  501  502  0.00000000000E+00 -0.00000000000E+00 -0.40549288202E+03  0.40549288202E+03  0.00000000000E+00 0. -1.
         23    2    1    2    0    0 -0.50137774459E+02 -0.24729771015E+02 -0.11393391126E+03  0.15663827593E+03  0.91810976190E+02 0.  0.
         24    2    1    2    0    0  0.50848862784E+02 -0.87828196097E+01 -0.24452577480E+03  0.26207528332E+03  0.78916758806E+02 0.  0.
        -13    1    4    4    0    0  0.21180943303E+02 -0.36775909790E+02 -0.18572289343E+03  0.19051008646E+03  0.00000000000E+00 0.  1.
         14    1    4    4    0    0  0.29667919481E+02  0.27993090180E+02 -0.58802881368E+02  0.71565196858E+02  0.00000000000E+00 0. -1.
        -11    1    3    3    0    0 -0.46046118648E+02  0.37114904826E+01 -0.11882688184E+03  0.12749058025E+03  0.00000000000E+00 0. -1.
         11    1    3    3    0    0 -0.40916558115E+01 -0.28441261497E+02  0.48929705730E+01  0.29147695687E+02  0.00000000000E+00 0.  1.
          1    1    1    2  501    0 -0.71108832505E+00  0.33512590624E+02 -0.29112066653E+00  0.33521398065E+02  0.00000000000E+00 0. -1.
<scales pt_clust_5="13000.00000" pt_clust_6="13000.00000" pt_clust_7="13000.00000" pt_clust_8="13000.00000" pt_clust_9="33.52015"></scales>
<clustering>
<clus scale="   33.520">  2  9  1 -1</clus>
<clus scale="   78.917">  5  6 -1 -1</clus>
<clus scale="   91.811">  7  8 -1 -1</clus>
<clus scale="   94.537">  2  5  1 -1</clus>
<clus scale="   33.520">  2  5  1 -1</clus>
</clustering>
</event>
<event>
 9    2  0.1488992E-004  0.1480052E+03  0.7546771E-02  0.1205214E+00
         21   -1    0    0  501  502  0.00000000000E+00  0.00000000000E+00  0.24117011982E+02  0.24117011982E+02  0.00000000000E+00 0. -1.
          2   -1    0    0  502    0 -0.00000000000E+00 -0.00000000000E+00 -0.16187416606E+04  0.16187416606E+04  0.00000000000E+00 0. -1.
         24    2    1    2    0    0 -0.96066482492E+02  0.48366542051E+02 -0.68922697040E+03  0.70215279216E+03  0.80103903515E+02 0.  0.
         23    2    1    2    0    0  0.75945814569E+02 -0.12556038975E+03 -0.55747651824E+03  0.58375649331E+03  0.91969543181E+02 0.  0.
        -13    1    3    3    0    0 -0.43370089445E+02  0.49745056480E+02 -0.21230065094E+03  0.22232206749E+03  0.00000000000E+00 0.  1.
         14    1    3    3    0    0 -0.52696393047E+02 -0.13785144290E+01 -0.47692631946E+03  0.47983072467E+03  0.00000000000E+00 0. -1.
        -13    1    4    4    0    0  0.72905748780E+02 -0.46504116278E+02 -0.37545779648E+03  0.38528747446E+03  0.00000000000E+00 0.  1.
         13    1    4    4    0    0  0.30400657889E+01 -0.79056273467E+02 -0.18201872176E+03  0.19846901885E+03  0.00000000000E+00 0. -1.
          1    1    1    2  501    0  0.20120667923E+02  0.77193847694E+02 -0.34792116002E+03  0.35694938716E+03  0.00000000000E+00 0. -1.
<scales pt_clust_5="13000.00000" pt_clust_6="13000.00000" pt_clust_7="13000.00000" pt_clust_8="13000.00000" pt_clust_9="79.77304"></scales>
<clustering>
<clus scale="   79.773">  1  9  2 -1</clus>
<clus scale="   80.104">  5  6 -1 -1</clus>
<clus scale="   91.970">  7  8 -1 -1</clus>
<clus scale="  140.939">  2  5  1 -1</clus>
<clus scale="   79.773">  1  5  2 -1</clus>
</clustering>
</event>
<event>
 9    2  0.1488992E-004  0.2728026E+03  0.7546771E-02  0.1099847E+00
         21   -1    0    0  501  502  0.00000000000E+00  0.00000000000E+00  0.20443144189E+03  0.20443144189E+03  0.00000000000E+00 0.  1.
          2   -1    0    0  502    0 -0.00000000000E+00 -0.00000000000E+00 -0.16435295190E+04  0.16435295190E+04  0.00000000000E+00 0. -1.
         24    2    1    2    0    0  0.32510188375E+03  0.34518565138E+02 -0.23963637459E+03  0.41424457408E+03  0.85382720539E+02 0.  0.
         23    2    1    2    0    0 -0.15681040085E+03 -0.91666276508E+02  0.18287307734E+02  0.20306593436E+03  0.88933345878E+02 0.  0.
        -11    1    3    3    0    0  0.26637499014E+03  0.80559204998E+01 -0.22357265156E+03  0.34785810865E+03  0.00000000000E+00 0.  1.
         12    1    3    3    0    0  0.58726893611E+02  0.26462644638E+02 -0.16063723034E+02  0.66386465429E+02  0.00000000000E+00 0. -1.
        -13    1    4    4    0    0 -0.63582028041E+02 -0.70825032462E+02  0.42925933305E+02  0.10441022586E+03  0.00000000000E+00 0.  1.
         13    1    4    4    0    0 -0.93228372812E+02 -0.20841244046E+02 -0.24638625571E+02  0.98655708505E+02  0.00000000000E+00 0. -1.
          1    1    1    2  501    0 -0.16829148290E+03  0.57147711370E+02 -0.12177490102E+04  0.12306504524E+04  0.00000000000E+00 0. -1.
<scales pt_clust_5="13000.00000" pt_clust_6="13000.00000" pt_clust_7="13000.00000" pt_clust_8="13000.00000" pt_clust_9="177.72990"></scales>
<clustering>
<clus scale="   85.383">  5  6 -1 -1</clus>
<clus scale="   88.933">  7  8 -1 -1</clus>
<clus scale="  177.730">  1  9  2 -1</clus>
<clus scale="  271.666">  2  5  1 -1</clus>
<clus scale="  177.730">  1  5  2 -1</clus>
</clustering>
</event>
<event>
 9    2  0.1488992E-004  0.1052773E+03  0.7546771E-02  0.1281205E+00
         21   -1    0    0  501  502  0.00000000000E+00  0.00000000000E+00  0.36257138758E+03  0.36257138758E+03  0.00000000000E+00 0. -1.
         -1   -1    0    0    0  501 -0.00000000000E+00 -0.00000000000E+00 -0.48667180175E+02  0.48667180175E+02  0.00000000000E+00 0.  1.
         23    2    1    2    0    0 -0.70505463935E+02 -0.37107651644E+01  0.74447648954E+02  0.13645022852E+03  0.89952332967E+02 0.  0.
         24    2    1    2    0    0  0.31443341918E+02 -0.33762585996E+02  0.11998924751E+03  0.14362988618E+03  0.64058791136E+02 0.  0.
        -11    1    4    4    0    0  0.40458365645E+02  0.44489335317E+00  0.83616692189E+02  0.92891487734E+02  0.00000000000E+00 0.  1.
         12    1    4    4    0    0 -0.90150237276E+01 -0.34207479349E+02  0.36372555321E+02  0.50738398446E+02  0.00000000000E+00 0. -1.
        -11    1    3    3    0    0  0.14993245854E+02  0.13424667735E+02  0.35803303444E+02  0.41071835393E+02  0.00000000000E+00 0.  1.
         11    1    3    3    0    0 -0.85498709788E+02 -0.17135432900E+02  0.38644345510E+02  0.95378393130E+02  0.00000000000E+00 0. -1.
         -2    1    1    2    0  502  0.39062122017E+02  0.37473351161E+02  0.11946731094E+03  0.13115845305E+03  0.00000000000E+00 0.  1.
<scales pt_clust_5="13000.00000" pt_clust_6="13000.00000" pt_clust_7="13000.00000" pt_clust_8="13000.00000" pt_clust_9="54.13041"></scales>
<clustering>
<clus scale="   54.130">  1  9  2 -1</clus>
<clus scale="   64.059">  5  6 -1 -1</clus>
<clus scale="   84.234">  1  5  2 -1</clus>
<clus scale="   89.952">  7  8 -1 -1</clus>
<clus scale="   54.130">  1  5  2 -1</clus>
</clustering>
</event>
<event>
 9    2  0.1488992E-004  0.1568032E+03  0.7546771E-02  0.1194560E+00
         21   -1    0    0  501  502  0.00000000000E+00  0.00000000000E+00  0.82819400091E+02  0.82819400091E+02  0.00000000000E+00 0. -1.
          2   -1    0    0  502    0 -0.00000000000E+00 -0.00000000000E+00 -0.46425605494E+03  0.46425605494E+03  0.00000000000E+00 0. -1.
         24    2    1    2    0    0 -0.40372514917E+02  0.10040721535E+03 -0.11555692978E+03  0.17667935661E+03  0.78426029958E+02 0.  0.
         23    2    1    2    0    0  0.14784762335E+02 -0.15750096486E+03 -0.14173807900E+03  0.23137963320E+03  0.91769867022E+02 0.  0.
        -13    1    3    3    0    0 -0.20317539648E+02 -0.91223228382E+01 -0.17938685174E+02  0.28597475712E+02  0.00000000000E+00 0.  1.
         14    1    3    3    0    0 -0.20054975269E+02  0.10952953819E+03 -0.97618244611E+02  0.14808188090E+03  0.00000000000E+00 0. -1.
        -11    1    4    4    0    0  0.40557945206E+02 -0.62444150175E+02 -0.99351896198E+02  0.12415723132E+03  0.00000000000E+00 0.  1.
         11    1    4    4    0    0 -0.25773182870E+02 -0.95056814682E+02 -0.42386182798E+02  0.10722240188E+03  0.00000000000E+00 0. -1.
          1    1    1    2  501    0  0.25587752581E+02  0.57093749507E+02 -0.12414164607E+03  0.13901646522E+03  0.00000000000E+00 0. -1.
<scales pt_clust_5="13000.00000" pt_clust_6="13000.00000" pt_clust_7="13000.00000" pt_clust_8="13000.00000" pt_clust_9="62.56543"></scales>
<clustering>
<clus scale="   62.565">  1  9  2 -1</clus>
<clus scale="   78.426">  5  6 -1 -1</clus>
<clus scale="   91.770">  7  8 -1 -1</clus>
<clus scale="  149.386">  2  5  1 -1</clus>
<clus scale="   62.565">  1  5  2 -1</clus>
</clustering>
</event>
<event>
 9    2  0.1488992E-004  0.1012624E+03  0.7546771E-02  0.1278198E+00
         21   -1    0    0  501  502  0.00000000000E+00  0.00000000000E+00  0.44413188170E+02  0.44413188170E+02  0.00000000000E+00 0.  1.
          2   -1    0    0  502    0 -0.00000000000E+00 -0.00000000000E+00 -0.58316739169E+03  0.58316739169E+03  0.00000000000E+00 0. -1.
         24    2    1    2    0    0  0.50138071181E+02  0.15003204374E+02 -0.36281883445E+03  0.37709668166E+03  0.88461733892E+02 0.  0.
         23    2    1    2    0    0 -0.28944601325E+02 -0.20028085557E+02 -0.24174093271E+02  0.97167566954E+02  0.87282501828E+02 0.  0.
        -13    1    3    3    0    0  0.29659927323E+00 -0.31814073696E+02 -0.79214338009E+02  0.85364715207E+02  0.00000000000E+00 0.  1.
         14    1    3    3    0    0  0.49841471908E+02  0.46817278070E+02 -0.28360449644E+03  0.29173196645E+03  0.00000000000E+00 0. -1.
        -13    1    4    4    0    0 -0.93662283369E+01 -0.53824670514E+02 -0.95516426923E+01  0.55462196741E+02  0.00000000000E+00 0.  1.
         13    1    4    4    0    0 -0.19578372988E+02  0.33796584957E+02 -0.14622450579E+02  0.41705370213E+02  0.00000000000E+00 0. -1.
          1    1    1    2  501    0 -0.21193469856E+02  0.50248811828E+01 -0.15176127579E+03  0.15331633124E+03  0.00000000000E+00 0. -1.
<scales pt_clust_5="13000.00000" pt_clust_6="13000.00000" pt_clust_7="13000.00000" pt_clust_8="13000.00000" pt_clust_9="21.78103"></scales>
<clustering>
<clus scale="   21.781">  1  9  2 -1</clus>
<clus scale="   87.283">  7  8 -1 -1</clus>
<clus scale="   88.462">  5  6 -1 -1</clus>
<clus scale="  100.234">  1  7  2 -1</clus>
<clus scale="   21.781">  1  5  2 -1</clus>
</clustering>
</event>
<event>
 9    2  0.1488992E-004  0.1302161E+03  0.7546771E-02  0.1235114E+00
          2   -1    0    0  502    0 -0.00000000000E+00  0.00000000000E+00  0.51701475129E+03  0.51701475129E+03  0.00000000000E+00 0. -1.
         21   -1    0    0  501  502  0.00000000000E+00 -0.00000000000E+00 -0.66110626324E+02  0.66110626324E+02  0.00000000000E+00 0.  1.
         24    2    1    2    0    0  0.68636909057E+02  0.52498972319E+01  0.78519949024E+02  0.13553350034E+03  0.86402318343E+02 0.  0.
         23    2    1    2    0    0  0.56017621477E+02 -0.40607904821E+02  0.14045305773E+03  0.18192105787E+03  0.92634950326E+02 0.  0.
        -11    1    3    3    0    0  0.51966753170E+02  0.24880277746E+02  0.52325800890E+01  0.57852843925E+02  0.00000000000E+00 0.  1.
         12    1    3    3    0    0  0.16670155886E+02 -0.19630380514E+02  0.73287368935E+02  0.77680656420E+02  0.00000000000E+00 0. -1.
        -13    1    4    4    0    0  0.41610713188E+02 -0.56728020490E+02  0.43785824074E+02  0.82865663279E+02  0.00000000000E+00 0.  1.
         13    1    4    4    0    0  0.14406908288E+02  0.16120115669E+02  0.96667233651E+02  0.99055394590E+02  0.00000000000E+00 0. -1.
          1    1    1    2  501    0 -0.12465453053E+03  0.35358007590E+02  0.23193111821E+03  0.26567081940E+03  0.00000000000E+00 0. -1.
<scales pt_clust_5="13000.00000" pt_clust_6="13000.00000" pt_clust_7="13000.00000" pt_clust_8="13000.00000" pt_clust_9="91.51512"></scales>
<clustering>
<clus scale="   86.402">  5  6 -1 -1</clus>
<clus scale="   92.635">  7  8 -1 -1</clus>
<clus scale="  110.472">  1  5  2 -1</clus>
<clus scale="   91.515">  2  9  1 -1</clus>
<clus scale="   91.515">  2  5  1 -1</clus>
</clustering>
</event>
<event>
 9    2  0.1488992E-004  0.1019761E+03  0.7546771E-02  0.1283304E+00
         21   -1    0    0  501  502  0.00000000000E+00  0.00000000000E+00  0.16000550645E+03  0.16000550645E+03  0.00000000000E+00 0.  1.
          2   -1    0    0  502    0 -0.00000000000E+00 -0.00000000000E+00 -0.42095865269E+03  0.42095865269E+03  0.00000000000E+00 0. -1.
         24    2    1    2    0    0 -0.25440667792E+02  0.32743964570E+02 -0.26978231654E+03  0.28430129918E+03  0.79531978496E+02 0.  0.
         23    2    1    2    0    0 -0.21775410988E+02 -0.31251169846E+02  0.13107976437E+03  0.16560259031E+03  0.93763047897E+02 0.  0.
        -13    1    3    3    0    0  0.10769976665E+02  0.41310078730E+02 -0.20669681262E+03  0.21105944032E+03  0.00000000000E+00 0.  1.
         14    1    3    3    0    0 -0.36210644458E+02 -0.85661141602E+01 -0.63085503921E+02  0.73241858857E+02  0.00000000000E+00 0. -1.
        -13    1    4    4    0    0  0.27018597206E+02 -0.61202977625E+01  0.50764148359E+01  0.28164385796E+02  0.00000000000E+00 0. -1.
         13    1    4    4    0    0 -0.48794008194E+02 -0.25130872083E+02  0.12600334954E+03  0.13743820452E+03  0.00000000000E+00 0.  1.
          1    1    1    2  501    0  0.47216078780E+02 -0.14927947238E+01 -0.12225059406E+03  0.13106026965E+03  0.00000000000E+00 0. -1.
<scales pt_clust_5="13000.00000" pt_clust_6="13000.00000" pt_clust_7="13000.00000" pt_clust_8="13000.00000" pt_clust_9="47.23969"></scales>
<clustering>
<clus scale="   47.240">  1  9  2 -1</clus>
<clus scale="   79.532">  5  6 -1 -1</clus>
<clus scale="   89.067">  2  5  1 -1</clus>
<clus scale="   93.763">  7  8 -1 -1</clus>
<clus scale="   47.240">  1  5  2 -1</clus>
</clustering>
</event>
<event>
 9    2  0.1488992E-004  0.1346264E+03  0.7546771E-02  0.1226179E+00
          2   -1    0    0  502    0 -0.00000000000E+00  0.00000000000E+00  0.75170184317E+03  0.75170184317E+03  0.00000000000E+00 0. -1.
         21   -1    0    0  501  502  0.00000000000E+00 -0.00000000000E+00 -0.34859495156E+03  0.34859495156E+03  0.00000000000E+00 0. -1.
         24    2    1    2    0    0  0.53752816176E+02 -0.63538132388E+02  0.54914252149E+03  0.56138872108E+03  0.81690438466E+02 0.  0.
         23    2    1    2    0    0 -0.50776878396E+02  0.10360184736E+03  0.16482999492E+03  0.22545728940E+03  0.10173705305E+03 0.  0.
        -13    1    3    3    0    0  0.27985797893E+02  0.11767850061E+02  0.80481542459E+02  0.86017241617E+02  0.00000000000E+00 0.  1.
         14    1    3    3    0    0  0.25767018282E+02 -0.75305982449E+02  0.46866097903E+03  0.47537147947E+03  0.00000000000E+00 0. -1.
        -11    1    4    4    0    0 -0.53087845960E+02  0.20940946475E+02  0.23510938443E+02  0.61722012722E+02  0.00000000000E+00 0.  1.
         11    1    4    4    0    0  0.23109675640E+01  0.82660900880E+02  0.14131905647E+03  0.16373527668E+03  0.00000000000E+00 0. -1.
          1    1    1    2  501    0 -0.29759377795E+01 -0.40063714968E+02 -0.31086562480E+03  0.31345078425E+03  0.00000000000E+00 0. -1.
<scales pt_clust_5="13000.00000" pt_clust_6="13000.00000" pt_clust_7="13000.00000" pt_clust_8="13000.00000" pt_clust_9="40.17409"></scales>
<clustering>
<clus scale="   40.174">  2  9  1 -1</clus>
<clus scale="   81.690">  5  6 -1 -1</clus>
<clus scale="  101.737">  7  8 -1 -1</clus>
<clus scale="  120.196">  1  5  2 -1</clus>
<clus scale="   40.174">  2  5  1 -1</clus>
</clustering>
</event>
<event>
 9    2  0.1488992E-004  0.1468822E+03  0.7546771E-02  0.1206462E+00
         21   -1    0    0  501  502  0.00000000000E+00  0.00000000000E+00  0.93974095158E+02  0.93974095158E+02  0.00000000000E+00 0. -1.
          2   -1    0    0  502    0 -0.00000000000E+00 -0.00000000000E+00 -0.37184080732E+03  0.37184080732E+03  0.00000000000E+00 0. -1.
         23    2    1    2    0    0  0.33104017713E+01  0.11856422143E+03 -0.10836957166E+03  0.18444083625E+03  0.90587110851E+02 0.  0.
         24    2    1    2    0    0 -0.38659204300E+02 -0.10809546856E+03 -0.37958354019E+02  0.14476665436E+03  0.79607682890E+02 0.  0.
        -11    1    4    4    0    0 -0.22103539471E+02  0.52390443524E+01  0.34450068369E+01  0.22975685299E+02  0.00000000000E+00 0.  1.
         12    1    4    4    0    0 -0.16555664830E+02 -0.11333451292E+03 -0.41403360856E+02  0.12179096907E+03  0.00000000000E+00 0. -1.
        -13    1    3    3    0    0  0.30687648425E+02  0.40489340822E+02 -0.35857393839E+01  0.50931090829E+02  0.00000000000E+00 0.  1.
         13    1    3    3    0    0 -0.27377246654E+02  0.78074880606E+02 -0.10478383228E+03  0.13350974542E+03  0.00000000000E+00 0. -1.
          1    1    1    2  501    0  0.35348802529E+02 -0.10468752865E+02 -0.13153878648E+03  0.13660741186E+03  0.00000000000E+00 0. -1.
<scales pt_clust_5="13000.00000" pt_clust_6="13000.00000" pt_clust_7="13000.00000" pt_clust_8="13000.00000" pt_clust_9="36.86643"></scales>
<clustering>
<clus scale="   36.866">  1  9  2 -1</clus>
<clus scale="   79.608">  5  6 -1 -1</clus>
<clus scale="   90.587">  7  8 -1 -1</clus>
<clus scale="  140.377">  1  5  2 -1</clus>
<clus scale="   36.866">  1  5  2 -1</clus>
</clustering>
</event>
<event>
 9    2  0.1488992E-004  0.2236650E+03  0.7546771E-02  0.1131180E+00
         21   -1    0    0  501  502  0.00000000000E+00  0.00000000000E+00  0.34919029651E+02  0.34919029651E+02  0.00000000000E+00 0.  1.
          4   -1    0    0  502    0 -0.00000000000E+00 -0.00000000000E+00 -0.11133199348E+04  0.11133199348E+04  0.00000000000E+00 0. -1.
         24    2    1    2    0    0  0.38564066306E+02  0.54721793720E+02 -0.13989660222E+03  0.17555643542E+03  0.82263848611E+02 0.  0.
         23    2    1    2    0    0  0.23930058464E+02  0.56884914306E+02 -0.26379317073E+03  0.28595355423E+03  0.91509874225E+02 0.  0.
        -11    1    3    3    0    0  0.30012331343E+02  0.12967210641E+02 -0.37665289636E+01  0.32910109767E+02  0.00000000000E+00 0.  1.
         12    1    3    3    0    0  0.85517349630E+01  0.41754583079E+02 -0.13613007325E+03  0.14264632566E+03  0.00000000000E+00 0. -1.
        -13    1    4    4    0    0 -0.43389964209E+01 -0.23289181073E+02 -0.39108646994E+02  0.45724163357E+02  0.00000000000E+00 0. -1.
         13    1    4    4    0    0  0.28269054885E+02  0.80174095379E+02 -0.22468452374E+03  0.24022939087E+03  0.00000000000E+00 0.  1.
          3    1    1    2  501    0 -0.62494124769E+02 -0.11160670803E+03 -0.67471113218E+03  0.68672897478E+03  0.00000000000E+00 0. -1.
<scales pt_clust_5="13000.00000" pt_clust_6="13000.00000" pt_clust_7="13000.00000" pt_clust_8="13000.00000" pt_clust_9="127.91243"></scales>
<clustering>
<clus scale="   82.264">  5  6 -1 -1</clus>
<clus scale="   91.510">  7  8 -1 -1</clus>
<clus scale="  102.961">  5  7 -1 -1</clus>
<clus scale="  127.912">  1  9  2 -1</clus>
<clus scale="  127.912">  1  5  2 -1</clus>
</clustering>
</event>
<event>
 9    2  0.1488992E-004  0.1303374E+03  0.7546771E-02  0.1229897E+00
         21   -1    0    0  501  502  0.00000000000E+00  0.00000000000E+00  0.39996819696E+02  0.39996819696E+02  0.00000000000E+00 0. -1.
          2   -1    0    0  502    0 -0.00000000000E+00 -0.00000000000E+00 -0.59112926137E+03  0.59112926137E+03  0.00000000000E+00 0. -1.
         23    2    1    2    0    0 -0.11624574722E+02 -0.81305533967E+02 -0.33372084990E+03  0.35592098932E+03  0.92544175340E+02 0.  0.
         24    2    1    2    0    0  0.10075338004E+02  0.11133983016E+03 -0.18550631534E+03  0.23135984404E+03  0.81343187710E+02 0.  0.
        -11    1    4    4    0    0 -0.30642128691E+02  0.21668221066E+02 -0.33893777483E+02  0.50569160631E+02  0.00000000000E+00 0.  1.
         12    1    4    4    0    0  0.40717466695E+02  0.89671609093E+02 -0.15161253786E+03  0.18079068341E+03  0.00000000000E+00 0. -1.
        -11    1    3    3    0    0  0.30661763047E+02 -0.42915931795E+02 -0.24346502357E+03  0.24911270264E+03  0.00000000000E+00 0.  1.
         11    1    3    3    0    0 -0.42286337768E+02 -0.38389602172E+02 -0.90255826327E+02  0.10680828668E+03  0.00000000000E+00 0. -1.
          1    1    1    2  501    0  0.15492367175E+01 -0.30034296193E+02 -0.31905276433E+02  0.43845247707E+02  0.00000000000E+00 0. -1.
<scales pt_clust_5="13000.00000" pt_clust_6="13000.00000" pt_clust_7="13000.00000" pt_clust_8="13000.00000" pt_clust_9="30.07423"></scales>
<clustering>
<clus scale="   30.074">  1  9  2 -1</clus>
<clus scale="   81.343">  5  6 -1 -1</clus>
<clus scale="   92.544">  7  8 -1 -1</clus>
<clus scale="  122.638">  1  5  2 -1</clus>
<clus scale="   30.074">  1  5  2 -1</clus>
</clustering>
</event>
<event>
 9    2  0.1488992E-004  0.2425991E+03  0.7546771E-02  0.1146019E+00
         21   -1    0    0  501  502  0.00000000000E+00  0.00000000000E+00  0.45956951012E+03  0.45956951012E+03  0.00000000000E+00 0. -1.
          4   -1    0    0  502    0 -0.00000000000E+00 -0.00000000000E+00 -0.28179372855E+03  0.28179372855E+03  0.00000000000E+00 0. -1.
         23    2    1    2    0    0 -0.30112438358E+02  0.69623260737E+02 -0.99526457893E+02  0.15777847226E+03  0.96095645632E+02 0.  0.
         24    2    1    2    0    0 -0.17493580206E+03 -0.15631633268E+03  0.26066560839E+03  0.36034219180E+03  0.82840841910E+02 0.  0.
        -13    1    4    4    0    0 -0.50922596660E+02 -0.14547069786E+02  0.98328230803E+02  0.11168334282E+03  0.00000000000E+00 0.  1.
         14    1    4    4    0    0 -0.12401320540E+03 -0.14176926290E+03  0.16233737759E+03  0.24865884899E+03  0.00000000000E+00 0. -1.
        -11    1    3    3    0    0  0.23888142379E+02  0.40755202370E+02 -0.83861305039E+01  0.47978714566E+02  0.00000000000E+00 0.  1.
         11    1    3    3    0    0 -0.54000580737E+02  0.28868058367E+02 -0.91140327389E+02  0.10979975770E+03  0.00000000000E+00 0. -1.
          3    1    1    2  501    0  0.20504824042E+03  0.86693071947E+02  0.16636631066E+02  0.22324257461E+03  0.00000000000E+00 0. -1.
<scales pt_clust_5="13000.00000" pt_clust_6="13000.00000" pt_clust_7="13000.00000" pt_clust_8="13000.00000" pt_clust_9="228.01708"></scales>
<clustering>
<clus scale="   82.841">  5  6 -1 -1</clus>
<clus scale="   96.096">  7  8 -1 -1</clus>
<clus scale="  122.428">  2  7  1 -1</clus>
<clus scale="  228.017">  1  9  2 -1</clus>
<clus scale="  228.017">  1  5  2 -1</clus>
</clustering>
</event>
<event>
 9    2  0.1488992E-004  0.2031326E+03  0.7546771E-02  0.1148094E+00
         -1   -1    0    0    0  501 -0.00000000000E+00  0.00000000000E+00  0.31907556657E+03  0.31907556657E+03  0.00000000000E+00 0.  1.
         21   -1    0    0  501  502  0.00000000000E+00 -0.00000000000E+00 -0.20533529580E+03  0.20533529580E+03  0.00000000000E+00 0. -1.
         23    2    1    2    0    0 -0.16785279962E+03  0.10053046497E+03  0.14860740424E+03  0.26238776803E+03  0.92099096049E+02 0.  0.
         24    2    1    2    0    0  0.13434283518E+03 -0.90411661157E+02  0.34362589370E+02  0.18444692254E+03  0.81348717557E+02 0.  0.
        -11    1    4    4    0    0  0.83519936995E+02 -0.21490888615E+02  0.46467246729E+02  0.97962458052E+02  0.00000000000E+00 0.  1.
         12    1    4    4    0    0  0.50822898189E+02 -0.68920772542E+02 -0.12104657359E+02  0.86484464489E+02  0.00000000000E+00 0. -1.
        -13    1    3    3    0    0 -0.18186838728E+02  0.56573937352E+02  0.30945622972E+02  0.67000022922E+02  0.00000000000E+00 0. -1.
         13    1    3    3    0    0 -0.14966596089E+03  0.43956527614E+02  0.11766178126E+03  0.19538774511E+03  0.00000000000E+00 0.  1.
         -2    1    1    2    0  502  0.33509964433E+02 -0.10118803809E+02 -0.69229722839E+02  0.77576171800E+02  0.00000000000E+00 0.  1.
<scales pt_clust_5="13000.00000" pt_clust_6="13000.00000" pt_clust_7="13000.00000" pt_clust_8="13000.00000" pt_clust_9="35.00440"></scales>
<clustering>
<clus scale="   35.004">  2  9  1 -1</clus>
<clus scale="   81.349">  5  6 -1 -1</clus>
<clus scale="   92.099">  7  8 -1 -1</clus>
<clus scale="  198.490">  2  5  1 -1</clus>
<clus scale="   35.004">  2  5  1 -1</clus>
</clustering>
</event>
<event>
 9    2  0.1488992E-004  0.9300252E+02  0.7546771E-02  0.1302634E+00
          2   -1    0    0  502    0 -0.00000000000E+00  0.00000000000E+00  0.85555184193E+03  0.85555184193E+03  0.00000000000E+00 0. -1.
         21   -1    0    0  501  502  0.00000000000E+00 -0.00000000000E+00 -0.17955425519E+02  0.17955425519E+02  0.00000000000E+00 0.  1.
         24    2    1    2    0    0 -0.36900218758E+01  0.30497241430E+01  0.44749273854E+03  0.45483180051E+03  0.81236067320E+02 0.  0.
         23    2    1    2    0    0  0.33857464020E+01  0.45343523083E+02  0.24732514112E+03  0.26791834598E+03  0.92428438916E+02 0.  0.
        -11    1    3    3    0    0  0.16462812394E+02  0.30182136599E+02  0.10092791177E+03  0.10662283497E+03  0.00000000000E+00 0.  1.
         12    1    3    3    0    0 -0.20152834270E+02 -0.27132412456E+02  0.34656482677E+03  0.34820896555E+03  0.00000000000E+00 0. -1.
        -11    1    4    4    0    0 -0.16776377852E+02  0.67515738329E+02  0.20142900396E+03  0.21310435334E+03  0.00000000000E+00 0.  1.
         11    1    4    4    0    0  0.20162124254E+02 -0.22172215247E+02  0.45896137160E+02  0.54813992644E+02  0.00000000000E+00 0. -1.
          1    1    1    2  501    0  0.30427547389E+00 -0.48393247226E+02  0.14277853675E+03  0.15075712095E+03  0.00000000000E+00 0. -1.
<scales pt_clust_5="13000.00000" pt_clust_6="13000.00000" pt_clust_7="13000.00000" pt_clust_8="13000.00000" pt_clust_9="48.39420"></scales>
<clustering>
<clus scale="   48.394">  2  9  1 -1</clus>
<clus scale="   81.236">  5  6 -1 -1</clus>
<clus scale="   81.889">  1  5  2 -1</clus>
<clus scale="   92.428">  7  8 -1 -1</clus>
<clus scale="   48.394">  2  5  1 -1</clus>
</clustering>
</event>
<event>
 9    2  0.1488992E-004  0.9662268E+02  0.7546771E-02  0.1294038E+00
         21   -1    0    0  501  502  0.00000000000E+00  0.00000000000E+00  0.10404690759E+03  0.10404690759E+03  0.00000000000E+00 0.  1.
         -1   -1    0    0    0  501 -0.00000000000E+00 -0.00000000000E+00 -0.57173781431E+03  0.57173781431E+03  0.00000000000E+00 0.  1.
         23    2    1    2    0    0 -0.30563385779E+02 -0.92918912949E+01 -0.44271913832E+03  0.45333470044E+03  0.92150178477E+02 0.  0.
         24    2    1    2    0    0  0.23778640074E+02 -0.98259006497E+01 -0.10790553700E+03  0.13707126111E+03  0.80516791170E+02 0.  0.
        -13    1    4    4    0    0 -0.21937519282E+02 -0.79909881787E+01 -0.80322445627E+02  0.83646912172E+02  0.00000000000E+00 0.  1.
         14    1    4    4    0    0  0.45716159356E+02 -0.18349124710E+01 -0.27583091374E+02  0.53424348941E+02  0.00000000000E+00 0. -1.
        -11    1    3    3    0    0  0.22935371251E+02  0.20903890962E+02 -0.87437454847E+02  0.92780991706E+02  0.00000000000E+00 0. -1.
         11    1    3    3    0    0 -0.53498757031E+02 -0.30195782257E+02 -0.35528168347E+03  0.36055370873E+03  0.00000000000E+00 0.  1.
         -2    1    1    2    0  502  0.67847457054E+01  0.19117791945E+02  0.82933768603E+02  0.85378760343E+02  0.00000000000E+00 0.  1.
<scales pt_clust_5="13000.00000" pt_clust_6="13000.00000" pt_clust_7="13000.00000" pt_clust_8="13000.00000" pt_clust_9="20.28602"></scales>
<clustering>
<clus scale="   20.286">  1  9  2 -1</clus>
<clus scale="   80.517">  5  6 -1 -1</clus>
<clus scale="   85.599">  1  5  2 -1</clus>
<clus scale="   92.150">  7  8 -1 -1</clus>
<clus scale="   20.286">  1  5  2 -1</clus>
</clustering>
</event>
<event>
 9    2  0.1488992E-004  0.1894667E+03  0.7546771E-02  0.1160296E+00
          2   -1    0    0  502    0 -0.00000000000E+00  0.00000000000E+00  0.96163780107E+03  0.96163780107E+03  0.00000000000E+00 0. -1.
         21   -1    0    0  501  502  0.00000000000E+00 -0.00000000000E+00 -0.97112514090E+02  0.97112514090E+02  0.00000000000E+00 0. -1.
         23    2    1    2    0    0  0.18016218458E+03 -0.66050205175E+01  0.75212453064E+03  0.77899984777E+03  0.92991473785E+02 0.  0.
         24    2    1    2    0    0 -0.91074071991E+02 -0.34579744527E+02 -0.54430199652E+01  0.12638804601E+03  0.80337204256E+02 0.  0.
        -11    1    4    4    0    0 -0.22046439567E+02 -0.13505584976E+02  0.35110009993E+02  0.43602283482E+02  0.00000000000E+00 0.  1.
         12    1    4    4    0    0 -0.69027632424E+02 -0.21074159551E+02 -0.40553029958E+02  0.82785762529E+02  0.00000000000E+00 0. -1.
        -13    1    3    3    0    0  0.14666337947E+03 -0.96575280261E+01  0.71019533647E+03  0.72524535894E+03  0.00000000000E+00 0. -1.
         13    1    3    3    0    0  0.33498805108E+02  0.30525075085E+01  0.41929194163E+02  0.53754488826E+02  0.00000000000E+00 0.  1.
          1    1    1    2  501    0 -0.89088112585E+02  0.41184765044E+02  0.11784377631E+03  0.15336242138E+03  0.00000000000E+00 0. -1.
<scales pt_clust_5="13000.00000" pt_clust_6="13000.00000" pt_clust_7="13000.00000" pt_clust_8="13000.00000" pt_clust_9="98.14722"></scales>
<clustering>
<clus scale="   80.337">  5  6 -1 -1</clus>
<clus scale="   92.991">  7  8 -1 -1</clus>
<clus scale="   98.147">  2  9  1 -1</clus>
<clus scale="  183.587">  2  5  1 -1</clus>
<clus scale="   98.147">  2  5  1 -1</clus>
</clustering>
</event>
<event>
 9    2  0.1488992E-004  0.1330568E+03  0.7546771E-02  0.1225111E+00
         21   -1    0    0  501  502  0.00000000000E+00  0.00000000000E+00  0.19003688301E+03  0.19003688301E+03  0.00000000000E+00 0. -1.
          2   -1    0    0  502    0 -0.00000000000E+00 -0.00000000000E+00 -0.16433114876E+03  0.16433114876E+03  0.00000000000E+00 0. -1.
         24    2    1    2    0    0  0.39362509724E+02 -0.80341323133E+02 -0.82477689525E+01  0.12065160077E+03  0.80527310278E+02 0.  0.
         23    2    1    2    0    0  0.57139285221E+01  0.11467757567E+03 -0.29704761619E+02  0.14849179722E+03  0.89352367838E+02 0.  0.
        -13    1    3    3    0    0 -0.24766926336E+02 -0.20341814415E+02 -0.70817373447E+01  0.32822874001E+02  0.00000000000E+00 0.  1.
         14    1    3    3    0    0  0.64129436061E+02 -0.59999508718E+02 -0.11660316078E+01  0.87828726767E+02  0.00000000000E+00 0. -1.
        -11    1    4    4    0    0  0.47399313911E+02  0.56372833497E+02 -0.18587225410E+02  0.75961018056E+02  0.00000000000E+00 0.  1.
         11    1    4    4    0    0 -0.41685385389E+02  0.58304742177E+02 -0.11117536210E+02  0.72530779168E+02  0.00000000000E+00 0. -1.
          1    1    1    2  501    0 -0.45076438246E+02 -0.34336252541E+02  0.63658264816E+02  0.85224633780E+02  0.00000000000E+00 0. -1.
<scales pt_clust_5="13000.00000" pt_clust_6="13000.00000" pt_clust_7="13000.00000" pt_clust_8="13000.00000" pt_clust_9="56.66448"></scales>
<clustering>
<clus scale="   56.664">  1  9  2 -1</clus>
<clus scale="   80.527">  5  6 -1 -1</clus>
<clus scale="   89.352">  7  8 -1 -1</clus>
<clus scale="  127.298">  2  5  1 -1</clus>
<clus scale="   56.664">  1  5  2 -1</clus>
</clustering>
</event>
<event>
 9    2  0.1488992E-004  0.1837384E+03  0.7546771E-02  0.1165449E+00
         21   -1    0    0  501  502  0.00000000000E+00  0.00000000000E+00  0.15608424667E+03  0.15608424667E+03  0.00000000000E+00 0.  1.
          2   -1    0    0  502    0 -0.00000000000E+00 -0.00000000000E+00 -0.41374472167E+03  0.41374472167E+03  0.00000000000E+00 0. -1.
         23    2    1    2    0    0  0.14797468057E+03  0.10962168914E+03 -0.13114918058E+03  0.24373305059E+03  0.91061910589E+02 0.  0.
         24    2    1    2    0    0 -0.15589600979E+03  0.14647144955E+02 -0.71006719457E+02  0.18976452583E+03  0.80315106496E+02 0.  0.
        -13    1    4    4    0    0 -0.92341665892E+02  0.90091192263E+01  0.20058249764E+01  0.92801782434E+02  0.00000000000E+00 0.  1.
         14    1    4    4    0    0 -0.63554343901E+02  0.56380257283E+01 -0.73012544433E+02  0.96962743398E+02  0.00000000000E+00 0. -1.
        -13    1    3    3    0    0  0.30345229065E+02 -0.14560417079E+02 -0.29524976473E+02  0.44772345351E+02  0.00000000000E+00 0.  1.
         13    1    3    3    0    0  0.11762945151E+03  0.12418210622E+03 -0.10162420411E+03  0.19896070524E+03  0.00000000000E+00 0. -1.
          1    1    1    2  501    0  0.79213292192E+01 -0.12426883409E+03 -0.55504574962E+02  0.13633139193E+03  0.00000000000E+00 0. -1.
<scales pt_clust_5="13000.00000" pt_clust_6="13000.00000" pt_clust_7="13000.00000" pt_clust_8="13000.00000" pt_clust_9="124.52104"></scales>
<clustering>
<clus scale="   80.315">  5  6 -1 -1</clus>
<clus scale="   91.062">  7  8 -1 -1</clus>
<clus scale="  124.521">  1  9  2 -1</clus>
<clus scale="  178.656">  1  5  2 -1</clus>
<clus scale="  124.521">  1  5  2 -1</clus>
</clustering>
</event>
<event>
 9    2  0.1488992E-004  0.1657184E+03  0.7546771E-02  0.1183953E+00
         21   -1    0    0  501  502  0.00000000000E+00  0.00000000000E+00  0.12503243707E+03  0.12503243707E+03  0.00000000000E+00 0.  1.
          4   -1    0    0  502    0 -0.00000000000E+00 -0.00000000000E+00 -0.32131243196E+03  0.32131243196E+03  0.00000000000E+00 0. -1.
         23    2    1    2    0    0 -0.10777454809E+03 -0.78634592335E+02 -0.16169592848E+03  0.22864501079E+03  0.91291923777E+02 0.  0.
         24    2    1    2    0    0  0.10802087394E+03  0.10016064933E+03 -0.65361225566E+02  0.18014103329E+03  0.80486254637E+02 0.  0.
        -11    1    4    4    0    0  0.85398976841E+02  0.25064947460E+02 -0.28268115817E+02  0.93382670815E+02  0.00000000000E+00 0.  1.
         12    1    4    4    0    0  0.22621897096E+02  0.75095701874E+02 -0.37093109749E+02  0.86758362473E+02  0.00000000000E+00 0. -1.
        -13    1    3    3    0    0 -0.21894554855E+02  0.15322239045E+02 -0.60122641191E+02  0.65794183067E+02  0.00000000000E+00 0. -1.
         13    1    3    3    0    0 -0.85879993234E+02 -0.93956831380E+02 -0.10157328728E+03  0.16285082772E+03  0.00000000000E+00 0.  1.
          3    1    1    2  501    0 -0.24632584788E+00 -0.21526056999E+02  0.30777159154E+02  0.37558824954E+02  0.00000000000E+00 0. -1.
<scales pt_clust_5="13000.00000" pt_clust_6="13000.00000" pt_clust_7="13000.00000" pt_clust_8="13000.00000" pt_clust_9="21.52747"></scales>
<clustering>
<clus scale="   21.527">  1  9  2 -1</clus>
<clus scale="   80.486">  5  6 -1 -1</clus>
<clus scale="   91.292">  7  8 -1 -1</clus>
<clus scale="  160.020">  1  5  2 -1</clus>
<clus scale="   21.527">  1  5  2 -1</clus>
</clustering>
</event>
<event>
 9    2  0.1488992E-004  0.9867753E+02  0.7546771E-02  0.1289589E+00
         21   -1    0    0  501  502  0.00000000000E+00  0.00000000000E+00  0.31667717124E+03  0.31667717124E+03  0.00000000000E+00 0. -1.
         -3   -1    0    0    0  501 -0.00000000000E+00 -0.00000000000E+00 -0.86539264905E+02  0.86539264905E+02  0.00000000000E+00 0.  1.
         23    2    1    2    0    0 -0.26519229980E+02 -0.35807148713E+02 -0.30462975852E+02  0.10666669609E+03  0.92002009211E+02 0.  0.
         24    2    1    2    0    0  0.51670548793E+01 -0.16343536070E+02  0.18577825259E+03  0.20287991992E+03  0.79705038385E+02 0.  0.
        -13    1    4    4    0    0  0.24096536386E+02  0.14365337014E+02  0.23367168213E+02  0.36510690539E+02  0.00000000000E+00 0.  1.
         14    1    4    4    0    0 -0.18929481507E+02 -0.30708873084E+02  0.16241108438E+03  0.16636922938E+03  0.00000000000E+00 0. -1.
        -11    1    3    3    0    0 -0.57551668773E+02 -0.34295974007E+02 -0.34464894477E+02  0.75340808086E+02  0.00000000000E+00 0.  1.
         11    1    3    3    0    0  0.31032438793E+02 -0.15111747061E+01  0.40019186249E+01  0.31325888002E+02  0.00000000000E+00 0. -1.
         -4    1    1    2    0  502  0.21352175101E+02  0.52150684783E+02  0.74822629597E+02  0.93669820138E+02  0.00000000000E+00 0.  1.
<scales pt_clust_5="13000.00000" pt_clust_6="13000.00000" pt_clust_7="13000.00000" pt_clust_8="13000.00000" pt_clust_9="56.35254"></scales>
<clustering>
<clus scale="   56.353">  1  9  2 -1</clus>
<clus scale="   79.705">  5  6 -1 -1</clus>
<clus scale="   87.326">  1  5  2 -1</clus>
<clus scale="   92.002">  7  8 -1 -1</clus>
<clus scale="   56.353">  1  5  2 -1</clus>
</clustering>
</event>
<event>
 9    2  0.1488992E-004  0.1430753E+03  0.7546771E-02  0.1228878E+00
         21   -1    0    0  501  502  0.00000000000E+00  0.00000000000E+00  0.13284659146E+03  0.13284659146E+03  0.00000000000E+00 0.  1.
         -3   -1    0    0    0  501 -0.00000000000E+00 -0.00000000000E+00 -0.41406589460E+03  0.41406589460E+03  0.00000000000E+00 0.  1.
         24    2    1    2    0    0 -0.26867034224E+02  0.42639467538E+02  0.54224230510E+02  0.10911308963E+03  0.80158826307E+02 0.  0.
         23    2    1    2    0    0  0.66486519595E+02  0.69225815048E+02 -0.27450799850E+03  0.30439518167E+03  0.89939505382E+02 0.  0.
        -13    1    3    3    0    0 -0.18944376269E+02  0.36567866166E+02 -0.11401338787E+02  0.42732759732E+02  0.00000000000E+00 0.  1.
         14    1    3    3    0    0 -0.79226579550E+01  0.60716013721E+01  0.65625569296E+02  0.66380329901E+02  0.00000000000E+00 0. -1.
        -13    1    4    4    0    0  0.82629799337E+02  0.32825090407E+02 -0.21639332240E+03  0.23394708863E+03  0.00000000000E+00 0.  1.
         13    1    4    4    0    0 -0.16143279742E+02  0.36400724641E+02 -0.58114676093E+02  0.70448093038E+02  0.00000000000E+00 0. -1.
         -4    1    1    2    0  502 -0.39619485371E+02 -0.11186528259E+03 -0.60935535150E+02  0.13340421475E+03  0.00000000000E+00 0.  1.
<scales pt_clust_5="13000.00000" pt_clust_6="13000.00000" pt_clust_7="13000.00000" pt_clust_8="13000.00000" pt_clust_9="111.27181"></scales>
<clustering>
<clus scale="   80.159">  5  6 -1 -1</clus>
<clus scale="   89.940">  7  8 -1 -1</clus>
<clus scale="   94.686">  2  5  1 -1</clus>
<clus scale="  111.272">  1  9  2 -1</clus>
<clus scale="  111.272">  1  5  2 -1</clus>
</clustering>
</event>
<event>
 9    2  0.1488992E-004  0.9237573E+02  0.7546771E-02  0.1303850E+00
         -1   -1    0    0    0  501 -0.00000000000E+00  0.00000000000E+00  0.60667831375E+02  0.60667831375E+02  0.00000000000E+00 0.  1.
         21   -1    0    0  501  502  0.00000000000E+00 -0.00000000000E+00 -0.42044222414E+03  0.42044222414E+03  0.00000000000E+00 0.  1.
         24    2    1    2    0    0 -0.11486408736E+02  0.14095836747E+02  0.19012010248E+02  0.83798034993E+02  0.79561447547E+02 0.  0.
         23    2    1    2    0    0  0.31755650901E+02 -0.30918437381E+01 -0.32304910102E+03  0.33699140320E+03  0.90468244717E+02 0.  0.
        -11    1    3    3    0    0  0.32145417211E+02  0.12479086176E+02  0.20490398183E+02  0.40111243525E+02  0.00000000000E+00 0.  1.
         12    1    3    3    0    0 -0.43631825947E+02  0.16167505708E+01 -0.14783879353E+01  0.43686791468E+02  0.00000000000E+00 0. -1.
        -11    1    4    4    0    0  0.40032716553E+01 -0.45265535770E+02 -0.15206806919E+03  0.15871261002E+03  0.00000000000E+00 0. -1.
         11    1    4    4    0    0  0.27752379246E+02  0.42173692032E+02 -0.17098103183E+03  0.17827879318E+03  0.00000000000E+00 0.  1.
         -2    1    1    2    0  502 -0.20269242166E+02 -0.11003993009E+02 -0.55737301992E+02  0.60320617316E+02  0.00000000000E+00 0.  1.
<scales pt_clust_5="13000.00000" pt_clust_6="13000.00000" pt_clust_7="13000.00000" pt_clust_8="13000.00000" pt_clust_9="23.06361"></scales>
<clustering>
<clus scale="   23.064">  2  9  1 -1</clus>
<clus scale="   79.561">  5  6 -1 -1</clus>
<clus scale="   81.724">  1  5  2 -1</clus>
<clus scale="   90.468">  7  8 -1 -1</clus>
<clus scale="   23.064">  2  5  1 -1</clus>
</clustering>
</event>
<event>
 9    2  0.1488992E-004  0.9561839E+02  0.7546771E-02  0.1294112E+00
         21   -1    0    0  501  502  0.00000000000E+00  0.00000000000E+00  0.10397648862E+03  0.10397648862E+03  0.00000000000E+00 0.  1.
          2   -1    0    0  502    0 -0.00000000000E+00 -0.00000000000E+00 -0.60927567336E+03  0.60927567336E+03  0.00000000000E+00 0. -1.
         24    2    1    2    0    0  0.28951343809E+02 -0.12863859061E+02 -0.33563759019E+03  0.34729270411E+03  0.83402465198E+02 0.  0.
         23    2    1    2    0    0  0.46973209672E+02  0.51466991896E+02  0.53839342216E+02  0.12677875543E+03  0.91207699111E+02 0.  0.
        -11    1    3    3    0    0  0.55462063034E+02  0.68829347737E+01 -0.22374045337E+03  0.23061484276E+03  0.00000000000E+00 0.  1.
         12    1    3    3    0    0 -0.26510719226E+02 -0.19746793835E+02 -0.11189713682E+03  0.11667786135E+03  0.00000000000E+00 0. -1.
        -13    1    4    4    0    0  0.32598979514E+02  0.77260645176E+02  0.30830814212E+02  0.89344501025E+02  0.00000000000E+00 0.  1.
         13    1    4    4    0    0  0.14374230159E+02 -0.25793653280E+02  0.23008528004E+02  0.37434254408E+02  0.00000000000E+00 0. -1.
          1    1    1    2  501    0 -0.75924553481E+02 -0.38603132835E+02 -0.22350093676E+03  0.23918070244E+03  0.00000000000E+00 0. -1.
<scales pt_clust_5="13000.00000" pt_clust_6="13000.00000" pt_clust_7="13000.00000" pt_clust_8="13000.00000" pt_clust_9="85.17480"></scales>
<clustering>
<clus scale="   83.402">  5  6 -1 -1</clus>
<clus scale="   85.175">  1  9  2 -1</clus>
<clus scale="   88.204">  2  5  1 -1</clus>
<clus scale="   91.208">  7  8 -1 -1</clus>
<clus scale="   85.175">  1  5  2 -1</clus>
</clustering>
</event>
<event>
 9    2  0.1488992E-004  0.1783364E+03  0.7546771E-02  0.1170689E+00
         21   -1    0    0  501  502  0.00000000000E+00  0.00000000000E+00  0.31289962060E+03  0.31289962060E+03  0.00000000000E+00 0. -1.
          2   -1    0    0  502    0 -0.00000000000E+00 -0.00000000000E+00 -0.54302732032E+03  0.54302732032E+03  0.00000000000E+00 0. -1.
         24    2    1    2    0    0 -0.11042919276E+03 -0.12039896823E+03 -0.45704166308E+03  0.49204511838E+03  0.80813356332E+02 0.  0.
         23    2    1    2    0    0  0.15745139634E+02  0.11539801735E+03  0.38357505221E+02  0.15282823378E+03  0.91217098192E+02 0.  0.
        -13    1    3    3    0    0 -0.88475548371E+01 -0.65357991350E+02 -0.14477203000E+03  0.15908767058E+03  0.00000000000E+00 0.  1.
         14    1    3    3    0    0 -0.10158163792E+03 -0.55040976878E+02 -0.31226963308E+03  0.33295744780E+03  0.00000000000E+00 0. -1.
        -11    1    4    4    0    0  0.35331126136E+02  0.12072071655E+03  0.41141143426E+02  0.13234188136E+03  0.00000000000E+00 0. -1.
         11    1    4    4    0    0 -0.19585986502E+02 -0.53226991968E+01 -0.27836382050E+01  0.20486352425E+02  0.00000000000E+00 0.  1.
          1    1    1    2  501    0  0.94684053127E+02  0.50009508748E+01  0.18855645814E+03  0.21105358877E+03  0.00000000000E+00 0. -1.
<scales pt_clust_5="13000.00000" pt_clust_6="13000.00000" pt_clust_7="13000.00000" pt_clust_8="13000.00000" pt_clust_9="94.81603"></scales>
<clustering>
<clus scale="   80.813">  5  6 -1 -1</clus>
<clus scale="   91.217">  7  8 -1 -1</clus>
<clus scale="   94.816">  1  9  2 -1</clus>
<clus scale="  173.246">  2  5  1 -1</clus>
<clus scale="   94.816">  1  5  2 -1</clus>
</clustering>
</event>
<event>
 9    2  0.1488992E-004  0.1063558E+03  0.7546771E-02  0.1272577E+00
          2   -1    0    0  502    0 -0.00000000000E+00  0.00000000000E+00  0.99368791122E+02  0.99368791122E+02  0.00000000000E+00 0. -1.
         21   -1    0    0  501  502  0.00000000000E+00 -0.00000000000E+00 -0.18575093088E+03  0.18575093088E+03  0.00000000000E+00 0. -1.
         23    2    1    2    0    0 -0.47627049555E+02  0.21093949752E+02  0.16562294235E+02  0.10659926448E+03  0.91519413417E+02 0.  0.
         24    2    1    2    0    0  0.33695147313E+02 -0.59011543572E+02 -0.82080545116E+02  0.13305460572E+03  0.79678020735E+02 0.  0.
        -13    1    4    4    0    0 -0.25633954507E+02 -0.13156649974E+02 -0.31015360688E+02  0.42333788643E+02  0.00000000000E+00 0.  1.
         14    1    4    4    0    0  0.59329101820E+02 -0.45854893597E+02 -0.51065184428E+02  0.90720817072E+02  0.00000000000E+00 0. -1.
        -13    1    3    3    0    0  0.25781987047E+02  0.16320795655E+02  0.12339323210E+02  0.32914102208E+02  0.00000000000E+00 0.  1.
         13    1    3    3    0    0 -0.73409036603E+02  0.47731540971E+01  0.42229710255E+01  0.73685162273E+02  0.00000000000E+00 0. -1.
          1    1    1    2  501    0  0.13931902242E+02  0.37917593820E+02 -0.20863888875E+02  0.45465851803E+02  0.00000000000E+00 0. -1.
<scales pt_clust_5="13000.00000" pt_clust_6="13000.00000" pt_clust_7="13000.00000" pt_clust_8="13000.00000" pt_clust_9="40.39606"></scales>
<clustering>
<clus scale="   40.396">  2  9  1 -1</clus>
<clus scale="   79.678">  5  6 -1 -1</clus>
<clus scale="   91.519">  7  8 -1 -1</clus>
<clus scale="   96.355">  2  5  1 -1</clus>
<clus scale="   40.396">  2  5  1 -1</clus>
</clustering>
</event>
<event>
 9    2  0.1488992E-004  0.1443594E+03  0.7546771E-02  0.1221811E+00
         21   -1    0    0  501  502  0.00000000000E+00  0.00000000000E+00  0.71208933636E+02  0.71208933636E+02  0.00000000000E+00 0.  1.
          2   -1    0    0  502    0 -0.00000000000E+00 -0.00000000000E+00 -0.52585273045E+03  0.52585273045E+03  0.00000000000E+00 0. -1.
         24    2    1    2    0    0  0.29490514199E+02 -0.42991609762E+02 -0.17819807105E+03  0.20774468499E+03  0.93195132268E+02 0.  0.
         23    2    1    2    0    0 -0.10805682350E+03 -0.38164752486E+02 -0.93518067764E+02  0.17432500680E+03  0.92253745498E+02 0.  0.
        -11    1    3    3    0    0 -0.25500659035E+02 -0.44143281451E+02 -0.98476214954E+02  0.11088948471E+03  0.00000000000E+00 0.  1.
         12    1    3    3    0    0  0.54991173234E+02  0.11516716887E+01 -0.79721856099E+02  0.96855200279E+02  0.00000000000E+00 0. -1.
        -11    1    4    4    0    0 -0.46092141762E+02 -0.33491688460E+02  0.56937354895E+01  0.57259037294E+02  0.00000000000E+00 0.  1.
         11    1    4    4    0    0 -0.61964681743E+02 -0.46730640266E+01 -0.99211803253E+02  0.11706596950E+03  0.00000000000E+00 0. -1.
          1    1    1    2  501    0  0.78566309306E+02  0.81156362249E+02 -0.18292765800E+03  0.21499197229E+03  0.00000000000E+00 0. -1.
<scales pt_clust_5="13000.00000" pt_clust_6="13000.00000" pt_clust_7="13000.00000" pt_clust_8="13000.00000" pt_clust_9="111.03557"></scales>
<clustering>
<clus scale="   92.254">  7  8 -1 -1</clus>
<clus scale="   93.195">  5  6 -1 -1</clus>
<clus scale="  106.786">  2  5  1 -1</clus>
<clus scale="  111.036">  1  9  2 -1</clus>
<clus scale="  111.036">  1  5  2 -1</clus>
</clustering>
</event>
<event>
 9    2  0.1488992E-004  0.1023505E+03  0.7546771E-02  0.1281070E+00
         -1   -1    0    0    0  501 -0.00000000000E+00  0.00000000000E+00  0.15775298381E+03  0.15775298381E+03  0.00000000000E+00 0.  1.
         21   -1    0    0  501  502  0.00000000000E+00 -0.00000000000E+00 -0.43113010562E+03  0.43113010562E+03  0.00000000000E+00 0.  1.
         23    2    1    2    0    0  0.40010077611E+02  0.28127300032E+02  0.11265026702E+03  0.15340896814E+03  0.91936268843E+02 0.  0.
         24    2    1    2    0    0  0.45155166625E+02 -0.60644081682E+02 -0.20150522562E+03  0.22966136990E+03  0.80145462490E+02 0.  0.
        -11    1    4    4    0    0  0.16984411469E+02  0.14767398497E+02 -0.16519485229E+02  0.27918447012E+02  0.00000000000E+00 0.  1.
         12    1    4    4    0    0  0.28170755156E+02 -0.75411480179E+02 -0.18498574039E+03  0.20174292289E+03  0.00000000000E+00 0. -1.
        -13    1    3    3    0    0  0.65559769714E+02  0.71364510435E+01  0.50690294050E+02  0.83177630703E+02  0.00000000000E+00 0.  1.
         13    1    3    3    0    0 -0.25549692103E+02  0.20990848989E+02  0.61959972974E+02  0.70231337441E+02  0.00000000000E+00 0. -1.
         -2    1    1    2    0  502 -0.85165244236E+02  0.32516781650E+02 -0.18452216322E+03  0.20581275139E+03  0.00000000000E+00 0.  1.
<scales pt_clust_5="13000.00000" pt_clust_6="13000.00000" pt_clust_7="13000.00000" pt_clust_8="13000.00000" pt_clust_9="91.16172"></scales>
<clustering>
<clus scale="   80.145">  5  6 -1 -1</clus>
<clus scale="   91.162">  2  9  1 -1</clus>
<clus scale="   91.906">  2  5  1 -1</clus>
<clus scale="   91.936">  7  8 -1 -1</clus>
<clus scale="   91.162">  2  5  1 -1</clus>
</clustering>
</event>
<event>
 9    2  0.1488992E-004  0.1327097E+03  0.7546771E-02  0.1226784E+00
         21   -1    0    0  501  502  0.00000000000E+00  0.00000000000E+00  0.80698867659E+03  0.80698867659E+03  0.00000000000E+00 0.  1.
         -3   -1    0    0    0  501 -0.00000000000E+00 -0.00000000000E+00 -0.28858192399E+02  0.28858192399E+02  0.00000000000E+00 0.  1.
         23    2    1    2    0    0  0.20409788641E+02  0.97916431067E+02  0.23582254038E+03  0.27240817732E+03  0.92680945054E+02 0.  0.
         24    2    1    2    0    0 -0.42992587466E+02 -0.78729280407E+02  0.38076267338E+03  0.39919800258E+03  0.79574931057E+02 0.  0.
        -11    1    4    4    0    0 -0.63364676501E+02 -0.72918702088E+02  0.33707767087E+03  0.35064736637E+03  0.00000000000E+00 0.  1.
         12    1    4    4    0    0  0.20372089035E+02 -0.58105783188E+01  0.43685002505E+02  0.48550636205E+02  0.00000000000E+00 0. -1.
        -13    1    3    3    0    0 -0.22934530546E+02  0.58990990204E+02  0.18348255721E+03  0.19409219051E+03  0.00000000000E+00 0. -1.
         13    1    3    3    0    0  0.43344319187E+02  0.38925440863E+02  0.52339983166E+02  0.78315986810E+02  0.00000000000E+00 0.  1.
         -4    1    1    2    0  502  0.22582798825E+02 -0.19187150660E+02  0.16154527043E+03  0.16424068909E+03  0.00000000000E+00 0.  1.
<scales pt_clust_5="13000.00000" pt_clust_6="13000.00000" pt_clust_7="13000.00000" pt_clust_8="13000.00000" pt_clust_9="29.63325"></scales>
<clustering>
<clus scale="   29.633">  1  9  2 -1</clus>
<clus scale="   79.575">  5  6 -1 -1</clus>
<clus scale="   92.681">  7  8 -1 -1</clus>
<clus scale="  123.912">  1  5  2 -1</clus>
<clus scale="   29.633">  1  5  2 -1</clus>
</clustering>
</event>
<event>
 9    2  0.1777630E-004  0.1138100E+03  0.7546771E-02  0.1260035E+00
         21   -1    0    0  501  502  0.00000000000E+00  0.00000000000E+00  0.88562688512E+03  0.88562688512E+03  0.00000000000E+00 0.  1.
          2   -1    0    0  502    0 -0.00000000000E+00 -0.00000000000E+00 -0.14399546163E+03  0.14399546163E+03  0.00000000000E+00 0. -1.
         23    2    1    2    0    0  0.19072771688E+02 -0.53520366694E+02 -0.11231542326E+03  0.15945483156E+03  0.97892230199E+02 0.  0.
         24    2    1    2    0    0 -0.55540703628E+02  0.73420538032E+02  0.56718451766E+03  0.58041147943E+03  0.81877122627E+02 0.  0.
        -13    1    4    4    0    0 -0.60238777539E+02  0.87688828377E+02  0.45771062821E+03  0.46991175780E+03  0.00000000000E+00 0.  1.
         14    1    4    4    0    0  0.46980739113E+01 -0.14268290345E+02  0.10947388945E+03  0.11049972162E+03  0.00000000000E+00 0. -1.
        -13    1    3    3    0    0  0.22993213801E+02  0.23973047669E+02 -0.19653270403E+02  0.38595931560E+02  0.00000000000E+00 0.  1.
         13    1    3    3    0    0 -0.39204421123E+01 -0.77493414363E+02 -0.92662152858E+02  0.12085890000E+03  0.00000000000E+00 0. -1.
          1    1    1    2  501    0  0.36467931939E+02 -0.19900171338E+02  0.28676232909E+03  0.28975603577E+03  0.00000000000E+00 0. -1.
<scales pt_clust_5="13000.00000" pt_clust_6="13000.00000" pt_clust_7="13000.00000" pt_clust_8="13000.00000" pt_clust_9="41.54428"></scales>
<clustering>
<clus scale="   41.544">  1  9  2 -1</clus>
<clus scale="   81.877">  5  6 -1 -1</clus>
<clus scale="   97.892">  7  8 -1 -1</clus>
<clus scale="  100.368">  1  5  2 -1</clus>
<clus scale="   41.544">  1  5  2 -1</clus>
</clustering>
</event>
<event>
 9    2  0.1488992E-004  0.2347168E+03  0.7546771E-02  0.1165222E+00
          2   -1    0    0  502    0 -0.00000000000E+00  0.00000000000E+00  0.95728961253E+02  0.95728961253E+02  0.00000000000E+00 0. -1.
         21   -1    0    0  501  502  0.00000000000E+00 -0.00000000000E+00 -0.87844368200E+03  0.87844368200E+03  0.00000000000E+00 0. -1.
         24    2    1    2    0    0  0.28504204459E+02 -0.12221099454E+02 -0.16147020013E+03  0.18301434955E+03  0.80372766941E+02 0.  0.
         23    2    1    2    0    0 -0.22794723200E+03 -0.51529982122E+02 -0.20037842249E+03  0.32108383770E+03  0.91258090046E+02 0.  0.
        -13    1    3    3    0    0  0.29568852342E+02 -0.28653231826E+02 -0.16137765099E+03  0.16654750362E+03  0.00000000000E+00 0.  1.
         14    1    3    3    0    0 -0.10646478832E+01  0.16432132371E+02 -0.92549139921E-01  0.16466845925E+02  0.00000000000E+00 0. -1.
        -13    1    4    4    0    0 -0.17222399348E+03 -0.39593420764E+02 -0.19603842176E+03  0.26393144130E+03  0.00000000000E+00 0. -1.
         13    1    4    4    0    0 -0.55723238521E+02 -0.11936561358E+02 -0.43400007260E+01  0.57152396403E+02  0.00000000000E+00 0.  1.
          1    1    1    2  501    0  0.19944302754E+03  0.63751081577E+02 -0.42086609812E+03  0.47007445600E+03  0.00000000000E+00 0. -1.
<scales pt_clust_5="13000.00000" pt_clust_6="13000.00000" pt_clust_7="13000.00000" pt_clust_8="13000.00000" pt_clust_9="216.24972"></scales>
<clustering>
<clus scale="   80.373">  5  6 -1 -1</clus>
<clus scale="   86.149">  1  5  2 -1</clus>
<clus scale="   91.258">  7  8 -1 -1</clus>
<clus scale="  216.250">  2  9  1 -1</clus>
<clus scale="  216.250">  2  5  1 -1</clus>
</clustering>
</event>
<event>
 9    2  0.1488992E-004  0.1325237E+03  0.7546771E-02  0.1225069E+00
          4   -1    0    0  502    0 -0.00000000000E+00  0.00000000000E+00  0.92709255497E+03  0.92709255497E+03  0.00000000000E+00 0. -1.
         21   -1    0    0  501  502  0.00000000000E+00 -0.00000000000E+00 -0.33530466224E+02  0.33530466224E+02  0.00000000000E+00 0. -1.
         24    2    1    2    0    0  0.92268650808E+02  0.23548845638E+02  0.61990847781E+03  0.63288391117E+03  0.84778960246E+02 0.  0.
         23    2    1    2    0    0 -0.92171586007E+02 -0.56525185867E+02  0.18032605021E+03  0.22875687916E+03  0.90119517718E+02 0.  0.
        -13    1    3    3    0    0  0.71488212185E+02  0.54680070389E+02  0.44689156248E+03  0.45586461059E+03  0.00000000000E+00 0.  1.
         14    1    3    3    0    0  0.20780438623E+02 -0.31131224751E+02  0.17301691534E+03  0.17701930058E+03  0.00000000000E+00 0. -1.
        -11    1    4    4    0    0 -0.47421720174E+02  0.13893710707E+02  0.10626828848E+03  0.11719557960E+03  0.00000000000E+00 0.  1.
         11    1    4    4    0    0 -0.44749865833E+02 -0.70418896574E+02  0.74057761733E+02  0.11156129956E+03  0.00000000000E+00 0. -1.
          3    1    1    2  501    0 -0.97064801090E-01  0.32976340229E+02  0.93327560721E+02  0.98982230863E+02  0.00000000000E+00 0. -1.
<scales pt_clust_5="13000.00000" pt_clust_6="13000.00000" pt_clust_7="13000.00000" pt_clust_8="13000.00000" pt_clust_9="32.97650"></scales>
<clustering>
<clus scale="   32.976">  2  9  1 -1</clus>
<clus scale="   84.779">  5  6 -1 -1</clus>
<clus scale="   90.120">  7  8 -1 -1</clus>
<clus scale="  128.951">  1  5  2 -1</clus>
<clus scale="   32.976">  2  5  1 -1</clus>
</clustering>
</event>
<event>
 9    2  0.1488992E-004  0.1723004E+03  0.7546771E-02  0.1183630E+00
         21   -1    0    0  501  502  0.00000000000E+00  0.00000000000E+00  0.52650088262E+02  0.52650088262E+02  0.00000000000E+00 0. -1.
          2   -1    0    0  502    0 -0.00000000000E+00 -0.00000000000E+00 -0.13663300044E+04  0.13663300044E+04  0.00000000000E+00 0. -1.
         23    2    1    2    0    0 -0.95940209951E+02 -0.54733182517E+02 -0.29805815083E+03  0.33076159618E+03  0.91456695098E+02 0.  0.
         24    2    1    2    0    0  0.11940942221E+03 -0.10208391278E+03 -0.80656576418E+03  0.82583172680E+03  0.82279849781E+02 0.  0.
        -11    1    4    4    0    0  0.21387460757E+02 -0.34692452504E+02 -0.82034132695E+02  0.91600156470E+02  0.00000000000E+00 0.  1.
         12    1    4    4    0    0  0.98021961456E+02 -0.67391460274E+02 -0.72453163148E+03  0.73423157033E+03  0.00000000000E+00 0. -1.
        -11    1    3    3    0    0 -0.33927791288E+02  0.25091678352E+02 -0.94143771962E+02  0.10316848910E+03  0.00000000000E+00 0.  1.
         11    1    3    3    0    0 -0.62012418663E+02 -0.79824860869E+02 -0.20391437887E+03  0.22759310708E+03  0.00000000000E+00 0. -1.
          1    1    1    2  501    0 -0.23469212262E+02  0.15681709530E+03 -0.20905600117E+03  0.26238676972E+03  0.00000000000E+00 0. -1.
<scales pt_clust_5="13000.00000" pt_clust_6="13000.00000" pt_clust_7="13000.00000" pt_clust_8="13000.00000" pt_clust_9="151.38510"></scales>
<clustering>
<clus scale="   82.280">  5  6 -1 -1</clus>
<clus scale="   91.457">  7  8 -1 -1</clus>
<clus scale="  143.404">  2  7  1 -1</clus>
<clus scale="  151.385">  1  9  2 -1</clus>
<clus scale="  151.385">  1  5  2 -1</clus>
</clustering>
</event>
<event>
 9    2  0.1488992E-004  0.1034488E+03  0.7546771E-02  0.1274864E+00
         -1   -1    0    0    0  501 -0.00000000000E+00  0.00000000000E+00  0.13031047045E+03  0.13031047045E+03  0.00000000000E+00 0.  1.
         21   -1    0    0  501  502  0.00000000000E+00 -0.00000000000E+00 -0.17060650993E+03  0.17060650993E+03  0.00000000000E+00 0.  1.
         23    2    1    2    0    0  0.64291505668E+02  0.26807647252E+02 -0.18109201378E+02  0.11503147842E+03  0.89734331231E+02 0.  0.
         24    2    1    2    0    0 -0.34852810730E+02  0.29072816328E+02 -0.58071622837E+02  0.11324267200E+03  0.85974660906E+02 0.  0.
        -13    1    4    4    0    0  0.14979837590E+02  0.42842381271E+02 -0.24192424098E+02  0.51430910462E+02  0.00000000000E+00 0.  1.
         14    1    4    4    0    0 -0.49832648320E+02 -0.13769564943E+02 -0.33879198739E+02  0.61811761539E+02  0.00000000000E+00 0. -1.
        -11    1    3    3    0    0  0.18360623036E+02  0.39231235233E+02  0.25689843075E+02  0.50360404421E+02  0.00000000000E+00 0. -1.
         11    1    3    3    0    0  0.45930882632E+02 -0.12423587981E+02 -0.43799044453E+02  0.64671074003E+02  0.00000000000E+00 0.  1.
         -2    1    1    2    0  502 -0.29438694938E+02 -0.55880463580E+02  0.35884784733E+02  0.72642829962E+02  0.00000000000E+00 0.  1.
<scales pt_clust_5="13000.00000" pt_clust_6="13000.00000" pt_clust_7="13000.00000" pt_clust_8="13000.00000" pt_clust_9="63.16064"></scales>
<clustering>
<clus scale="   63.161">  2  9  1 -1</clus>
<clus scale="   85.975">  5  6 -1 -1</clus>
<clus scale="   89.734">  7  8 -1 -1</clus>
<clus scale="  100.205">  2  5  1 -1</clus>
<clus scale="   63.161">  2  5  1 -1</clus>
</clustering>
</event>
<event>
 9    2  0.1488992E-004  0.2212055E+03  0.7546771E-02  0.1159746E+00
         21   -1    0    0  501  502  0.00000000000E+00  0.00000000000E+00  0.14015472889E+03  0.14015472889E+03  0.00000000000E+00 0.  1.
          2   -1    0    0  502    0 -0.00000000000E+00 -0.00000000000E+00 -0.69921332539E+03  0.69921332539E+03  0.00000000000E+00 0. -1.
         23    2    1    2    0    0 -0.74127553048E+02  0.13957666494E+02 -0.11525834014E+03  0.16412800943E+03  0.89240169952E+02 0.  0.
         24    2    1    2    0    0  0.15946140851E+03  0.14663634046E+03 -0.43032307806E+02  0.23514090767E+03  0.80680293741E+02 0.  0.
        -11    1    4    4    0    0  0.14399460329E+03  0.11405598272E+03 -0.65038428817E+01  0.18380835929E+03  0.00000000000E+00 0.  1.
         12    1    4    4    0    0  0.15466805221E+02  0.32580357738E+02 -0.36528464924E+02  0.51332548386E+02  0.00000000000E+00 0. -1.
        -11    1    3    3    0    0 -0.28418568346E+02  0.18186961613E+01  0.10045216663E+02  0.30196507421E+02  0.00000000000E+00 0.  1.
         11    1    3    3    0    0 -0.45708984702E+02  0.12138970333E+02 -0.12530355680E+03  0.13393150201E+03  0.00000000000E+00 0. -1.
          1    1    1    2  501    0 -0.85333855463E+02 -0.16059400695E+03 -0.40076794856E+03  0.44009913718E+03  0.00000000000E+00 0. -1.
<scales pt_clust_5="13000.00000" pt_clust_6="13000.00000" pt_clust_7="13000.00000" pt_clust_8="13000.00000" pt_clust_9="205.96750"></scales>
<clustering>
<clus scale="   80.680">  5  6 -1 -1</clus>
<clus scale="   89.240">  7  8 -1 -1</clus>
<clus scale="  116.848">  2  7  1 -1</clus>
<clus scale="  205.968">  1  9  2 -1</clus>
<clus scale="  205.968">  1  5  2 -1</clus>
</clustering>
</event>
<event>
 9    2  0.1488992E-004  0.1529746E+03  0.7546771E-02  0.1198573E+00
         21   -1    0    0  501  502  0.00000000000E+00  0.00000000000E+00  0.35434115438E+02  0.35434115438E+02  0.00000000000E+00 0. -1.
          2   -1    0    0  502    0 -0.00000000000E+00 -0.00000000000E+00 -0.12186548703E+04  0.12186548703E+04  0.00000000000E+00 0. -1.
         23    2    1    2    0    0 -0.96783023389E+02  0.28802155150E+02 -0.39031303160E+03  0.41301899172E+03  0.89687831538E+02 0.  0.
         24    2    1    2    0    0  0.10670908278E+03 -0.12346717331E+03 -0.58179341786E+03  0.60949011090E+03  0.79772445065E+02 0.  0.
        -11    1    4    4    0    0  0.22384838380E+02 -0.13482360972E+02 -0.26709235424E+02  0.37366272273E+02  0.00000000000E+00 0.  1.
         12    1    4    4    0    0  0.84324244395E+02 -0.10998481234E+03 -0.55508418244E+03  0.57212383863E+03  0.00000000000E+00 0. -1.
        -11    1    3    3    0    0  0.13183082831E+02  0.20945857594E+02 -0.76495199521E+02  0.80399242366E+02  0.00000000000E+00 0.  1.
         11    1    3    3    0    0 -0.10996610622E+03  0.78562975555E+01 -0.31381783208E+03  0.33261974935E+03  0.00000000000E+00 0. -1.
          1    1    1    2  501    0 -0.99260593865E+01  0.94665018159E+02 -0.21111430539E+03  0.23157988310E+03  0.00000000000E+00 0. -1.
<scales pt_clust_5="13000.00000" pt_clust_6="13000.00000" pt_clust_7="13000.00000" pt_clust_8="13000.00000" pt_clust_9="95.18399"></scales>
<clustering>
<clus scale="   79.772">  5  6 -1 -1</clus>
<clus scale="   89.688">  7  8 -1 -1</clus>
<clus scale="   95.184">  1  9  2 -1</clus>
<clus scale="  147.380">  1  5  2 -1</clus>
<clus scale="   95.184">  1  5  2 -1</clus>
</clustering>
</event>
<event>
 9    2  0.1488992E-004  0.2267373E+03  0.7546771E-02  0.1129169E+00
         21   -1    0    0  501  502  0.00000000000E+00  0.00000000000E+00  0.26332644775E+03  0.26332644775E+03  0.00000000000E+00 0. -1.
          4   -1    0    0  502    0 -0.00000000000E+00 -0.00000000000E+00 -0.34172337861E+03  0.34172337861E+03  0.00000000000E+00 0. -1.
         23    2    1    2    0    0  0.92254197858E+02  0.18969929296E+03 -0.17085674478E+03  0.28669914832E+03  0.92237279019E+02 0.  0.
         24    2    1    2    0    0 -0.79832955030E+02 -0.17017540956E+03  0.14849464630E+03  0.25772583382E+03  0.95073522644E+02 0.  0.
        -13    1    4    4    0    0  0.12925383645E+02 -0.64023396220E+02  0.23785439091E+02  0.69511207144E+02  0.00000000000E+00 0.  1.
         14    1    4    4    0    0 -0.92758338675E+02 -0.10615201334E+03  0.12470920721E+03  0.18821462667E+03  0.00000000000E+00 0. -1.
        -13    1    3    3    0    0  0.93198125301E+02  0.87388177679E+02 -0.89696723930E+02  0.15610280728E+03  0.00000000000E+00 0. -1.
         13    1    3    3    0    0 -0.94392744266E+00  0.10231111528E+03 -0.81160020847E+02  0.13059634104E+03  0.00000000000E+00 0.  1.
          3    1    1    2  501    0 -0.12421242828E+02 -0.19523883401E+02 -0.56034832385E+02  0.60624844221E+02  0.00000000000E+00 0. -1.
<scales pt_clust_5="13000.00000" pt_clust_6="13000.00000" pt_clust_7="13000.00000" pt_clust_8="13000.00000" pt_clust_9="23.14022"></scales>
<clustering>
<clus scale="   23.140">  1  9  2 -1</clus>
<clus scale="   92.237">  7  8 -1 -1</clus>
<clus scale="   95.074">  5  6 -1 -1</clus>
<clus scale="  225.563">  2  7  1 -1</clus>
<clus scale="   23.140">  1  5  2 -1</clus>
</clustering>
</event>
<event>
 9    2  0.1488992E-004  0.1172781E+03  0.7546771E-02  0.1250795E+00
         21   -1    0    0  501  502  0.00000000000E+00  0.00000000000E+00  0.54681030547E+03  0.54681030547E+03  0.00000000000E+00 0. -1.
         -1   -1    0    0    0  501 -0.00000000000E+00 -0.00000000000E+00 -0.67250465554E+02  0.67250465554E+02  0.00000000000E+00 0.  1.
         23    2    1    2    0    0 -0.56109184062E+02  0.57490095714E+02  0.50594326705E+02  0.13120237493E+03  0.90558962294E+02 0.  0.
         24    2    1    2    0    0  0.13284499161E+02 -0.51244066204E+02  0.42877817298E+03  0.43958020738E+03  0.81102434341E+02 0.  0.
        -11    1    4    4    0    0  0.20820970266E+02 -0.23450531792E+02  0.45722168841E+02  0.55443277029E+02  0.00000000000E+00 0.  1.
         12    1    4    4    0    0 -0.75364711053E+01 -0.27793534412E+02  0.38305600414E+03  0.38413693035E+03  0.00000000000E+00 0. -1.
        -13    1    3    3    0    0  0.28571660493E+01  0.60516916071E+02  0.35655856107E+02  0.70297941672E+02  0.00000000000E+00 0.  1.
         13    1    3    3    0    0 -0.58966350111E+02 -0.30268203571E+01  0.14938470598E+02  0.60904433260E+02  0.00000000000E+00 0. -1.
         -2    1    1    2    0  502  0.42824684901E+02 -0.62460295100E+01  0.18734022672E+00  0.43278188708E+02  0.00000000000E+00 0.  1.
<scales pt_clust_5="13000.00000" pt_clust_6="13000.00000" pt_clust_7="13000.00000" pt_clust_8="13000.00000" pt_clust_9="43.27780"></scales>
<clustering>
<clus scale="   43.278">  1  9  2 -1</clus>
<clus scale="   81.102">  5  6 -1 -1</clus>
<clus scale="   90.559">  7  8 -1 -1</clus>
<clus scale="  110.140">  1  5  2 -1</clus>
<clus scale="   43.278">  1  5  2 -1</clus>
</clustering>
</event>
<event>
 9    2  0.1488992E-004  0.2922792E+03  0.7546771E-02  0.1089165E+00
         -1   -1    0    0    0  501 -0.00000000000E+00  0.00000000000E+00  0.97758287726E+02  0.97758287726E+02  0.00000000000E+00 0.  1.
         21   -1    0    0  501  502  0.00000000000E+00 -0.00000000000E+00 -0.69897737040E+03  0.69897737040E+03  0.00000000000E+00 0. -1.
         24    2    1    2    0    0  0.35924804017E+01 -0.69535876234E+02 -0.19186056166E+03  0.22619177473E+03  0.97488972890E+02 0.  0.
         23    2    1    2    0    0 -0.31301669493E+02 -0.14182928056E+03 -0.25333037536E+03  0.30637005634E+03  0.92687609776E+02 0.  0.
        -13    1    3    3    0    0 -0.71284966926E+01 -0.42382076519E+02 -0.12908543357E+02  0.44874116891E+02  0.00000000000E+00 0.  1.
         14    1    3    3    0    0  0.10720977094E+02 -0.27153799716E+02 -0.17895201831E+03  0.18131765784E+03  0.00000000000E+00 0. -1.
        -11    1    4    4    0    0  0.76102815817E-01 -0.14089265881E+03 -0.20571814938E+03  0.24934053839E+03  0.00000000000E+00 0.  1.
         11    1    4    4    0    0 -0.31377772309E+02 -0.93662174618E+00 -0.47612225979E+02  0.57029517953E+02  0.00000000000E+00 0. -1.
         -2    1    1    2    0  502  0.27709189091E+02  0.21136515679E+03 -0.15602814566E+03  0.26417382706E+03  0.00000000000E+00 0.  1.
<scales pt_clust_5="13000.00000" pt_clust_6="13000.00000" pt_clust_7="13000.00000" pt_clust_8="13000.00000" pt_clust_9="213.17381"></scales>
<clustering>
<clus scale="   92.688">  7  8 -1 -1</clus>
<clus scale="   97.489">  5  6 -1 -1</clus>
<clus scale="  100.418">  5  7 -1 -1</clus>
<clus scale="  213.174">  2  9  1 -1</clus>
<clus scale="  213.174">  2  5  1 -1</clus>
</clustering>
</event>
<event>
 9    2  0.1488992E-004  0.1993704E+03  0.7546771E-02  0.1151521E+00
         -1   -1    0    0    0  501 -0.00000000000E+00  0.00000000000E+00  0.34287411007E+03  0.34287411007E+03  0.00000000000E+00 0.  1.
         21   -1    0    0  501  502  0.00000000000E+00 -0.00000000000E+00 -0.52920624762E+03  0.52920624762E+03  0.00000000000E+00 0. -1.
         23    2    1    2    0    0 -0.95298669423E+02 -0.15222128395E+03  0.28876733119E+03  0.35177059585E+03  0.90015692296E+02 0.  0.
         24    2    1    2    0    0  0.10501665233E+03  0.11900811716E+03 -0.37244317095E+03  0.41197754540E+03  0.76289927981E+02 0.  0.
        -11    1    4    4    0    0  0.13118529433E+02  0.38888131879E+02 -0.37722034993E+02  0.55743470825E+02  0.00000000000E+00 0.  1.
         12    1    4    4    0    0  0.91898122897E+02  0.80119985276E+02 -0.33472113596E+03  0.35623407457E+03  0.00000000000E+00 0. -1.
        -13    1    3    3    0    0 -0.69209236367E+02 -0.12896273735E+03  0.15363354793E+03  0.21218994573E+03  0.00000000000E+00 0.  1.
         13    1    3    3    0    0 -0.26089433056E+02 -0.23258546610E+02  0.13513378327E+03  0.13958065012E+03  0.00000000000E+00 0. -1.
         -2    1    1    2    0  502 -0.97179829074E+01  0.33213166799E+02 -0.10265629780E+03  0.10833221644E+03  0.00000000000E+00 0.  1.
<scales pt_clust_5="13000.00000" pt_clust_6="13000.00000" pt_clust_7="13000.00000" pt_clust_8="13000.00000" pt_clust_9="34.60569"></scales>
<clustering>
<clus scale="   34.606">  2  9  1 -1</clus>
<clus scale="   76.290">  5  6 -1 -1</clus>
<clus scale="   90.016">  7  8 -1 -1</clus>
<clus scale="  193.561">  2  5  1 -1</clus>
<clus scale="   34.606">  2  5  1 -1</clus>
</clustering>
</event>
<event>
 9    2  0.5664178E-004  0.1818801E+03  0.7546771E-02  0.1180607E+00
          2   -1    0    0  502    0 -0.00000000000E+00  0.00000000000E+00  0.98754702663E+03  0.98754702663E+03  0.00000000000E+00 0. -1.
         21   -1    0    0  501  502  0.00000000000E+00 -0.00000000000E+00 -0.30170287540E+03  0.30170287540E+03  0.00000000000E+00 0.  1.
         23    2    1    2    0    0  0.65541004152E+02  0.66690870354E+02  0.38158889404E+03  0.40327293941E+03  0.90970787579E+02 0.  0.
         24    2    1    2    0    0  0.37273695865E+02  0.15377602838E+03 -0.23466660836E+03  0.29469590157E+03  0.82102752767E+02 0.  0.
        -13    1    4    4    0    0  0.27709508221E+02  0.16054761063E+03 -0.23048625147E+03  0.28225390031E+03  0.00000000000E+00 0.  1.
         14    1    4    4    0    0  0.95641876439E+01 -0.67715822531E+01 -0.41803568994E+01  0.12442001258E+02  0.00000000000E+00 0. -1.
        -13    1    3    3    0    0  0.48320439959E+02  0.89494700051E+02  0.28896005736E+03  0.30633654859E+03  0.00000000000E+00 0.  1.
         13    1    3    3    0    0  0.17220564193E+02 -0.22803829697E+02  0.92628836680E+02  0.96936390817E+02  0.00000000000E+00 0. -1.
          1    1    1    2  501    0 -0.10281470002E+03 -0.22046689873E+03  0.53892186555E+03  0.59128106104E+03  0.00000000000E+00 0. -1.
<scales pt_clust_5="13000.00000" pt_clust_6="13000.00000" pt_clust_7="13000.00000" pt_clust_8="13000.00000" pt_clust_9="162.29464"></scales>
<clustering>
<clus scale="   82.103">  5  6 -1 -1</clus>
<clus scale="   90.971">  7  8 -1 -1</clus>
<clus scale="  130.457">  1  7  2 -1</clus>
<clus scale="  162.295">  2  9  1 -1</clus>
<clus scale="  162.295">  2  5  1 -1</clus>
</clustering>
</event>
<event>
 9    2  0.1488992E-004  0.1445313E+03  0.7546771E-02  0.1230781E+00
          2   -1    0    0  502    0 -0.00000000000E+00  0.00000000000E+00  0.45316983798E+03  0.45316983798E+03  0.00000000000E+00 0. -1.
         21   -1    0    0  501  502  0.00000000000E+00 -0.00000000000E+00 -0.60036344740E+03  0.60036344740E+03  0.00000000000E+00 0. -1.
         24    2    1    2    0    0 -0.15141776220E+02 -0.24424781681E+02 -0.10276865236E+03  0.13550153743E+03  0.83507049942E+02 0.  0.
         23    2    1    2    0    0  0.12447448853E+02  0.13316912972E+03  0.41484488599E+03  0.44605570898E+03  0.94765288955E+02 0.  0.
        -11    1    3    3    0    0  0.25897060378E+02 -0.17771248613E+02 -0.86008973235E+01  0.32564558162E+02  0.00000000000E+00 0.  1.
         12    1    3    3    0    0 -0.41038836598E+02 -0.66535330687E+01 -0.94167755040E+02  0.10293697927E+03  0.00000000000E+00 0. -1.
        -13    1    4    4    0    0  0.35398979515E+02  0.67579130410E+02  0.31696737816E+03  0.32601893416E+03  0.00000000000E+00 0.  1.
         13    1    4    4    0    0 -0.22951530662E+02  0.65589999311E+02  0.97877507833E+02  0.12003677482E+03  0.00000000000E+00 0. -1.
          1    1    1    2  501    0  0.26943273663E+01 -0.10874434804E+03 -0.45926984304E+03  0.47197603897E+03  0.00000000000E+00 0. -1.
<scales pt_clust_5="13000.00000" pt_clust_6="13000.00000" pt_clust_7="13000.00000" pt_clust_8="13000.00000" pt_clust_9="109.12764"></scales>
<clustering>
<clus scale="   83.507">  5  6 -1 -1</clus>
<clus scale="   88.314">  1  5  2 -1</clus>
<clus scale="   94.765">  7  8 -1 -1</clus>
<clus scale="  109.128">  2  9  1 -1</clus>
<clus scale="  109.128">  2  5  1 -1</clus>
</clustering>
</event>
<event>
 9    2  0.1488992E-004  0.1474166E+03  0.7546771E-02  0.1205261E+00
         21   -1    0    0  501  502  0.00000000000E+00  0.00000000000E+00  0.55728629839E+02  0.55728629839E+02  0.00000000000E+00 0.  1.
          2   -1    0    0  502    0 -0.00000000000E+00 -0.00000000000E+00 -0.56603409902E+03  0.56603409902E+03  0.00000000000E+00 0. -1.
         23    2    1    2    0    0 -0.99483597517E+02  0.41206908690E+02 -0.30183073852E+03  0.33234539111E+03  0.88071952273E+02 0.  0.
         24    2    1    2    0    0  0.13417792176E+03 -0.48353435901E+02 -0.15419423930E+03  0.22460113046E+03  0.79548946683E+02 0.  0.
        -13    1    4    4    0    0  0.14186138137E+03 -0.45994708106E+02 -0.12584201503E+03  0.19513169257E+03  0.00000000000E+00 0.  1.
         14    1    4    4    0    0 -0.76834596120E+01 -0.23587277959E+01 -0.28352224268E+02  0.29469437887E+02  0.00000000000E+00 0. -1.
        -11    1    3    3    0    0 -0.90106521287E+02 -0.28113948965E+01 -0.16129093260E+03  0.18477514459E+03  0.00000000000E+00 0.  1.
         11    1    3    3    0    0 -0.93770762296E+01  0.44018303586E+02 -0.14053980592E+03  0.14757024652E+03  0.00000000000E+00 0. -1.
          1    1    1    2  501    0 -0.34694324240E+02  0.71465272116E+01 -0.54280491352E+02  0.64816207286E+02  0.00000000000E+00 0. -1.
<scales pt_clust_5="13000.00000" pt_clust_6="13000.00000" pt_clust_7="13000.00000" pt_clust_8="13000.00000" pt_clust_9="35.42274"></scales>
<clustering>
<clus scale="   35.423">  1  9  2 -1</clus>
<clus scale="   79.549">  5  6 -1 -1</clus>
<clus scale="   88.072">  7  8 -1 -1</clus>
<clus scale="  142.489">  1  5  2 -1</clus>
<clus scale="   35.423">  1  5  2 -1</clus>
</clustering>
</event>
<event>
 9    2  0.1488992E-004  0.1930665E+03  0.7546771E-02  0.1173840E+00
          2   -1    0    0  502    0 -0.00000000000E+00  0.00000000000E+00  0.61063039051E+03  0.61063039051E+03  0.00000000000E+00 0. -1.
         21   -1    0    0  501  502  0.00000000000E+00 -0.00000000000E+00 -0.12903770771E+03  0.12903770771E+03  0.00000000000E+00 0.  1.
         24    2    1    2    0    0  0.67391670218E+02 -0.73125006554E+02  0.94859586951E+01  0.12743472051E+03  0.79124716626E+02 0.  0.
         23    2    1    2    0    0 -0.15372516998E+03  0.17852300583E+03  0.31798193396E+03  0.40652323607E+03  0.92987846792E+02 0.  0.
        -13    1    3    3    0    0  0.83533442793E+02 -0.63669115778E+02  0.18533825133E+02  0.10665409061E+03  0.00000000000E+00 0.  1.
         14    1    3    3    0    0 -0.16141772575E+02 -0.94558907767E+01 -0.90478664377E+01  0.20780629907E+02  0.00000000000E+00 0. -1.
        -11    1    4    4    0    0 -0.12058894664E+03  0.12310431615E+03  0.28733671193E+03  0.33505037342E+03  0.00000000000E+00 0.  1.
         11    1    4    4    0    0 -0.33136223336E+02  0.55418689681E+02  0.30645222027E+02  0.71472862654E+02  0.00000000000E+00 0. -1.
          1    1    1    2  501    0  0.86333499761E+02 -0.10539799927E+03  0.15412479015E+03  0.20571014163E+03  0.00000000000E+00 0. -1.
<scales pt_clust_5="13000.00000" pt_clust_6="13000.00000" pt_clust_7="13000.00000" pt_clust_8="13000.00000" pt_clust_9="169.19787"></scales>
<clustering>
<clus scale="   79.125">  5  6 -1 -1</clus>
<clus scale="   92.988">  7  8 -1 -1</clus>
<clus scale="  127.081">  1  5  2 -1</clus>
<clus scale="  169.198">  2  9  1 -1</clus>
<clus scale="  169.198">  2  5  1 -1</clus>
</clustering>
</event>
<event>
 9    2  0.1488992E-004  0.1488598E+03  0.7546771E-02  0.1203782E+00
          2   -1    0    0  502    0 -0.00000000000E+00  0.00000000000E+00  0.74801838222E+03  0.74801838222E+03  0.00000000000E+00 0. -1.
         21   -1    0    0  501  502  0.00000000000E+00 -0.00000000000E+00 -0.11141004723E+03  0.11141004723E+03  0.00000000000E+00 0.  1.
         24    2    1    2    0    0 -0.11197078004E+03 -0.11762640219E+02  0.34667074837E+03  0.37326515746E+03  0.80439136670E+02 0.  0.
         23    2    1    2    0    0  0.15635356041E+03  0.21985376858E+02 -0.10426037277E+02  0.18236623102E+03  0.90658410059E+02 0.  0.
        -11    1    3    3    0    0 -0.33591893191E+02  0.33831161258E+02  0.12241333997E+03  0.13136966378E+03  0.00000000000E+00 0.  1.
         12    1    3    3    0    0 -0.78378886848E+02 -0.45593801477E+02  0.22425740840E+03  0.24189549367E+03  0.00000000000E+00 0. -1.
        -11    1    4    4    0    0  0.58900992713E+02  0.44526089029E+02  0.22287138229E+02  0.77127271942E+02  0.00000000000E+00 0. -1.
         11    1    4    4    0    0  0.97452567698E+02 -0.22540712171E+02 -0.32713175506E+02  0.10523895908E+03  0.00000000000E+00 0.  1.
          1    1    1    2  501    0 -0.44382780372E+02 -0.10222736638E+02  0.30036362391E+03  0.30379704097E+03  0.00000000000E+00 0. -1.
<scales pt_clust_5="13000.00000" pt_clust_6="13000.00000" pt_clust_7="13000.00000" pt_clust_8="13000.00000" pt_clust_9="45.54490"></scales>
<clustering>
<clus scale="   45.545">  2  9  1 -1</clus>
<clus scale="   80.439">  5  6 -1 -1</clus>
<clus scale="   90.658">  7  8 -1 -1</clus>
<clus scale="  142.866">  1  5  2 -1</clus>
<clus scale="   45.545">  2  5  1 -1</clus>
</clustering>
</event>
<event>
 9    2  0.1488992E-004  0.1523807E+03  0.7546771E-02  0.1228554E+00
         21   -1    0    0  501  502  0.00000000000E+00  0.00000000000E+00  0.92193242114E+02  0.92193242114E+02  0.00000000000E+00 0.  1.
         -1   -1    0    0    0  501 -0.00000000000E+00 -0.00000000000E+00 -0.52341022729E+03  0.52341022729E+03  0.00000000000E+00 0.  1.
         24    2    1    2    0    0 -0.69430482328E+01  0.15345027868E+02 -0.30529248276E+02  0.84603945310E+02  0.77085126728E+02 0.  0.
         23    2    1    2    0    0 -0.99673322087E+02 -0.73423618100E+02 -0.51678887693E+02  0.16147638559E+03  0.89878344667E+02 0.  0.
        -13    1    3    3    0    0  0.47788105418E+01 -0.27589068338E+02 -0.28647979484E+02  0.40058712541E+02  0.00000000000E+00 0.  1.
         14    1    3    3    0    0 -0.11721858775E+02  0.42934096206E+02 -0.18812687916E+01  0.44545232768E+02  0.00000000000E+00 0. -1.
        -11    1    4    4    0    0 -0.59257664432E+02 -0.91077071709E+02 -0.32778946591E+02  0.11349433080E+03  0.00000000000E+00 0.  1.
         11    1    4    4    0    0 -0.40415657655E+02  0.17653453609E+02 -0.18899941102E+02  0.47982054788E+02  0.00000000000E+00 0. -1.
         -2    1    1    2    0  502  0.10661637032E+03  0.58078590232E+02 -0.34900884920E+03  0.36952313850E+03  0.00000000000E+00 0.  1.
<scales pt_clust_5="13000.00000" pt_clust_6="13000.00000" pt_clust_7="13000.00000" pt_clust_8="13000.00000" pt_clust_9="123.05194"></scales>
<clustering>
<clus scale="   77.085">  5  6 -1 -1</clus>
<clus scale="   78.904">  2  5  1 -1</clus>
<clus scale="   89.878">  7  8 -1 -1</clus>
<clus scale="  123.052">  1  9  2 -1</clus>
<clus scale="  123.052">  1  5  2 -1</clus>
</clustering>
</event>
<event>
 9    2  0.1488992E-004  0.1001888E+03  0.7546771E-02  0.1289899E+00
         -1   -1    0    0    0  501 -0.00000000000E+00  0.00000000000E+00  0.15549562406E+03  0.15549562406E+03  0.00000000000E+00 0.  1.
         21   -1    0    0  501  502  0.00000000000E+00 -0.00000000000E+00 -0.89914024822E+02  0.89914024822E+02  0.00000000000E+00 0. -1.
         23    2    1    2    0    0  0.33009429260E+02 -0.35972667430E+01  0.56901313293E+02  0.11492044513E+03  0.94161491637E+02 0.  0.
         24    2    1    2    0    0 -0.29627626201E+02 -0.37186885269E+02  0.56148751837E+01  0.89450436830E+02  0.75559202983E+02 0.  0.
        -11    1    4    4    0    0 -0.60286168950E+01 -0.46032115974E+02  0.29273103138E+02  0.54883645014E+02  0.00000000000E+00 0.  1.
         12    1    4    4    0    0 -0.23599009306E+02  0.88452307052E+01 -0.23658227955E+02  0.34566791816E+02  0.00000000000E+00 0. -1.
        -13    1    3    3    0    0  0.53281739478E+02  0.13215779527E+02  0.67084730365E+02  0.86683110457E+02  0.00000000000E+00 0.  1.
         13    1    3    3    0    0 -0.20272310218E+02 -0.16813046270E+02 -0.10183417071E+02  0.28237334678E+02  0.00000000000E+00 0. -1.
         -2    1    1    2    0  502 -0.33818030589E+01  0.40784152012E+02  0.30654107634E+01  0.41038766921E+02  0.00000000000E+00 0.  1.
<scales pt_clust_5="13000.00000" pt_clust_6="13000.00000" pt_clust_7="13000.00000" pt_clust_8="13000.00000" pt_clust_9="40.92412"></scales>
<clustering>
<clus scale="   40.924">  2  9  1 -1</clus>
<clus scale="   75.559">  5  6 -1 -1</clus>
<clus scale="   82.949">  2  5  1 -1</clus>
<clus scale="   94.161">  7  8 -1 -1</clus>
<clus scale="   40.924">  2  5  1 -1</clus>
</clustering>
</event>
<event>
 9    2  0.1488992E-004  0.9303361E+02  0.7546771E-02  0.1302060E+00
          2   -1    0    0  502    0 -0.00000000000E+00  0.00000000000E+00  0.10026767137E+03  0.10026767137E+03  0.00000000000E+00 0. -1.
         21   -1    0    0  501  502  0.00000000000E+00 -0.00000000000E+00 -0.20187822411E+03  0.20187822411E+03  0.00000000000E+00 0. -1.
         24    2    1    2    0    0  0.34400158905E+02  0.20218339987E+02  0.31011018851E+02  0.93797267157E+02  0.79019566130E+02 0.  0.
         23    2    1    2    0    0  0.21418757247E+02  0.16461502633E+02 -0.81384275742E+02  0.12416773536E+03  0.89802460632E+02 0.  0.
        -11    1    3    3    0    0  0.34515064419E+02  0.14510988039E+01 -0.19669936560E+02  0.39753009495E+02  0.00000000000E+00 0.  1.
         12    1    3    3    0    0 -0.11490551462E+00  0.18767241183E+02  0.50680955411E+02  0.54044257662E+02  0.00000000000E+00 0. -1.
        -11    1    4    4    0    0  0.36434686058E+02 -0.27163590053E+02 -0.53750988948E+02  0.70388321372E+02  0.00000000000E+00 0. -1.
         11    1    4    4    0    0 -0.15015928811E+02  0.43625092686E+02 -0.27633286794E+02  0.53779413988E+02  0.00000000000E+00 0.  1.
          1    1    1    2  501    0 -0.55818916152E+02 -0.36679842620E+02 -0.51237295844E+02  0.84180892965E+02  0.00000000000E+00 0. -1.
<scales pt_clust_5="13000.00000" pt_clust_6="13000.00000" pt_clust_7="13000.00000" pt_clust_8="13000.00000" pt_clust_9="66.79193"></scales>
<clustering>
<clus scale="   66.792">  2  9  1 -1</clus>
<clus scale="   79.020">  5  6 -1 -1</clus>
<clus scale="   82.673">  1  5  2 -1</clus>
<clus scale="   89.802">  7  8 -1 -1</clus>
<clus scale="   66.792">  2  5  1 -1</clus>
</clustering>
</event>
<event>
 9    2  0.1488992E-004  0.1018704E+03  0.7546771E-02  0.1280665E+00
         21   -1    0    0  501  502  0.00000000000E+00  0.00000000000E+00  0.16440457656E+03  0.16440457656E+03  0.00000000000E+00 0. -1.
         -3   -1    0    0    0  501 -0.00000000000E+00 -0.00000000000E+00 -0.90262741138E+02  0.90262741138E+02  0.00000000000E+00 0.  1.
         24    2    1    2    0    0 -0.28361708063E+01  0.62819596394E+02  0.28446541121E+01  0.10266311421E+03  0.81100415574E+02 0.  0.
         23    2    1    2    0    0  0.33788792120E+01 -0.27742387532E+02  0.32855352237E+02  0.99961150768E+02  0.90175942477E+02 0.  0.
        -13    1    3    3    0    0 -0.20223577500E+02  0.53842838265E+02 -0.29667633097E+02  0.64716402658E+02  0.00000000000E+00 0.  1.
         14    1    3    3    0    0  0.17387406694E+02  0.89767581284E+01  0.32512287209E+02  0.37946711552E+02  0.00000000000E+00 0. -1.
        -13    1    4    4    0    0  0.33723425638E+02  0.14355383382E+02  0.31049325739E+02  0.48035477489E+02  0.00000000000E+00 0. -1.
         13    1    4    4    0    0 -0.30344546426E+02 -0.42097770914E+02  0.18060264988E+01  0.51925673279E+02  0.00000000000E+00 0.  1.
         -4    1    1    2    0  502 -0.54270840571E+00 -0.35077208861E+02  0.38441829071E+02  0.52043052718E+02  0.00000000000E+00 0.  1.
<scales pt_clust_5="13000.00000" pt_clust_6="13000.00000" pt_clust_7="13000.00000" pt_clust_8="13000.00000" pt_clust_9="35.08141"></scales>
<clustering>
<clus scale="   35.081">  1  9  2 -1</clus>
<clus scale="   81.100">  5  6 -1 -1</clus>
<clus scale="   90.176">  7  8 -1 -1</clus>
<clus scale="   93.932">  2  5  1 -1</clus>
<clus scale="   35.081">  1  5  2 -1</clus>
</clustering>
</event>
<event>
 9    2  0.1488992E-004  0.9460152E+02  0.7546771E-02  0.1298733E+00
         21   -1    0    0  501  502  0.00000000000E+00  0.00000000000E+00  0.15069189999E+03  0.15069189999E+03  0.00000000000E+00 0.  1.
          2   -1    0    0  502    0 -0.00000000000E+00 -0.00000000000E+00 -0.16027487023E+03  0.16027487023E+03  0.00000000000E+00 0. -1.
         23    2    1    2    0    0  0.93255007598E+01  0.22948562435E+02 -0.11992621285E+03  0.15311157653E+03  0.91908959605E+02 0.  0.
         24    2    1    2    0    0  0.93436994839E+01 -0.90532463651E+01  0.10667205057E+03  0.13429470777E+03  0.80541145828E+02 0.  0.
        -13    1    4    4    0    0  0.39385317351E+00  0.28414465933E+02  0.98251183519E+01  0.30067755906E+02  0.00000000000E+00 0.  1.
         14    1    4    4    0    0  0.89498463104E+01 -0.37467712299E+02  0.96846932219E+02  0.10422695186E+03  0.00000000000E+00 0. -1.
        -11    1    3    3    0    0 -0.11995042476E+02  0.54086730434E+02 -0.55322934495E+02  0.78293566365E+02  0.00000000000E+00 0.  1.
         11    1    3    3    0    0  0.21320543236E+02 -0.31138167999E+02 -0.64603278356E+02  0.74818010162E+02  0.00000000000E+00 0. -1.
          1    1    1    2  501    0 -0.18669200244E+02 -0.13895316070E+02  0.36711920399E+01  0.23560485933E+02  0.00000000000E+00 0. -1.
<scales pt_clust_5="13000.00000" pt_clust_6="13000.00000" pt_clust_7="13000.00000" pt_clust_8="13000.00000" pt_clust_9="23.27271"></scales>
<clustering>
<clus scale="   23.273">  1  9  2 -1</clus>
<clus scale="   80.541">  5  6 -1 -1</clus>
<clus scale="   83.601">  1  5  2 -1</clus>
<clus scale="   91.909">  7  8 -1 -1</clus>
<clus scale="   23.273">  1  5  2 -1</clus>
</clustering>
</event>
<event>
 9    2  0.1488992E-004  0.1508994E+03  0.7546771E-02  0.1201612E+00
         21   -1    0    0  501  502  0.00000000000E+00  0.00000000000E+00  0.47743963105E+02  0.47743963105E+02  0.00000000000E+00 0.  1.
          2   -1    0    0  502    0 -0.00000000000E+00 -0.00000000000E+00 -0.95269649274E+03  0.95269649274E+03  0.00000000000E+00 0. -1.
         23    2    1    2    0    0  0.97625099207E+02  0.60947576639E+02 -0.25309862158E+03  0.29309952714E+03  0.92753185755E+02 0.  0.
         24    2    1    2    0    0 -0.55445032817E+02 -0.12399594423E+03 -0.23177826986E+03  0.28047116349E+03  0.80583877548E+02 0.  0.
        -11    1    4    4    0    0 -0.52558354632E+02 -0.29048880299E+02 -0.11676590291E+03  0.13130306230E+03  0.00000000000E+00 0.  1.
         12    1    4    4    0    0 -0.28866781848E+01 -0.94947063927E+02 -0.11501236695E+03  0.14916810118E+03  0.00000000000E+00 0. -1.
        -11    1    3    3    0    0  0.10797970137E+03  0.27423590432E+02 -0.17458800173E+03  0.20710538276E+03  0.00000000000E+00 0.  1.
         11    1    3    3    0    0 -0.10354602166E+02  0.33523986207E+02 -0.78510619854E+02  0.85994144377E+02  0.00000000000E+00 0. -1.
          1    1    1    2  501    0 -0.42180066390E+02  0.63048367586E+02 -0.42007563820E+03  0.42686976522E+03  0.00000000000E+00 0. -1.
<scales pt_clust_5="13000.00000" pt_clust_6="13000.00000" pt_clust_7="13000.00000" pt_clust_8="13000.00000" pt_clust_9="75.85684"></scales>
<clustering>
<clus scale="   75.857">  1  9  2 -1</clus>
<clus scale="   80.584">  5  6 -1 -1</clus>
<clus scale="   92.753">  7  8 -1 -1</clus>
<clus scale="  143.740">  1  5  2 -1</clus>
<clus scale="   75.857">  1  5  2 -1</clus>
</clustering>
</event>
<event>
 9    2  0.1488992E-004  0.2433178E+03  0.7546771E-02  0.1118318E+00
         21   -1    0    0  501  502  0.00000000000E+00  0.00000000000E+00  0.55950765079E+03  0.55950765079E+03  0.00000000000E+00 0.  1.
         -1   -1    0    0    0  501 -0.00000000000E+00 -0.00000000000E+00 -0.76298934892E+03  0.76298934892E+03  0.00000000000E+00 0.  1.
         23    2    1    2    0    0 -0.32496891903E+02  0.23078106321E+03 -0.60527918965E+03  0.65506114187E+03  0.91794635130E+02 0.  0.
         24    2    1    2    0    0  0.91423422751E+02 -0.18347637753E+03 -0.36292179791E+02  0.22287694224E+03  0.79593879973E+02 0.  0.
        -11    1    4    4    0    0 -0.28133638641E+01 -0.27392605556E+02 -0.29600336200E+02  0.40428328664E+02  0.00000000000E+00 0.  1.
         12    1    4    4    0    0  0.94236786615E+02 -0.15608377198E+03 -0.66918435910E+01  0.18244861358E+03  0.00000000000E+00 0. -1.
        -13    1    3    3    0    0 -0.30438800182E+02  0.86801512110E+02 -0.35088666666E+03  0.36274298877E+03  0.00000000000E+00 0. -1.
         13    1    3    3    0    0 -0.20580917208E+01  0.14397955110E+03 -0.25439252299E+03  0.29231815310E+03  0.00000000000E+00 0.  1.
         -2    1    1    2    0  502 -0.58926530848E+02 -0.47304685676E+02  0.43808967131E+03  0.44455891560E+03  0.00000000000E+00 0.  1.
<scales pt_clust_5="13000.00000" pt_clust_6="13000.00000" pt_clust_7="13000.00000" pt_clust_8="13000.00000" pt_clust_9="75.56500"></scales>
<clustering>
<clus scale="   75.565">  1  9  2 -1</clus>
<clus scale="   79.594">  5  6 -1 -1</clus>
<clus scale="   91.795">  7  8 -1 -1</clus>
<clus scale="  238.982">  1  5  2 -1</clus>
<clus scale="   75.565">  1  5  2 -1</clus>
</clustering>
</event>
<event>
 9    2  0.1488992E-004  0.1510516E+03  0.7546771E-02  0.1201031E+00
         21   -1    0    0  501  502  0.00000000000E+00  0.00000000000E+00  0.12485100291E+03  0.12485100291E+03  0.00000000000E+00 0. -1.
         -1   -1    0    0    0  501 -0.00000000000E+00 -0.00000000000E+00 -0.31288563138E+03  0.31288563138E+03  0.00000000000E+00 0.  1.
         23    2    1    2    0    0 -0.11485685172E+03 -0.38800769228E+02 -0.79076360374E+02  0.17083763274E+03  0.90745963614E+02 0.  0.
         24    2    1    2    0    0  0.12812934970E+03 -0.42828011995E+02 -0.48877526529E+02  0.16467810039E+03  0.80489100403E+02 0.  0.
        -11    1    4    4    0    0  0.69108424601E+02  0.14650416649E+02 -0.41575790177E+02  0.81970454358E+02  0.00000000000E+00 0.  1.
         12    1    4    4    0    0  0.59020925095E+02 -0.57478428644E+02 -0.73017363516E+01  0.82707646032E+02  0.00000000000E+00 0. -1.
        -13    1    3    3    0    0 -0.87152856569E+02 -0.11819132194E+02 -0.59945483509E+01  0.88154676019E+02  0.00000000000E+00 0. -1.
         13    1    3    3    0    0 -0.27703995149E+02 -0.26981637034E+02 -0.73081812023E+02  0.82682956725E+02  0.00000000000E+00 0.  1.
         -2    1    1    2    0  502 -0.13272497978E+02  0.81628781223E+02 -0.60080741570E+02  0.10222090116E+03  0.00000000000E+00 0.  1.
<scales pt_clust_5="13000.00000" pt_clust_6="13000.00000" pt_clust_7="13000.00000" pt_clust_8="13000.00000" pt_clust_9="82.70081"></scales>
<clustering>
<clus scale="   80.489">  5  6 -1 -1</clus>
<clus scale="   82.701">  1  9  2 -1</clus>
<clus scale="   90.746">  7  8 -1 -1</clus>
<clus scale="  145.122">  1  5  2 -1</clus>
<clus scale="   82.701">  1  5  2 -1</clus>
</clustering>
</event>
<event>
 9    2  0.1488992E-004  0.1096305E+03  0.7546771E-02  0.1264847E+00
          2   -1    0    0  502    0 -0.00000000000E+00  0.00000000000E+00  0.15439575327E+03  0.15439575327E+03  0.00000000000E+00 0. -1.
         21   -1    0    0  501  502  0.00000000000E+00 -0.00000000000E+00 -0.40272903947E+03  0.40272903947E+03  0.00000000000E+00 0.  1.
         23    2    1    2    0    0 -0.35527666952E+02 -0.48694423555E+02  0.11614649069E+03  0.15932627142E+03  0.90892747012E+02 0.  0.
         24    2    1    2    0    0  0.74261692521E+02  0.35040622395E+02 -0.23604675647E+03  0.26295864680E+03  0.81771232687E+02 0.  0.
        -13    1    4    4    0    0  0.66720885067E+02  0.30846502741E+01 -0.21196763600E+03  0.22224191838E+03  0.00000000000E+00 0.  1.
         14    1    4    4    0    0  0.75408074540E+01  0.31955972121E+02 -0.24079120464E+02  0.40716728424E+02  0.00000000000E+00 0. -1.
        -11    1    3    3    0    0  0.63500946105E+01 -0.30644160488E+02  0.10870597674E+03  0.11312107519E+03  0.00000000000E+00 0.  1.
         11    1    3    3    0    0 -0.41877761562E+02 -0.18050263067E+02  0.74405139500E+01  0.46205196224E+02  0.00000000000E+00 0. -1.
          1    1    1    2  501    0 -0.38734025569E+02  0.13653801160E+02 -0.12843302043E+03  0.13483987452E+03  0.00000000000E+00 0. -1.
<scales pt_clust_5="13000.00000" pt_clust_6="13000.00000" pt_clust_7="13000.00000" pt_clust_8="13000.00000" pt_clust_9="41.07007"></scales>
<clustering>
<clus scale="   41.070">  2  9  1 -1</clus>
<clus scale="   81.771">  5  6 -1 -1</clus>
<clus scale="   90.893">  7  8 -1 -1</clus>
<clus scale="  102.195">  2  5  1 -1</clus>
<clus scale="   41.070">  2  5  1 -1</clus>
</clustering>
</event>
<event>
 9    2  0.1488992E-004  0.2450922E+03  0.7546771E-02  0.1122445E+00
          2   -1    0    0  502    0 -0.00000000000E+00  0.00000000000E+00  0.11588475040E+04  0.11588475040E+04  0.00000000000E+00 0. -1.
         21   -1    0    0  501  502  0.00000000000E+00 -0.00000000000E+00 -0.12949592169E+03  0.12949592169E+03  0.00000000000E+00 0.  1.
         24    2    1    2    0    0  0.17841616019E+03 -0.87169065712E+02  0.11996685944E+03  0.24264500782E+03  0.71089944569E+02 0.  0.
         23    2    1    2    0    0 -0.22027349382E+02  0.26262562814E+03  0.53900965531E+03  0.60704119849E+03  0.92250655679E+02 0.  0.
        -13    1    3    3    0    0  0.13627511227E+03 -0.75065445928E+02  0.56535786980E+02  0.16553556296E+03  0.00000000000E+00 0.  1.
         14    1    3    3    0    0  0.42141047929E+02 -0.12103619784E+02  0.63431072462E+02  0.77109444857E+02  0.00000000000E+00 0. -1.
        -11    1    4    4    0    0 -0.46901947917E+02  0.24315720490E+03  0.47818960738E+03  0.53850767833E+03  0.00000000000E+00 0.  1.
         11    1    4    4    0    0  0.24874598535E+02  0.19468423238E+02  0.60820047932E+02  0.68533520164E+02  0.00000000000E+00 0. -1.
          1    1    1    2  501    0 -0.15638881081E+03 -0.17545656243E+03  0.37037506759E+03  0.43865721941E+03  0.00000000000E+00 0. -1.
<scales pt_clust_5="13000.00000" pt_clust_6="13000.00000" pt_clust_7="13000.00000" pt_clust_8="13000.00000" pt_clust_9="227.06823"></scales>
<clustering>
<clus scale="   71.090">  5  6 -1 -1</clus>
<clus scale="   92.251">  7  8 -1 -1</clus>
<clus scale="  210.914">  1  5  2 -1</clus>
<clus scale="  227.068">  2  9  1 -1</clus>
<clus scale="  227.068">  2  5  1 -1</clus>
</clustering>
</event>
<event>
 9    2  0.1488992E-004  0.1621712E+03  0.7546771E-02  0.1186993E+00
         21   -1    0    0  501  502  0.00000000000E+00  0.00000000000E+00  0.11088112373E+03  0.11088112373E+03  0.00000000000E+00 0. -1.
          4   -1    0    0  502    0 -0.00000000000E+00 -0.00000000000E+00 -0.38545519719E+03  0.38545519719E+03  0.00000000000E+00 0. -1.
         24    2    1    2    0    0 -0.46822526918E+02 -0.14462756315E+03 -0.17108140189E+03  0.24390290090E+03  0.84322582659E+02 0.  0.
         23    2    1    2    0    0  0.90985149134E+02  0.81337177572E+02 -0.52739302160E+02  0.16006505631E+03  0.89136717690E+02 0.  0.
        -13    1    3    3    0    0 -0.55088173882E+01 -0.10450482943E+03 -0.14931494885E+03  0.18233639349E+03  0.00000000000E+00 0.  1.
         14    1    3    3    0    0 -0.41313709530E+02 -0.40122733721E+02 -0.21766453040E+02  0.61566507407E+02  0.00000000000E+00 0. -1.
        -11    1    4    4    0    0  0.92996714356E+01  0.42491139236E+02  0.16117072070E+02  0.46386860364E+02  0.00000000000E+00 0.  1.
         11    1    4    4    0    0  0.81685477699E+02  0.38846038336E+02 -0.68856374229E+02  0.11367819594E+03  0.00000000000E+00 0. -1.
          3    1    1    2  501    0 -0.44162622216E+02  0.63290385580E+02 -0.50753369409E+02  0.92368363709E+02  0.00000000000E+00 0. -1.
<scales pt_clust_5="13000.00000" pt_clust_6="13000.00000" pt_clust_7="13000.00000" pt_clust_8="13000.00000" pt_clust_9="77.17519"></scales>
<clustering>
<clus scale="   77.175">  1  9  2 -1</clus>
<clus scale="   84.323">  5  6 -1 -1</clus>
<clus scale="   89.137">  7  8 -1 -1</clus>
<clus scale="  159.576">  2  5  1 -1</clus>
<clus scale="   77.175">  1  5  2 -1</clus>
</clustering>
</event>
<event>
 9    2  0.1488992E-004  0.3348265E+03  0.7546771E-02  0.1120614E+00
          2   -1    0    0  502    0 -0.00000000000E+00  0.00000000000E+00  0.10884062686E+04  0.10884062686E+04  0.00000000000E+00 0. -1.
         21   -1    0    0  501  502  0.00000000000E+00 -0.00000000000E+00 -0.12846954028E+03  0.12846954028E+03  0.00000000000E+00 0. -1.
         23    2    1    2    0    0  0.28262882308E+01  0.27431410780E+02  0.12880393606E+03  0.15520416878E+03  0.82081726714E+02 0.  0.
         24    2    1    2    0    0  0.32352979924E+03 -0.11094738114E+02  0.40795254010E+03  0.52701594853E+03  0.80783109784E+02 0.  0.
        -11    1    4    4    0    0  0.23919749667E+02 -0.17200114137E+02  0.66355766898E+02  0.72602246184E+02  0.00000000000E+00 0.  1.
         12    1    4    4    0    0  0.29961004957E+03  0.61053760231E+01  0.34159677320E+03  0.45441370235E+03  0.00000000000E+00 0. -1.
        -11    1    3    3    0    0  0.58727269683E+01 -0.27745041980E+02  0.64233804510E+02  0.70215795362E+02  0.00000000000E+00 0. -1.
         11    1    3    3    0    0 -0.30464387375E+01  0.55176452760E+02  0.64570131546E+02  0.84988373416E+02  0.00000000000E+00 0.  1.
          1    1    1    2  501    0 -0.32635608747E+03 -0.16336672665E+02  0.42318025220E+03  0.53465569160E+03  0.00000000000E+00 0. -1.
<scales pt_clust_5="13000.00000" pt_clust_6="13000.00000" pt_clust_7="13000.00000" pt_clust_8="13000.00000" pt_clust_9="324.93531"></scales>
<clustering>
<clus scale="   80.783">  5  6 -1 -1</clus>
<clus scale="   82.082">  7  8 -1 -1</clus>
<clus scale="   86.590">  1  7  2 -1</clus>
<clus scale="  324.935">  2  9  1 -1</clus>
<clus scale="  324.935">  2  5  1 -1</clus>
</clustering>
</event>
<event>
 9    2  0.1488992E-004  0.1011636E+03  0.7546771E-02  0.1285131E+00
          2   -1    0    0  502    0 -0.00000000000E+00  0.00000000000E+00  0.47905802168E+03  0.47905802168E+03  0.00000000000E+00 0. -1.
         21   -1    0    0  501  502  0.00000000000E+00 -0.00000000000E+00 -0.33880105134E+02  0.33880105134E+02  0.00000000000E+00 0. -1.
         24    2    1    2    0    0  0.18285800330E+02  0.30674688969E+02  0.28973839162E+03  0.30229157195E+03  0.78463697689E+02 0.  0.
         23    2    1    2    0    0 -0.41125360204E+01 -0.59255314779E+02  0.12231589470E+03  0.16465842083E+03  0.92860713825E+02 0.  0.
        -13    1    3    3    0    0  0.24366639982E+01  0.55731847200E+02  0.20765589063E+03  0.21501847604E+03  0.00000000000E+00 0.  1.
         14    1    3    3    0    0  0.15849136332E+02 -0.25057158231E+02  0.82082500988E+02  0.87273095909E+02  0.00000000000E+00 0. -1.
        -13    1    4    4    0    0 -0.70254814840E+01 -0.84356581766E+02  0.88774443975E+02  0.12266332859E+03  0.00000000000E+00 0. -1.
         13    1    4    4    0    0  0.29129454635E+01  0.25101266988E+02  0.33541450722E+02  0.41995092239E+02  0.00000000000E+00 0.  1.
          1    1    1    2  501    0 -0.14173264310E+02  0.28580625810E+02  0.33123630229E+02  0.45988134039E+02  0.00000000000E+00 0. -1.
<scales pt_clust_5="13000.00000" pt_clust_6="13000.00000" pt_clust_7="13000.00000" pt_clust_8="13000.00000" pt_clust_9="31.90194"></scales>
<clustering>
<clus scale="   31.902">  2  9  1 -1</clus>
<clus scale="   78.464">  5  6 -1 -1</clus>
<clus scale="   88.133">  1  5  2 -1</clus>
<clus scale="   92.861">  7  8 -1 -1</clus>
<clus scale="   31.902">  2  5  1 -1</clus>
</clustering>
</event>
<event>
 9    2  0.1488992E-004  0.1020668E+03  0.7546771E-02  0.1283950E+00
          2   -1    0    0  502    0 -0.00000000000E+00  0.00000000000E+00  0.11874140906E+03  0.11874140906E+03  0.00000000000E+00 0. -1.
         21   -1    0    0  501  502  0.00000000000E+00 -0.00000000000E+00 -0.18691111845E+03  0.18691111845E+03  0.00000000000E+00 0.  1.
         24    2    1    2    0    0 -0.12421756948E+02 -0.45206540502E+02  0.43564893157E+02  0.10135205784E+03  0.78590128910E+02 0.  0.
         23    2    1    2    0    0  0.56129342262E+01 -0.66447898018E+00 -0.12441797565E+03  0.15622367227E+03  0.94308305838E+02 0.  0.
        -11    1    3    3    0    0  0.26086146412E+02 -0.46084600446E+02  0.23774157843E+02  0.58047291186E+02  0.00000000000E+00 0.  1.
         12    1    3    3    0    0 -0.38507903359E+02  0.87805994437E+00  0.19790735314E+02  0.43304766650E+02  0.00000000000E+00 0. -1.
        -11    1    4    4    0    0 -0.18171186429E+02 -0.42573247137E+02 -0.61330352804E+02  0.76838047627E+02  0.00000000000E+00 0.  1.
         11    1    4    4    0    0  0.23784120655E+02  0.41908768157E+02 -0.63087622847E+02  0.79385624645E+02  0.00000000000E+00 0. -1.
          1    1    1    2  501    0  0.68088227213E+01  0.45871019482E+02  0.12683373112E+02  0.48076797404E+02  0.00000000000E+00 0. -1.
<scales pt_clust_5="13000.00000" pt_clust_6="13000.00000" pt_clust_7="13000.00000" pt_clust_8="13000.00000" pt_clust_9="46.37362"></scales>
<clustering>
<clus scale="   46.374">  2  9  1 -1</clus>
<clus scale="   78.590">  5  6 -1 -1</clus>
<clus scale="   87.750">  1  5  2 -1</clus>
<clus scale="   94.308">  7  8 -1 -1</clus>
<clus scale="   46.374">  2  5  1 -1</clus>
</clustering>
</event>
<event>
 9    2  0.1488992E-004  0.1801618E+03  0.7546771E-02  0.1168783E+00
         21   -1    0    0  501  502  0.00000000000E+00  0.00000000000E+00  0.13447085888E+03  0.13447085888E+03  0.00000000000E+00 0.  1.
         -3   -1    0    0    0  501 -0.00000000000E+00 -0.00000000000E+00 -0.35108353103E+03  0.35108353103E+03  0.00000000000E+00 0.  1.
         23    2    1    2    0    0 -0.63099303154E+02 -0.10332863310E+03 -0.42977591957E+02  0.15681131201E+03  0.89913211965E+02 0.  0.
         24    2    1    2    0    0  0.10659055129E+03  0.15960481772E+03 -0.12834118911E+03  0.24442205923E+03  0.80221186424E+02 0.  0.
        -11    1    4    4    0    0  0.47477103641E+02  0.92320310842E+02 -0.23326264970E+02  0.10640126786E+03  0.00000000000E+00 0.  1.
         12    1    4    4    0    0  0.59113447654E+02  0.67284506877E+02 -0.10501492414E+03  0.13802079137E+03  0.00000000000E+00 0. -1.
        -13    1    3    3    0    0 -0.25494378006E+02 -0.79767867761E+01 -0.47189150301E+02  0.54225532209E+02  0.00000000000E+00 0. -1.
         13    1    3    3    0    0 -0.37604925149E+02 -0.95351846327E+02  0.42115583441E+01  0.10258577980E+03  0.00000000000E+00 0.  1.
         -4    1    1    2    0  502 -0.43491248140E+02 -0.56276184615E+02 -0.45293891084E+02  0.84321018668E+02  0.00000000000E+00 0.  1.
<scales pt_clust_5="13000.00000" pt_clust_6="13000.00000" pt_clust_7="13000.00000" pt_clust_8="13000.00000" pt_clust_9="71.12315"></scales>
<clustering>
<clus scale="   71.123">  1  9  2 -1</clus>
<clus scale="   80.221">  5  6 -1 -1</clus>
<clus scale="   89.913">  7  8 -1 -1</clus>
<clus scale="  175.526">  1  5  2 -1</clus>
<clus scale="   71.123">  1  5  2 -1</clus>
</clustering>
</event>
<event>
 9    2  0.1488992E-004  0.1195312E+03  0.7546771E-02  0.1248283E+00
         21   -1    0    0  501  502  0.00000000000E+00  0.00000000000E+00  0.94825371939E+02  0.94825371939E+02  0.00000000000E+00 0. -1.
          2   -1    0    0  502    0 -0.00000000000E+00 -0.00000000000E+00 -0.21368564999E+03  0.21368564999E+03  0.00000000000E+00 0. -1.
         23    2    1    2    0    0 -0.55511841471E+02  0.66779332377E+02 -0.40461223446E+02  0.13254163683E+03  0.91592200077E+02 0.  0.
         24    2    1    2    0    0  0.26829197760E+02 -0.62966092166E+02 -0.13059526259E+02  0.10450968446E+03  0.77892158168E+02 0.  0.
        -13    1    4    4    0    0  0.13185488760E+02  0.17188760638E+02  0.22258388243E+01  0.21777625320E+02  0.00000000000E+00 0.  1.
         14    1    4    4    0    0  0.13643709001E+02 -0.80154852804E+02 -0.15285365083E+02  0.82732059137E+02  0.00000000000E+00 0. -1.
        -13    1    3    3    0    0 -0.14382258713E+02  0.27711040201E+02 -0.63934004898E+02  0.71149898784E+02  0.00000000000E+00 0.  1.
         13    1    3    3    0    0 -0.41129582758E+02  0.39068292176E+02  0.23472781452E+02  0.61391738047E+02  0.00000000000E+00 0. -1.
          1    1    1    2  501    0  0.28682643711E+02 -0.38132402107E+01 -0.65339528347E+02  0.71459700641E+02  0.00000000000E+00 0. -1.
<scales pt_clust_5="13000.00000" pt_clust_6="13000.00000" pt_clust_7="13000.00000" pt_clust_8="13000.00000" pt_clust_9="28.93503"></scales>
<clustering>
<clus scale="   28.935">  1  9  2 -1</clus>
<clus scale="   77.892">  5  6 -1 -1</clus>
<clus scale="   91.592">  7  8 -1 -1</clus>
<clus scale="  109.388">  1  5  2 -1</clus>
<clus scale="   28.935">  1  5  2 -1</clus>
</clustering>
</event>
<event>
 9    2  0.1488992E-004  0.3398437E+03  0.7546771E-02  0.1083055E+00
          2   -1    0    0  502    0 -0.00000000000E+00  0.00000000000E+00  0.27316941900E+04  0.27316941900E+04  0.00000000000E+00 0. -1.
         21   -1    0    0  501  502  0.00000000000E+00 -0.00000000000E+00 -0.13856080632E+03  0.13856080632E+03  0.00000000000E+00 0. -1.
         24    2    1    2    0    0  0.17587171486E+03 -0.10077272653E+03  0.59875565481E+02  0.22682893483E+03  0.82342454615E+02 0.  0.
         23    2    1    2    0    0  0.21923326744E+03 -0.14911041165E+03  0.77485734756E+03  0.82394213879E+03  0.90441133327E+02 0.  0.
        -13    1    3    3    0    0  0.59400196460E+02 -0.78677964965E+02  0.13373528187E+02  0.99485962661E+02  0.00000000000E+00 0.  1.
         14    1    3    3    0    0  0.11647151840E+03 -0.22094761569E+02  0.46502037294E+02  0.12734297217E+03  0.00000000000E+00 0. -1.
        -13    1    4    4    0    0  0.21597454166E+03 -0.11453922876E+03  0.65410737183E+03  0.69829842579E+03  0.00000000000E+00 0.  1.
         13    1    4    4    0    0  0.32587257784E+01 -0.34571182886E+02  0.12074997572E+03  0.12564371300E+03  0.00000000000E+00 0. -1.
          1    1    1    2  501    0 -0.39510498230E+03  0.24988313818E+03  0.17584004707E+04  0.18194839227E+04  0.00000000000E+00 0. -1.
<scales pt_clust_5="13000.00000" pt_clust_6="13000.00000" pt_clust_7="13000.00000" pt_clust_8="13000.00000" pt_clust_9="327.58849"></scales>
<clustering>
<clus scale="   82.342">  5  6 -1 -1</clus>
<clus scale="   90.441">  7  8 -1 -1</clus>
<clus scale="  218.784">  1  5  2 -1</clus>
<clus scale="  327.588">  2  9  1 -1</clus>
<clus scale="  327.588">  2  5  1 -1</clus>
</clustering>
</event>
<event>
 9    2  0.1488992E-004  0.1053072E+03  0.7546771E-02  0.1274548E+00
         -1   -1    0    0    0  501 -0.00000000000E+00  0.00000000000E+00  0.16361216205E+03  0.16361216205E+03  0.00000000000E+00 0.  1.
         21   -1    0    0  501  502  0.00000000000E+00 -0.00000000000E+00 -0.10469809252E+03  0.10469809252E+03  0.00000000000E+00 0.  1.
         23    2    1    2    0    0 -0.41726392551E+02 -0.41807310947E+02  0.36966005564E+01  0.10825458190E+03  0.90644616842E+02 0.  0.
         24    2    1    2    0    0  0.51585470322E+02  0.11483687055E+02 -0.13053807829E+01  0.95159169495E+02  0.79124128451E+02 0.  0.
        -11    1    4    4    0    0  0.62387712199E+02 -0.71344636969E+01 -0.20768387359E+02  0.66139648617E+02  0.00000000000E+00 0.  1.
         12    1    4    4    0    0 -0.10802241877E+02  0.18618150752E+02  0.19463006576E+02  0.29019520878E+02  0.00000000000E+00 0. -1.
        -11    1    3    3    0    0 -0.68870071259E+01 -0.54234829723E+02  0.30473957727E+02  0.62590012955E+02  0.00000000000E+00 0.  1.
         11    1    3    3    0    0 -0.34839385425E+02  0.12427518775E+02 -0.26777357171E+02  0.45664568943E+02  0.00000000000E+00 0. -1.
         -2    1    1    2    0  502 -0.98590777712E+01  0.30323623892E+02  0.56522849749E+02  0.64896503174E+02  0.00000000000E+00 0.  1.
<scales pt_clust_5="13000.00000" pt_clust_6="13000.00000" pt_clust_7="13000.00000" pt_clust_8="13000.00000" pt_clust_9="31.88612"></scales>
<clustering>
<clus scale="   31.886">  2  9  1 -1</clus>
<clus scale="   79.124">  5  6 -1 -1</clus>
<clus scale="   90.645">  7  8 -1 -1</clus>
<clus scale="   95.571">  2  5  1 -1</clus>
<clus scale="   31.886">  2  5  1 -1</clus>
</clustering>
</event>
<event>
 9    2  0.1488992E-004  0.1058020E+03  0.7546771E-02  0.1273378E+00
         21   -1    0    0  501  502  0.00000000000E+00  0.00000000000E+00  0.34590779367E+03  0.34590779367E+03  0.00000000000E+00 0.  1.
          2   -1    0    0  502    0 -0.00000000000E+00 -0.00000000000E+00 -0.13343523346E+03  0.13343523346E+03  0.00000000000E+00 0. -1.
         24    2    1    2    0    0  0.78691109665E+01 -0.49640316146E+02  0.14555104314E+01  0.94904018726E+02  0.80489566810E+02 0.  0.
         23    2    1    2    0    0 -0.83967286783E+02  0.48279587597E+02  0.26122238260E+03  0.29326138292E+03  0.91562447083E+02 0.  0.
        -13    1    3    3    0    0  0.38312949176E+02 -0.32045319500E+02  0.21556979842E+02  0.54401176056E+02  0.00000000000E+00 0.  1.
         14    1    3    3    0    0 -0.30443838209E+02 -0.17594996646E+02 -0.20101469411E+02  0.40502842670E+02  0.00000000000E+00 0. -1.
        -13    1    4    4    0    0 -0.25228675469E+02  0.13308304167E+02  0.61391713951E+01  0.29176813588E+02  0.00000000000E+00 0. -1.
         13    1    4    4    0    0 -0.58738611314E+02  0.34971283430E+02  0.25508321120E+03  0.26408456933E+03  0.00000000000E+00 0.  1.
          1    1    1    2  501    0  0.76098175817E+02  0.13607285487E+01 -0.50205332819E+02  0.91177625481E+02  0.00000000000E+00 0. -1.
<scales pt_clust_5="13000.00000" pt_clust_6="13000.00000" pt_clust_7="13000.00000" pt_clust_8="13000.00000" pt_clust_9="76.11038"></scales>
<clustering>
<clus scale="   76.110">  1  9  2 -1</clus>
<clus scale="   80.490">  5  6 -1 -1</clus>
<clus scale="   91.562">  7  8 -1 -1</clus>
<clus scale="   96.379">  2  5  1 -1</clus>
<clus scale="   76.110">  1  5  2 -1</clus>
</clustering>
</event>
<event>
 9    2  0.1488992E-004  0.1017329E+03  0.7546771E-02  0.1289952E+00
          2   -1    0    0  502    0 -0.00000000000E+00  0.00000000000E+00  0.30594915772E+03  0.30594915772E+03  0.00000000000E+00 0. -1.
         21   -1    0    0  501  502  0.00000000000E+00 -0.00000000000E+00 -0.17551088218E+03  0.17551088218E+03  0.00000000000E+00 0. -1.
         24    2    1    2    0    0 -0.17389055328E+02 -0.40155112612E+01  0.26984432666E+03  0.28129611003E+03  0.77414709935E+02 0.  0.
         23    2    1    2    0    0 -0.46619332077E+01  0.12954753223E+01 -0.58559396908E+02  0.11631987111E+03  0.10038773616E+03 0.  0.
        -13    1    3    3    0    0 -0.24353767853E+02 -0.22011888132E+02  0.45406131916E+02  0.56029867422E+02  0.00000000000E+00 0.  1.
         14    1    3    3    0    0  0.69647125250E+01  0.17996376870E+02  0.22443819474E+03  0.22526624261E+03  0.00000000000E+00 0. -1.
        -11    1    4    4    0    0  0.18045836564E+02  0.46270320881E+02 -0.23531040432E+02  0.54957298656E+02  0.00000000000E+00 0.  1.
         11    1    4    4    0    0 -0.22707769772E+02 -0.44974845559E+02 -0.35028356476E+02  0.61362572457E+02  0.00000000000E+00 0. -1.
          1    1    1    2  501    0  0.22050988536E+02  0.27200359388E+01 -0.80846654207E+02  0.83844058748E+02  0.00000000000E+00 0. -1.
<scales pt_clust_5="13000.00000" pt_clust_6="13000.00000" pt_clust_7="13000.00000" pt_clust_8="13000.00000" pt_clust_9="22.21812"></scales>
<clustering>
<clus scale="   22.218">  2  9  1 -1</clus>
<clus scale="   77.415">  5  6 -1 -1</clus>
<clus scale="   79.151">  1  5  2 -1</clus>
<clus scale="  100.388">  7  8 -1 -1</clus>
<clus scale="   22.218">  2  5  1 -1</clus>
</clustering>
</event>
<event>
 9    2  0.1488992E-004  0.1366079E+03  0.7546771E-02  0.1219829E+00
          4   -1    0    0  502    0 -0.00000000000E+00  0.00000000000E+00  0.43397634467E+02  0.43397634467E+02  0.00000000000E+00 0. -1.
         21   -1    0    0  501  502  0.00000000000E+00 -0.00000000000E+00 -0.10561676193E+04  0.10561676193E+04  0.00000000000E+00 0. -1.
         23    2    1    2    0    0 -0.11251999024E+03 -0.30652579136E+02 -0.12100427921E+03  0.19218410952E+03  0.93232867364E+02 0.  0.
         24    2    1    2    0    0  0.45485068209E+02  0.16806419177E+02 -0.47597139833E+03  0.48599022965E+03  0.85360319454E+02 0.  0.
        -11    1    4    4    0    0  0.61047714766E+02 -0.10025861010E+02 -0.23404818324E+03  0.24208654123E+03  0.00000000000E+00 0.  1.
         12    1    4    4    0    0 -0.15562646557E+02  0.26832280187E+02 -0.24192321509E+03  0.24390368842E+03  0.00000000000E+00 0. -1.
        -11    1    3    3    0    0 -0.10560240641E+03 -0.54125327288E+02 -0.11830739916E+03  0.16756509180E+03  0.00000000000E+00 0.  1.
         11    1    3    3    0    0 -0.69175838271E+01  0.23472748152E+02 -0.26968800476E+01  0.24619017726E+02  0.00000000000E+00 0. -1.
          3    1    1    2  501    0  0.67034922027E+02  0.13846159959E+02 -0.41579430732E+03  0.42139091461E+03  0.00000000000E+00 0. -1.
<scales pt_clust_5="13000.00000" pt_clust_6="13000.00000" pt_clust_7="13000.00000" pt_clust_8="13000.00000" pt_clust_9="68.44996"></scales>
<clustering>
<clus scale="   68.450">  2  9  1 -1</clus>
<clus scale="   85.360">  5  6 -1 -1</clus>
<clus scale="   93.233">  7  8 -1 -1</clus>
<clus scale="  131.361">  2  5  1 -1</clus>
<clus scale="   68.450">  2  5  1 -1</clus>
</clustering>
</event>
<event>
 9    2  0.1488992E-004  0.9844926E+02  0.7546771E-02  0.1289666E+00
          2   -1    0    0  502    0 -0.00000000000E+00  0.00000000000E+00  0.27853571268E+03  0.27853571268E+03  0.00000000000E+00 0. -1.
         21   -1    0    0  501  502  0.00000000000E+00 -0.00000000000E+00 -0.47258204603E+02  0.47258204603E+02  0.00000000000E+00 0. -1.
         24    2    1    2    0    0 -0.48441934987E+01 -0.44671956583E+02  0.12615849614E+03  0.15579370164E+03  0.79603149464E+02 0.  0.
         23    2    1    2    0    0  0.28778178117E+02  0.17442522146E+02  0.73133994007E+02  0.12165438758E+03  0.91207367160E+02 0.  0.
        -13    1    3    3    0    0  0.37200987520E+02 -0.21660174421E+02  0.67275693448E+02  0.79869240371E+02  0.00000000000E+00 0.  1.
         14    1    3    3    0    0 -0.42045181019E+02 -0.23011782162E+02  0.58882802696E+02  0.75924461266E+02  0.00000000000E+00 0. -1.
        -13    1    4    4    0    0  0.21410514237E+02 -0.34108584477E+02  0.51221211430E+02  0.65156873431E+02  0.00000000000E+00 0. -1.
         13    1    4    4    0    0  0.73676638795E+01  0.51551106623E+02  0.21912782577E+02  0.56497514152E+02  0.00000000000E+00 0.  1.
          1    1    1    2  501    0 -0.23933984618E+02  0.27229434437E+02  0.31985017926E+02  0.48345828064E+02  0.00000000000E+00 0. -1.
<scales pt_clust_5="13000.00000" pt_clust_6="13000.00000" pt_clust_7="13000.00000" pt_clust_8="13000.00000" pt_clust_9="36.25297"></scales>
<clustering>
<clus scale="   36.253">  2  9  1 -1</clus>
<clus scale="   79.603">  5  6 -1 -1</clus>
<clus scale="   87.807">  1  5  2 -1</clus>
<clus scale="   91.207">  7  8 -1 -1</clus>
<clus scale="   36.253">  2  5  1 -1</clus>
</clustering>
</event>
<event>
 9    2  0.1488992E-004  0.9277203E+02  0.7546771E-02  0.1303119E+00
          2   -1    0    0  502    0 -0.00000000000E+00  0.00000000000E+00  0.23231160412E+03  0.23231160412E+03  0.00000000000E+00 0. -1.
         21   -1    0    0  501  502  0.00000000000E+00 -0.00000000000E+00 -0.50448512123E+02  0.50448512123E+02  0.00000000000E+00 0. -1.
         24    2    1    2    0    0 -0.14804918902E+01 -0.14490918651E+02  0.13033380695E+03  0.15345770417E+03  0.79688061556E+02 0.  0.
         23    2    1    2    0    0 -0.15470165302E+02  0.28270561072E+02  0.38604098971E+02  0.10392006073E+03  0.90942574891E+02 0.  0.
        -13    1    3    3    0    0 -0.25735188479E+01  0.32887409241E+02  0.63065644029E+02  0.71172186581E+02  0.00000000000E+00 0.  1.
         14    1    3    3    0    0  0.10930269577E+01 -0.47378327892E+02  0.67268162921E+02  0.82285517586E+02  0.00000000000E+00 0. -1.
        -11    1    4    4    0    0 -0.48052374149E+02  0.14983354040E+02  0.45744677959E+02  0.68015491773E+02  0.00000000000E+00 0. -1.
         11    1    4    4    0    0  0.32582208846E+02  0.13287207032E+02 -0.71405789875E+01  0.35904568961E+02  0.00000000000E+00 0.  1.
          1    1    1    2  501    0  0.16950657193E+02 -0.13779642421E+02  0.12925186074E+02  0.25382351340E+02  0.00000000000E+00 0. -1.
<scales pt_clust_5="13000.00000" pt_clust_6="13000.00000" pt_clust_7="13000.00000" pt_clust_8="13000.00000" pt_clust_9="21.84498"></scales>
<clustering>
<clus scale="   21.845">  2  9  1 -1</clus>
<clus scale="   79.688">  5  6 -1 -1</clus>
<clus scale="   81.770">  1  5  2 -1</clus>
<clus scale="   90.943">  7  8 -1 -1</clus>
<clus scale="   21.845">  2  5  1 -1</clus>
</clustering>
</event>
<event>
 9    2  0.1488992E-004  0.1717130E+03  0.7546771E-02  0.1183982E+00
          2   -1    0    0  502    0 -0.00000000000E+00  0.00000000000E+00  0.72324271630E+03  0.72324271630E+03  0.00000000000E+00 0. -1.
         21   -1    0    0  501  502  0.00000000000E+00 -0.00000000000E+00 -0.91251580150E+02  0.91251580150E+02  0.00000000000E+00 0.  1.
         23    2    1    2    0    0  0.63070984870E+02 -0.92488883777E+02  0.39341699227E+03  0.42739165311E+03  0.12391348832E+03 0.  0.
         24    2    1    2    0    0 -0.85437644311E+02  0.12149250883E+03  0.25620135385E+02  0.17102190043E+03  0.80821273946E+02 0.  0.
        -11    1    4    4    0    0 -0.83132620664E+02  0.13186043771E+03  0.31280893125E+02  0.15898648347E+03  0.00000000000E+00 0.  1.
         12    1    4    4    0    0 -0.23050236471E+01 -0.10367928878E+02 -0.56607577393E+01  0.12035416961E+02  0.00000000000E+00 0. -1.
        -13    1    3    3    0    0 -0.36840112643E+02 -0.30895344799E+02  0.14219950175E+03  0.15010800953E+03  0.00000000000E+00 0.  1.
         13    1    3    3    0    0  0.99911097513E+02 -0.61593538978E+02  0.25121749052E+03  0.27728364358E+03  0.00000000000E+00 0. -1.
          1    1    1    2  501    0  0.22366659442E+02 -0.29003625057E+02  0.21295400849E+03  0.21608074290E+03  0.00000000000E+00 0. -1.
<scales pt_clust_5="13000.00000" pt_clust_6="13000.00000" pt_clust_7="13000.00000" pt_clust_8="13000.00000" pt_clust_9="36.62621"></scales>
<clustering>
<clus scale="   36.626">  2  9  1 -1</clus>
<clus scale="   80.821">  5  6 -1 -1</clus>
<clus scale="  123.913">  7  8 -1 -1</clus>
<clus scale="  143.746">  2  5  1 -1</clus>
<clus scale="   36.626">  2  5  1 -1</clus>
</clustering>
</event>
<event>
 9    2  0.1488992E-004  0.1366166E+03  0.7546771E-02  0.1226738E+00
          2   -1    0    0  502    0 -0.00000000000E+00  0.00000000000E+00  0.81316752932E+02  0.81316752932E+02  0.00000000000E+00 0. -1.
         21   -1    0    0  501  502  0.00000000000E+00 -0.00000000000E+00 -0.77566496320E+03  0.77566496320E+03  0.00000000000E+00 0. -1.
         23    2    1    2    0    0 -0.19441997014E+02  0.60031232553E+02 -0.22272378314E+02  0.11585353837E+03  0.94574010108E+02 0.  0.
         24    2    1    2    0    0 -0.98425302140E+02 -0.54927385869E+02 -0.56549201690E+03  0.58213491031E+03  0.79970462111E+02 0.  0.
        -11    1    4    4    0    0 -0.13370733712E+02 -0.40268130794E+02 -0.98743581876E+02  0.10747368906E+03  0.00000000000E+00 0.  1.
         12    1    4    4    0    0 -0.85054568428E+02 -0.14659255075E+02 -0.46674843502E+03  0.47466122126E+03  0.00000000000E+00 0. -1.
        -13    1    3    3    0    0  0.29060598433E+02  0.49915984502E+02 -0.30987817297E+02  0.65546691075E+02  0.00000000000E+00 0.  1.
         13    1    3    3    0    0 -0.48502595448E+02  0.10115248051E+02  0.87154389831E+01  0.50306847297E+02  0.00000000000E+00 0. -1.
          1    1    1    2  501    0  0.11786729915E+03 -0.51038466841E+01 -0.10658381505E+03  0.15899326744E+03  0.00000000000E+00 0. -1.
<scales pt_clust_5="13000.00000" pt_clust_6="13000.00000" pt_clust_7="13000.00000" pt_clust_8="13000.00000" pt_clust_9="110.76479"></scales>
<clustering>
<clus scale="   79.970">  5  6 -1 -1</clus>
<clus scale="   94.574">  7  8 -1 -1</clus>
<clus scale="  113.692">  1  7  2 -1</clus>
<clus scale="  110.765">  2  9  1 -1</clus>
<clus scale="  110.765">  2  5  1 -1</clus>
</clustering>
</event>
<event>
 9    2  0.1488992E-004  0.1141106E+03  0.7546771E-02  0.1255764E+00
         21   -1    0    0  501  502  0.00000000000E+00  0.00000000000E+00  0.32107803800E+02  0.32107803800E+02  0.00000000000E+00 0. -1.
          2   -1    0    0  502    0 -0.00000000000E+00 -0.00000000000E+00 -0.95963089821E+03  0.95963089821E+03  0.00000000000E+00 0. -1.
         24    2    1    2    0    0  0.72226927507E+02  0.52828469880E+02 -0.70518485929E+03  0.71520850692E+03  0.78930009023E+02 0.  0.
         23    2    1    2    0    0 -0.10909144727E+02 -0.17098834591E+02 -0.91425927633E+02  0.12761911566E+03  0.86698090263E+02 0.  0.
        -13    1    3    3    0    0 -0.11675789550E+02  0.29780218609E+02 -0.16710762905E+03  0.17014154451E+03  0.00000000000E+00 0.  1.
         14    1    3    3    0    0  0.83902717056E+02  0.23048251272E+02 -0.53807723024E+03  0.54506696242E+03  0.00000000000E+00 0. -1.
        -13    1    4    4    0    0  0.29699089826E+02 -0.21631030080E+02 -0.75122773295E+02  0.83626362269E+02  0.00000000000E+00 0. -1.
         13    1    4    4    0    0 -0.40608234554E+02  0.45321954885E+01 -0.16303154337E+02  0.43992753390E+02  0.00000000000E+00 0.  1.
          1    1    1    2  501    0 -0.61317782779E+02 -0.35729635289E+02 -0.13091230749E+03  0.14891107942E+03  0.00000000000E+00 0. -1.
<scales pt_clust_5="13000.00000" pt_clust_6="13000.00000" pt_clust_7="13000.00000" pt_clust_8="13000.00000" pt_clust_9="70.96814"></scales>
<clustering>
<clus scale="   70.968">  1  9  2 -1</clus>
<clus scale="   78.930">  5  6 -1 -1</clus>
<clus scale="   86.698">  7  8 -1 -1</clus>
<clus scale="  108.326">  2  5  1 -1</clus>
<clus scale="   70.968">  1  5  2 -1</clus>
</clustering>
</event>
<event>
 9    2  0.1488992E-004  0.2146072E+03  0.7546771E-02  0.1148040E+00
         21   -1    0    0  501  502  0.00000000000E+00  0.00000000000E+00  0.22217039637E+03  0.22217039637E+03  0.00000000000E+00 0.  1.
          4   -1    0    0  502    0 -0.00000000000E+00 -0.00000000000E+00 -0.47041235390E+03  0.47041235390E+03  0.00000000000E+00 0. -1.
         24    2    1    2    0    0  0.73369319080E+02 -0.12768253878E+03 -0.23301560555E+02  0.17014208013E+03  0.81972416193E+02 0.  0.
         23    2    1    2    0    0  0.13136105324E+03  0.12927979479E+03 -0.17974718412E+01  0.21960434205E+03  0.11938946558E+03 0.  0.
        -11    1    3    3    0    0  0.66613431250E+02 -0.10040398665E+03  0.16292524811E+02  0.12158847036E+03  0.00000000000E+00 0.  1.
         12    1    3    3    0    0  0.67558878296E+01 -0.27278552123E+02 -0.39594085366E+02  0.48553609776E+02  0.00000000000E+00 0. -1.
        -11    1    4    4    0    0  0.76111249733E+00  0.26753990370E+02  0.40241326482E+02  0.48329283566E+02  0.00000000000E+00 0.  1.
         11    1    4    4    0    0  0.13059994074E+03  0.10252580441E+03 -0.42038798323E+02  0.17127505848E+03  0.00000000000E+00 0. -1.
          3    1    1    2  501    0 -0.20473037232E+03 -0.15972560091E+01 -0.22314292513E+03  0.30283632809E+03  0.00000000000E+00 0. -1.
<scales pt_clust_5="13000.00000" pt_clust_6="13000.00000" pt_clust_7="13000.00000" pt_clust_8="13000.00000" pt_clust_9="178.33242"></scales>
<clustering>
<clus scale="   81.972">  5  6 -1 -1</clus>
<clus scale="  119.389">  7  8 -1 -1</clus>
<clus scale="  168.539">  2  5  1 -1</clus>
<clus scale="  178.332">  1  9  2 -1</clus>
<clus scale="  178.332">  1  5  2 -1</clus>
</clustering>
</event>
<event>
 9    2  0.1488992E-004  0.1283661E+03  0.7546771E-02  0.1252810E+00
         -3   -1    0    0    0  501 -0.00000000000E+00  0.00000000000E+00  0.24894663019E+03  0.24894663019E+03  0.00000000000E+00 0.  1.
         21   -1    0    0  501  502  0.00000000000E+00 -0.00000000000E+00 -0.10479678402E+03  0.10479678402E+03  0.00000000000E+00 0. -1.
         24    2    1    2    0    0  0.76149150503E-01 -0.94438446413E+01 -0.74241985216E+01  0.81029760278E+02  0.80134333009E+02 0.  0.
         23    2    1    2    0    0  0.19141028720E+02  0.92606881066E+02  0.51233452342E+02  0.14098049552E+03  0.91149438166E+02 0.  0.
        -11    1    3    3    0    0  0.23611789414E+02 -0.92199678913E+01  0.28462311752E+02  0.38113351959E+02  0.00000000000E+00 0.  1.
         12    1    3    3    0    0 -0.23535640264E+02 -0.22387674992E+00 -0.35886510274E+02  0.42916408320E+02  0.00000000000E+00 0. -1.
        -11    1    4    4    0    0  0.27337441963E+02  0.63251680820E+02 -0.12780088591E+02  0.70081677520E+02  0.00000000000E+00 0. -1.
         11    1    4    4    0    0 -0.81964132435E+01  0.29355200246E+02  0.64013540933E+02  0.70898818004E+02  0.00000000000E+00 0.  1.
         -4    1    1    2    0  502 -0.19217177870E+02 -0.83163036425E+02  0.10034059235E+03  0.13173315841E+03  0.00000000000E+00 0.  1.
<scales pt_clust_5="13000.00000" pt_clust_6="13000.00000" pt_clust_7="13000.00000" pt_clust_8="13000.00000" pt_clust_9="90.38608"></scales>
<clustering>
<clus scale="   80.134">  5  6 -1 -1</clus>
<clus scale="   80.689">  1  5  2 -1</clus>
<clus scale="   90.386">  2  9  1 -1</clus>
<clus scale="   91.149">  7  8 -1 -1</clus>
<clus scale="   90.386">  2  5  1 -1</clus>
</clustering>
</event>
<event>
 9    2  0.1488992E-004  0.1124876E+03  0.7546771E-02  0.1261858E+00
         21   -1    0    0  501  502  0.00000000000E+00  0.00000000000E+00  0.12368276680E+03  0.12368276680E+03  0.00000000000E+00 0. -1.
          2   -1    0    0  502    0 -0.00000000000E+00 -0.00000000000E+00 -0.90861297867E+03  0.90861297867E+03  0.00000000000E+00 0. -1.
         24    2    1    2    0    0 -0.50496281261E+02 -0.36285605314E+02 -0.83111234799E+03  0.83730181641E+03  0.80374605558E+02 0.  0.
         23    2    1    2    0    0  0.15659862513E+02  0.35394897406E+02 -0.33479937336E+02  0.10804327995E+03  0.95154685025E+02 0.  0.
        -13    1    3    3    0    0 -0.18653753739E+02 -0.12206230351E+02 -0.45418806059E+02  0.50594688770E+02  0.00000000000E+00 0.  1.
         14    1    3    3    0    0 -0.31842527522E+02 -0.24079374964E+02 -0.78569354193E+03  0.78670712765E+03  0.00000000000E+00 0. -1.
        -13    1    4    4    0    0  0.14366974694E+02 -0.22019905359E+02  0.17225684749E+02  0.31432632867E+02  0.00000000000E+00 0.  1.
         13    1    4    4    0    0  0.12928878184E+01  0.57414802765E+02 -0.50705622085E+02  0.76610647083E+02  0.00000000000E+00 0. -1.
          1    1    1    2  501    0  0.34836418748E+02  0.89070790848E+00  0.79662073462E+02  0.86950649106E+02  0.00000000000E+00 0. -1.
<scales pt_clust_5="13000.00000" pt_clust_6="13000.00000" pt_clust_7="13000.00000" pt_clust_8="13000.00000" pt_clust_9="34.84780"></scales>
<clustering>
<clus scale="   34.848">  1  9  2 -1</clus>
<clus scale="   80.375">  5  6 -1 -1</clus>
<clus scale="   95.155">  7  8 -1 -1</clus>
<clus scale="  100.295">  2  5  1 -1</clus>
<clus scale="   34.848">  1  5  2 -1</clus>
</clustering>
</event>
<event>
 9    2  0.1488992E-004  0.1138154E+03  0.7546771E-02  0.1258035E+00
          2   -1    0    0  502    0 -0.00000000000E+00  0.00000000000E+00  0.19088741953E+03  0.19088741953E+03  0.00000000000E+00 0. -1.
         21   -1    0    0  501  502  0.00000000000E+00 -0.00000000000E+00 -0.19699497922E+03  0.19699497922E+03  0.00000000000E+00 0. -1.
         23    2    1    2    0    0  0.12119933792E+02 -0.46128708738E+02 -0.51182020623E+02  0.11632597404E+03  0.92937518991E+02 0.  0.
         24    2    1    2    0    0 -0.73890170793E+02  0.60418306106E+02 -0.67551355882E+02  0.14231119507E+03  0.81112030594E+02 0.  0.
        -11    1    4    4    0    0 -0.30732700066E+02 -0.18092976928E+02 -0.19647569809E+02  0.40717093055E+02  0.00000000000E+00 0.  1.
         12    1    4    4    0    0 -0.43157470727E+02  0.78511283034E+02 -0.47903786073E+02  0.10159410201E+03  0.00000000000E+00 0. -1.
        -13    1    3    3    0    0  0.57525854464E+01  0.26942442472E+02 -0.12168597807E+01  0.27576587776E+02  0.00000000000E+00 0.  1.
         13    1    3    3    0    0  0.63673483456E+01 -0.73071151210E+02 -0.49965160842E+02  0.88749386263E+02  0.00000000000E+00 0. -1.
          1    1    1    2  501    0  0.61770237002E+02 -0.14289597368E+02  0.11262581682E+03  0.12924522964E+03  0.00000000000E+00 0. -1.
<scales pt_clust_5="13000.00000" pt_clust_6="13000.00000" pt_clust_7="13000.00000" pt_clust_8="13000.00000" pt_clust_9="63.40157"></scales>
<clustering>
<clus scale="   63.402">  2  9  1 -1</clus>
<clus scale="   81.112">  5  6 -1 -1</clus>
<clus scale="   92.938">  7  8 -1 -1</clus>
<clus scale="  104.383">  2  5  1 -1</clus>
<clus scale="   63.402">  2  5  1 -1</clus>
</clustering>
</event>
<event>
 9    2  0.1488992E-004  0.1856648E+03  0.7546771E-02  0.1163504E+00
          2   -1    0    0  502    0 -0.00000000000E+00  0.00000000000E+00  0.73241885658E+03  0.73241885658E+03  0.00000000000E+00 0. -1.
         21   -1    0    0  501  502  0.00000000000E+00 -0.00000000000E+00 -0.35165135674E+03  0.35165135674E+03  0.00000000000E+00 0.  1.
         24    2    1    2    0    0 -0.12868214881E+03 -0.11223727079E+03  0.67344401532E+03  0.69944197985E+03  0.80845166992E+02 0.  0.
         23    2    1    2    0    0  0.81311255161E+02  0.42552793258E+02 -0.70412831217E+02  0.14692868926E+03  0.90596978416E+02 0.  0.
        -13    1    3    3    0    0 -0.33584212170E+02 -0.93548067330E+00  0.59946081850E+02  0.68719045107E+02  0.00000000000E+00 0.  1.
         14    1    3    3    0    0 -0.95097936638E+02 -0.11130179012E+03  0.61349793347E+03  0.63072293474E+03  0.00000000000E+00 0. -1.
        -11    1    4    4    0    0  0.19501428273E+02  0.22785980425E+02 -0.76089721335E+02  0.81787238011E+02  0.00000000000E+00 0.  1.
         11    1    4    4    0    0  0.61809826888E+02  0.19766812832E+02  0.56768901182E+01  0.65141451250E+02  0.00000000000E+00 0. -1.
          1    1    1    2  501    0  0.47370893647E+02  0.69684477536E+02 -0.22226368427E+03  0.23769954421E+03  0.00000000000E+00 0. -1.
<scales pt_clust_5="13000.00000" pt_clust_6="13000.00000" pt_clust_7="13000.00000" pt_clust_8="13000.00000" pt_clust_9="84.26107"></scales>
<clustering>
<clus scale="   80.845">  5  6 -1 -1</clus>
<clus scale="   84.261">  2  9  1 -1</clus>
<clus scale="   90.597">  7  8 -1 -1</clus>
<clus scale="  181.106">  1  5  2 -1</clus>
<clus scale="   84.261">  2  5  1 -1</clus>
</clustering>
</event>
<event>
 9    2  0.1488992E-004  0.1856313E+03  0.7546771E-02  0.1197430E+00
         21   -1    0    0  501  502  0.00000000000E+00  0.00000000000E+00  0.71722403424E+02  0.71722403424E+02  0.00000000000E+00 0. -1.
          2   -1    0    0  502    0 -0.00000000000E+00 -0.00000000000E+00 -0.12567731181E+04  0.12567731181E+04  0.00000000000E+00 0. -1.
         24    2    1    2    0    0 -0.78207422199E+01 -0.22929685034E+02 -0.35880104298E+03  0.36863056957E+03  0.81014652483E+02 0.  0.
         23    2    1    2    0    0 -0.11883646732E+03  0.12250971485E+03 -0.76255105237E+03  0.78661442476E+03  0.90263002218E+02 0.  0.
        -11    1    3    3    0    0 -0.91137277943E+01 -0.29662925650E+02 -0.44480545499E+02  0.54235303266E+02  0.00000000000E+00 0.  1.
         12    1    3    3    0    0  0.12929855744E+01  0.67332406165E+01 -0.31432049748E+03  0.31439526631E+03  0.00000000000E+00 0. -1.
        -13    1    4    4    0    0 -0.73866146082E+02  0.13435592276E+02 -0.29155081844E+03  0.30106245599E+03  0.00000000000E+00 0.  1.
         13    1    4    4    0    0 -0.44970321237E+02  0.10907412257E+03 -0.47100023394E+03  0.48555196877E+03  0.00000000000E+00 0. -1.
          1    1    1    2  501    0  0.12665720954E+03 -0.99580029817E+02 -0.63698619319E+02  0.17325052718E+03  0.00000000000E+00 0. -1.
<scales pt_clust_5="13000.00000" pt_clust_6="13000.00000" pt_clust_7="13000.00000" pt_clust_8="13000.00000" pt_clust_9="162.20841"></scales>
<clustering>
<clus scale="   81.015">  5  6 -1 -1</clus>
<clus scale="   84.559">  2  5  1 -1</clus>
<clus scale="   90.263">  7  8 -1 -1</clus>
<clus scale="  162.208">  1  9  2 -1</clus>
<clus scale="  162.208">  1  5  2 -1</clus>
</clustering>
</event>
<event>
 9    2  0.1488992E-004  0.1031553E+03  0.7546771E-02  0.1276095E+00
         21   -1    0    0  501  502  0.00000000000E+00  0.00000000000E+00  0.61495274551E+02  0.61495274551E+02  0.00000000000E+00 0. -1.
         -1   -1    0    0    0  501 -0.00000000000E+00 -0.00000000000E+00 -0.51331968071E+03  0.51331968071E+03  0.00000000000E+00 0.  1.
         24    2    1    2    0    0  0.78820139487E+01 -0.57454781587E+02 -0.44276046945E+03  0.45384189998E+03  0.81070702437E+02 0.  0.
         23    2    1    2    0    0 -0.22238632152E+02  0.39464654268E+02 -0.62070447504E+01  0.97779974440E+02  0.86431361787E+02 0.  0.
        -11    1    3    3    0    0  0.32134132781E+02 -0.58128492655E+02 -0.22118865765E+03  0.23094576511E+03  0.00000000000E+00 0.  1.
         12    1    3    3    0    0 -0.24252118832E+02  0.67371106786E+00 -0.22157181180E+03  0.22289613487E+03  0.00000000000E+00 0. -1.
        -13    1    4    4    0    0 -0.43733906288E+02  0.20474939632E+02  0.25843075250E+02  0.54769902780E+02  0.00000000000E+00 0. -1.
         13    1    4    4    0    0  0.21495274136E+02  0.18989714636E+02 -0.32050120000E+02  0.43010071660E+02  0.00000000000E+00 0.  1.
         -2    1    1    2    0  502  0.14356618203E+02  0.17990127319E+02 -0.28568919503E+01  0.23193080839E+02  0.00000000000E+00 0.  1.
<scales pt_clust_5="13000.00000" pt_clust_6="13000.00000" pt_clust_7="13000.00000" pt_clust_8="13000.00000" pt_clust_9="23.01645"></scales>
<clustering>
<clus scale="   23.016">  1  9  2 -1</clus>
<clus scale="   81.071">  5  6 -1 -1</clus>
<clus scale="   86.431">  7  8 -1 -1</clus>
<clus scale="   98.707">  2  5  1 -1</clus>
<clus scale="   23.016">  1  5  2 -1</clus>
</clustering>
</event>
<event>
 9    2  0.1488992E-004  0.1048301E+03  0.7546771E-02  0.1280606E+00
         21   -1    0    0  501  502  0.00000000000E+00  0.00000000000E+00  0.78439429564E+02  0.78439429564E+02  0.00000000000E+00 0. -1.
          2   -1    0    0  502    0 -0.00000000000E+00 -0.00000000000E+00 -0.44185925447E+03  0.44185925447E+03  0.00000000000E+00 0. -1.
         23    2    1    2    0    0 -0.33720152846E+02  0.73629338848E+01 -0.20343416809E+03  0.22829112480E+03  0.97673514404E+02 0.  0.
         24    2    1    2    0    0  0.56371297511E+02  0.63221873533E+02  0.99937159940E+00  0.11477474972E+03  0.77443630809E+02 0.  0.
        -11    1    4    4    0    0  0.53730250330E+02  0.11123817093E+02 -0.20195692936E+02  0.58468325788E+02  0.00000000000E+00 0.  1.
         12    1    4    4    0    0  0.26410471813E+01  0.52098056440E+02  0.21195064535E+02  0.56306423929E+02  0.00000000000E+00 0. -1.
        -13    1    3    3    0    0  0.15454019965E+02 -0.20977971900E+02 -0.12122045512E+02  0.28737536873E+02  0.00000000000E+00 0.  1.
         13    1    3    3    0    0 -0.49174172811E+02  0.28340905785E+02 -0.19131212258E+03  0.19955358793E+03  0.00000000000E+00 0. -1.
          1    1    1    2  501    0 -0.22651144665E+02 -0.70584807418E+02 -0.16098502842E+03  0.17723280952E+03  0.00000000000E+00 0. -1.
<scales pt_clust_5="13000.00000" pt_clust_6="13000.00000" pt_clust_7="13000.00000" pt_clust_8="13000.00000" pt_clust_9="74.13026"></scales>
<clustering>
<clus scale="   74.130">  1  9  2 -1</clus>
<clus scale="   77.444">  5  6 -1 -1</clus>
<clus scale="   86.295">  1  5  2 -1</clus>
<clus scale="   97.674">  7  8 -1 -1</clus>
<clus scale="   74.130">  1  5  2 -1</clus>
</clustering>
</event>
<event>
 9    2  0.1488992E-004  0.9957642E+02  0.7546771E-02  0.1282939E+00
         21   -1    0    0  501  502  0.00000000000E+00  0.00000000000E+00  0.56171782978E+02  0.56171782978E+02  0.00000000000E+00 0.  1.
         -1   -1    0    0    0  501 -0.00000000000E+00 -0.00000000000E+00 -0.58383048990E+03  0.58383048990E+03  0.00000000000E+00 0.  1.
         24    2    1    2    0    0  0.58707453822E+02  0.93022525417E+01 -0.48430609168E+03  0.49448048365E+03  0.80158974764E+02 0.  0.
         23    2    1    2    0    0 -0.21810867049E+02  0.20828576247E+02 -0.39794978629E+02  0.97752743424E+02  0.84038175926E+02 0.  0.
        -11    1    3    3    0    0  0.55365870452E+02 -0.17815929553E+02 -0.18493909237E+03  0.19386916940E+03  0.00000000000E+00 0.  1.
         12    1    3    3    0    0  0.33415833705E+01  0.27118182095E+02 -0.29936699931E+03  0.30061131425E+03  0.00000000000E+00 0. -1.
        -13    1    4    4    0    0 -0.49458969020E+02  0.25136550340E+02 -0.42145246422E+02  0.69672502291E+02  0.00000000000E+00 0.  1.
         13    1    4    4    0    0  0.27648101971E+02 -0.43079740928E+01  0.23502677928E+01  0.28080241133E+02  0.00000000000E+00 0. -1.
         -2    1    1    2    0  502 -0.36896586773E+02 -0.30130828789E+02 -0.35576366153E+01  0.47769045807E+02  0.00000000000E+00 0.  1.
<scales pt_clust_5="13000.00000" pt_clust_6="13000.00000" pt_clust_7="13000.00000" pt_clust_8="13000.00000" pt_clust_9="47.63638"></scales>
<clustering>
<clus scale="   47.636">  1  9  2 -1</clus>
<clus scale="   80.159">  5  6 -1 -1</clus>
<clus scale="   84.038">  7  8 -1 -1</clus>
<clus scale="   96.325">  2  5  1 -1</clus>
<clus scale="   47.636">  1  5  2 -1</clus>
</clustering>
</event>
<event>
 9    2  0.1488992E-004  0.8866553E+02  0.7546771E-02  0.1309961E+00
         21   -1    0    0  501  502  0.00000000000E+00  0.00000000000E+00  0.44117329917E+02  0.44117329917E+02  0.00000000000E+00 0. -1.
         -3   -1    0    0    0  501 -0.00000000000E+00 -0.00000000000E+00 -0.42590236031E+03  0.42590236031E+03  0.00000000000E+00 0.  1.
         23    2    1    2    0    0 -0.12373477349E+02 -0.17230316356E+02 -0.23783494792E+03  0.25405658821E+03  0.86771543844E+02 0.  0.
         24    2    1    2    0    0  0.17248759897E+02 -0.79269682961E+01 -0.14622510898E+02  0.84121234151E+02  0.80636267682E+02 0.  0.
        -13    1    4    4    0    0  0.93037663611E+01 -0.18754167404E+02 -0.45699590271E+02  0.50266603371E+02  0.00000000000E+00 0.  1.
         14    1    4    4    0    0  0.79449935357E+01  0.10827199108E+02  0.31077079374E+02  0.33854630779E+02  0.00000000000E+00 0. -1.
        -11    1    3    3    0    0 -0.23084099416E+02  0.30953737490E+02 -0.82961147347E+02  0.91507166275E+02  0.00000000000E+00 0. -1.
         11    1    3    3    0    0  0.10710622067E+02 -0.48184053846E+02 -0.15487380057E+03  0.16254942194E+03  0.00000000000E+00 0.  1.
         -4    1    1    2    0  502 -0.48752825479E+01  0.25157284652E+02 -0.12932757158E+03  0.13184186786E+03  0.00000000000E+00 0.  1.
<scales pt_clust_5="13000.00000" pt_clust_6="13000.00000" pt_clust_7="13000.00000" pt_clust_8="13000.00000" pt_clust_9="25.62534"></scales>
<clustering>
<clus scale="   25.625">  1  9  2 -1</clus>
<clus scale="   80.636">  5  6 -1 -1</clus>
<clus scale="   82.671">  1  5  2 -1</clus>
<clus scale="   86.772">  7  8 -1 -1</clus>
<clus scale="   25.625">  1  5  2 -1</clus>
</clustering>
</event>
<event>
 9    2  0.1488992E-004  0.1328288E+03  0.7546771E-02  0.1225715E+00
         -1   -1    0    0    0  501 -0.00000000000E+00  0.00000000000E+00  0.57005076534E+03  0.57005076534E+03  0.00000000000E+00 0.  1.
         21   -1    0    0  501  502  0.00000000000E+00 -0.00000000000E+00 -0.16769060934E+03  0.16769060934E+03  0.00000000000E+00 0. -1.
         23    2    1    2    0    0  0.94599727667E+01  0.87210668730E+02  0.36086121365E+03  0.38254604806E+03  0.91790367387E+02 0.  0.
         24    2    1    2    0    0  0.63361599512E+02 -0.12315851057E+03  0.14972895801E+03  0.21988470245E+03  0.82145057588E+02 0.  0.
        -13    1    4    4    0    0 -0.16946795337E+02 -0.16460960411E+02  0.42476119131E+02  0.48604298023E+02  0.00000000000E+00 0.  1.
         14    1    4    4    0    0  0.80308394849E+02 -0.10669755016E+03  0.10725283888E+03  0.17128040443E+03  0.00000000000E+00 0. -1.
        -13    1    3    3    0    0 -0.88285924363E+01 -0.18035293418E+02  0.52796700412E+02  0.56486347267E+02  0.00000000000E+00 0. -1.
         13    1    3    3    0    0  0.18288565203E+02  0.10524596215E+03  0.30806451324E+03  0.32605970080E+03  0.00000000000E+00 0.  1.
         -2    1    1    2    0  502 -0.72821572279E+02  0.35947841836E+02 -0.10823001566E+03  0.13531062416E+03  0.00000000000E+00 0.  1.
<scales pt_clust_5="13000.00000" pt_clust_6="13000.00000" pt_clust_7="13000.00000" pt_clust_8="13000.00000" pt_clust_9="81.21101"></scales>
<clustering>
<clus scale="   81.211">  2  9  1 -1</clus>
<clus scale="   82.145">  5  6 -1 -1</clus>
<clus scale="   91.790">  7  8 -1 -1</clus>
<clus scale="  126.356">  2  5  1 -1</clus>
<clus scale="   81.211">  2  5  1 -1</clus>
</clustering>
</event>
<event>
 9    2  0.1488992E-004  0.1564211E+03  0.7546771E-02  0.1194777E+00
         -1   -1    0    0    0  501 -0.00000000000E+00  0.00000000000E+00  0.35608978732E+03  0.35608978732E+03  0.00000000000E+00 0.  1.
         21   -1    0    0  501  502  0.00000000000E+00 -0.00000000000E+00 -0.42077468410E+03  0.42077468410E+03  0.00000000000E+00 0.  1.
         23    2    1    2    0    0 -0.11852006217E+03  0.58619989919E+02  0.30888899097E+03  0.34844703138E+03  0.92301769106E+02 0.  0.
         24    2    1    2    0    0  0.67710591560E+02  0.24309513149E+02 -0.24017040920E+03  0.26332536612E+03  0.80515503773E+02 0.  0.
        -13    1    4    4    0    0  0.28613588362E+02  0.46043318255E+02 -0.18225701925E+03  0.19014822024E+03  0.00000000000E+00 0.  1.
         14    1    4    4    0    0  0.39097003198E+02 -0.21733805106E+02 -0.57913389951E+02  0.73177145879E+02  0.00000000000E+00 0. -1.
        -11    1    3    3    0    0 -0.10510969569E+03  0.78760993915E+02  0.21908209756E+03  0.25543748308E+03  0.00000000000E+00 0.  1.
         11    1    3    3    0    0 -0.13410366480E+02 -0.20141003996E+02  0.89806893418E+02  0.93009548308E+02  0.00000000000E+00 0. -1.
         -2    1    1    2    0  502  0.50809470608E+02 -0.82929503068E+02 -0.13340347855E+03  0.16509207392E+03  0.00000000000E+00 0.  1.
<scales pt_clust_5="13000.00000" pt_clust_6="13000.00000" pt_clust_7="13000.00000" pt_clust_8="13000.00000" pt_clust_9="97.25690"></scales>
<clustering>
<clus scale="   80.516">  5  6 -1 -1</clus>
<clus scale="   92.302">  7  8 -1 -1</clus>
<clus scale="   97.257">  2  9  1 -1</clus>
<clus scale="  149.769">  2  5  1 -1</clus>
<clus scale="   97.257">  2  5  1 -1</clus>
</clustering>
</event>
<event>
 9    2  0.1488992E-004  0.1308951E+03  0.7546771E-02  0.1228788E+00
         21   -1    0    0  501  502  0.00000000000E+00  0.00000000000E+00  0.43468369459E+02  0.43468369459E+02  0.00000000000E+00 0. -1.
          2   -1    0    0  502    0 -0.00000000000E+00 -0.00000000000E+00 -0.72946431842E+03  0.72946431842E+03  0.00000000000E+00 0. -1.
         23    2    1    2    0    0  0.29880872387E+02 -0.10657247296E+03 -0.31707488576E+03  0.34791156632E+03  0.90859321338E+02 0.  0.
         24    2    1    2    0    0  0.43715841139E+02  0.77268228069E+02 -0.14848555245E+03  0.19078399937E+03  0.80430847900E+02 0.  0.
        -11    1    4    4    0    0  0.38033746313E+02  0.46284992171E+01 -0.20354850584E+02  0.43385582927E+02  0.00000000000E+00 0.  1.
         12    1    4    4    0    0  0.56820948259E+01  0.72639728851E+02 -0.12813070187E+03  0.14739841645E+03  0.00000000000E+00 0. -1.
        -13    1    3    3    0    0  0.38588607050E+02 -0.75841147562E+02 -0.29970887084E+03  0.31155475846E+03  0.00000000000E+00 0. -1.
         13    1    3    3    0    0 -0.87077346625E+01 -0.30731325399E+02 -0.17366014914E+02  0.36356807859E+02  0.00000000000E+00 0.  1.
          1    1    1    2  501    0 -0.73596713526E+02  0.29304244892E+02 -0.22043551075E+03  0.23423712218E+03  0.00000000000E+00 0. -1.
<scales pt_clust_5="13000.00000" pt_clust_6="13000.00000" pt_clust_7="13000.00000" pt_clust_8="13000.00000" pt_clust_9="79.21629"></scales>
<clustering>
<clus scale="   79.216">  1  9  2 -1</clus>
<clus scale="   80.431">  5  6 -1 -1</clus>
<clus scale="   90.859">  7  8 -1 -1</clus>
<clus scale="  123.884">  1  5  2 -1</clus>
<clus scale="   79.216">  1  5  2 -1</clus>
</clustering>
</event>
<event>
 9    2  0.1488992E-004  0.1423979E+03  0.7546771E-02  0.1226383E+00
         21   -1    0    0  501  502  0.00000000000E+00  0.00000000000E+00  0.49229975929E+02  0.49229975929E+02  0.00000000000E+00 0. -1.
          2   -1    0    0  502    0 -0.00000000000E+00 -0.00000000000E+00 -0.72754765838E+03  0.72754765838E+03  0.00000000000E+00 0. -1.
         24    2    1    2    0    0  0.54737199994E+02 -0.39661557079E+02 -0.97724981770E+02  0.14064165744E+03  0.75237647315E+02 0.  0.
         23    2    1    2    0    0  0.67554792290E+02 -0.24856590059E+02 -0.32720484770E+03  0.34747817474E+03  0.92176838383E+02 0.  0.
        -13    1    3    3    0    0  0.52915987891E+01 -0.50287443915E+02 -0.49437103016E+02  0.70716724951E+02  0.00000000000E+00 0.  1.
         14    1    3    3    0    0  0.49445601205E+02  0.10625886836E+02 -0.48287878754E+02  0.69924932493E+02  0.00000000000E+00 0. -1.
        -11    1    4    4    0    0 -0.22328664363E+02  0.34101610103E+01 -0.70288474597E+02  0.73828640185E+02  0.00000000000E+00 0.  1.
         11    1    4    4    0    0  0.89883456654E+02 -0.28266751070E+02 -0.25691637310E+03  0.27364953455E+03  0.00000000000E+00 0. -1.
          1    1    1    2  501    0 -0.12229199228E+03  0.64518147138E+02 -0.25338785298E+03  0.28865780212E+03  0.00000000000E+00 0. -1.
<scales pt_clust_5="13000.00000" pt_clust_6="13000.00000" pt_clust_7="13000.00000" pt_clust_8="13000.00000" pt_clust_9="108.53853"></scales>
<clustering>
<clus scale="   75.238">  5  6 -1 -1</clus>
<clus scale="   92.177">  7  8 -1 -1</clus>
<clus scale="  101.143">  2  5  1 -1</clus>
<clus scale="  108.539">  1  9  2 -1</clus>
<clus scale="  108.539">  1  5  2 -1</clus>
</clustering>
</event>
<event>
 9    2  0.1488992E-004  0.1412351E+03  0.7546771E-02  0.1228493E+00
         21   -1    0    0  501  502  0.00000000000E+00  0.00000000000E+00  0.50565223231E+02  0.50565223231E+02  0.00000000000E+00 0. -1.
          2   -1    0    0  502    0 -0.00000000000E+00 -0.00000000000E+00 -0.10071845678E+04  0.10071845678E+04  0.00000000000E+00 0. -1.
         23    2    1    2    0    0 -0.34645829174E+02 -0.16541473447E+02 -0.30862148853E+03  0.32417930834E+03  0.91493425728E+02 0.  0.
         24    2    1    2    0    0  0.14394927221E+03  0.26848509726E+02 -0.58140997331E+03  0.60516711910E+03  0.82142860551E+02 0.  0.
        -11    1    4    4    0    0  0.14299254222E+02  0.14501017498E+02 -0.18923429797E+02  0.27800078688E+02  0.00000000000E+00 0.  1.
         12    1    4    4    0    0  0.12965001799E+03  0.12347492228E+02 -0.56248654351E+03  0.57736704042E+03  0.00000000000E+00 0. -1.
        -11    1    3    3    0    0 -0.54059762323E+02 -0.40602860871E+02 -0.19317429148E+03  0.20466401028E+03  0.00000000000E+00 0.  1.
         11    1    3    3    0    0  0.19413933150E+02  0.24061387424E+02 -0.11544719704E+03  0.11951529806E+03  0.00000000000E+00 0. -1.
          1    1    1    2  501    0 -0.10930344303E+03 -0.10307036279E+02 -0.66587882752E+02  0.12840336361E+03  0.00000000000E+00 0. -1.
<scales pt_clust_5="13000.00000" pt_clust_6="13000.00000" pt_clust_7="13000.00000" pt_clust_8="13000.00000" pt_clust_9="114.89088"></scales>
<clustering>
<clus scale="   82.143">  5  6 -1 -1</clus>
<clus scale="   91.493">  7  8 -1 -1</clus>
<clus scale="   99.222">  2  7  1 -1</clus>
<clus scale="  114.891">  1  9  2 -1</clus>
<clus scale="  114.891">  1  5  2 -1</clus>
</clustering>
</event>
<event>
 9    2  0.1488992E-004  0.1080800E+03  0.7546771E-02  0.1268565E+00
         -1   -1    0    0    0  501 -0.00000000000E+00  0.00000000000E+00  0.87566405369E+02  0.87566405369E+02  0.00000000000E+00 0.  1.
         21   -1    0    0  501  502  0.00000000000E+00 -0.00000000000E+00 -0.22144821689E+03  0.22144821689E+03  0.00000000000E+00 0.  1.
         24    2    1    2    0    0  0.77969031152E+02  0.10940367690E+02 -0.14020977054E+02  0.11286903590E+03  0.79649042709E+02 0.  0.
         23    2    1    2    0    0 -0.22485201193E+02 -0.27748494424E+02 -0.77357823973E+02  0.12426043899E+03  0.90448109718E+02 0.  0.
        -11    1    3    3    0    0  0.82623433600E+02  0.33101565829E+02 -0.75991511140E+01  0.89331363685E+02  0.00000000000E+00 0.  1.
         12    1    3    3    0    0 -0.46544024480E+01 -0.22161198139E+02 -0.64218259400E+01  0.23537672219E+02  0.00000000000E+00 0. -1.
        -13    1    4    4    0    0  0.30055713043E+02 -0.31306090419E+02 -0.44663593625E+02  0.62275627490E+02  0.00000000000E+00 0.  1.
         13    1    4    4    0    0 -0.52540914236E+02  0.35575959956E+01 -0.32694230349E+02  0.61984811495E+02  0.00000000000E+00 0. -1.
         -2    1    1    2    0  502 -0.55483829959E+02  0.16808126734E+02 -0.42503010495E+02  0.71885147370E+02  0.00000000000E+00 0.  1.
<scales pt_clust_5="13000.00000" pt_clust_6="13000.00000" pt_clust_7="13000.00000" pt_clust_8="13000.00000" pt_clust_9="57.97386"></scales>
<clustering>
<clus scale="   57.974">  2  9  1 -1</clus>
<clus scale="   79.649">  5  6 -1 -1</clus>
<clus scale="   90.448">  7  8 -1 -1</clus>
<clus scale="   99.219">  1  5  2 -1</clus>
<clus scale="   57.974">  2  5  1 -1</clus>
</clustering>
</event>
<event>
 9    2  0.1488992E-004  0.2658468E+03  0.7546771E-02  0.1136524E+00
          2   -1    0    0  502    0 -0.00000000000E+00  0.00000000000E+00  0.18070734314E+04  0.18070734314E+04  0.00000000000E+00 0. -1.
         21   -1    0    0  501  502  0.00000000000E+00 -0.00000000000E+00 -0.10240356882E+03  0.10240356882E+03  0.00000000000E+00 0. -1.
         23    2    1    2    0    0 -0.53289609106E+02 -0.38573110141E+02  0.18229028923E+03  0.21656446574E+03  0.96657907131E+02 0.  0.
         24    2    1    2    0    0 -0.25065722038E+01  0.28203670467E+03  0.13684648160E+04  0.13995228819E+04  0.80108417547E+02 0.  0.
        -11    1    4    4    0    0  0.17635398248E+02  0.73833927401E+02  0.23619643580E+03  0.24809516801E+03  0.00000000000E+00 0.  1.
         12    1    4    4    0    0 -0.20141970452E+02  0.20820277727E+03  0.11322683802E+04  0.11514277139E+04  0.00000000000E+00 0. -1.
        -11    1    3    3    0    0 -0.17506572623E+02  0.32046393297E+02  0.43625123511E+02  0.56891148782E+02  0.00000000000E+00 0.  1.
         11    1    3    3    0    0 -0.35783036483E+02 -0.70619503438E+02  0.13866516572E+03  0.15967331696E+03  0.00000000000E+00 0. -1.
          1    1    1    2  501    0  0.55796181309E+02 -0.24346359453E+03  0.15391475730E+03  0.29338965255E+03  0.00000000000E+00 0. -1.
<scales pt_clust_5="13000.00000" pt_clust_6="13000.00000" pt_clust_7="13000.00000" pt_clust_8="13000.00000" pt_clust_9="253.48994"></scales>
<clustering>
<clus scale="   80.108">  5  6 -1 -1</clus>
<clus scale="   96.658">  7  8 -1 -1</clus>
<clus scale="  116.921">  1  7  2 -1</clus>
<clus scale="  253.490">  2  9  1 -1</clus>
<clus scale="  253.490">  2  5  1 -1</clus>
</clustering>
</event>
<event>
 9    2  0.1488992E-004  0.1592452E+03  0.7546771E-02  0.1202798E+00
          2   -1    0    0  502    0 -0.00000000000E+00  0.00000000000E+00  0.10387857099E+04  0.10387857099E+04  0.00000000000E+00 0. -1.
         21   -1    0    0  501  502  0.00000000000E+00 -0.00000000000E+00 -0.56483990963E+02  0.56483990963E+02  0.00000000000E+00 0.  1.
         23    2    1    2    0    0 -0.70138421005E+02 -0.29848631230E+02  0.14748694096E+03  0.18963678705E+03  0.91648100706E+02 0.  0.
         24    2    1    2    0    0 -0.40467627717E+02  0.13164330462E+03  0.21498064163E+03  0.26783183971E+03  0.80929781562E+02 0.  0.
        -11    1    4    4    0    0 -0.62127497446E+02  0.11848110466E+03  0.17156577828E+03  0.21756013968E+03  0.00000000000E+00 0.  1.
         12    1    4    4    0    0  0.21659869729E+02  0.13162199958E+02  0.43414863354E+02  0.50271700035E+02  0.00000000000E+00 0. -1.
        -11    1    3    3    0    0 -0.66856724674E+01  0.20344911959E+02  0.84309297213E+02  0.86986615382E+02  0.00000000000E+00 0. -1.
         11    1    3    3    0    0 -0.63452748538E+02 -0.50193543190E+02  0.63177643746E+02  0.10265017167E+03  0.00000000000E+00 0.  1.
          1    1    1    2  501    0  0.11060604872E+03 -0.10179467339E+03  0.61983413639E+03  0.63780107414E+03  0.00000000000E+00 0. -1.
<scales pt_clust_5="13000.00000" pt_clust_6="13000.00000" pt_clust_7="13000.00000" pt_clust_8="13000.00000" pt_clust_9="137.14743"></scales>
<clustering>
<clus scale="   80.930">  5  6 -1 -1</clus>
<clus scale="   91.648">  7  8 -1 -1</clus>
<clus scale="  119.205">  1  7  2 -1</clus>
<clus scale="  137.147">  2  9  1 -1</clus>
<clus scale="  137.147">  2  5  1 -1</clus>
</clustering>
</event>
<event>
 9    2  0.1488992E-004  0.3199703E+03  0.7546771E-02  0.1076031E+00
         21   -1    0    0  501  502  0.00000000000E+00  0.00000000000E+00  0.77432391478E+03  0.77432391478E+03  0.00000000000E+00 0.  1.
          4   -1    0    0  502    0 -0.00000000000E+00 -0.00000000000E+00 -0.27119912814E+03  0.27119912814E+03  0.00000000000E+00 0. -1.
         24    2    1    2    0    0 -0.31847933851E+03  0.16561836263E+03 -0.37903928780E+02  0.36977023586E+03  0.80217132871E+02 0.  0.
         23    2    1    2    0    0  0.17660941486E+03 -0.13204126623E+03  0.22714488561E+03  0.32966386582E+03  0.91965667300E+02 0.  0.
        -13    1    3    3    0    0 -0.24215635974E+02 -0.16525675894E+00  0.14126975996E+02  0.28035616388E+02  0.00000000000E+00 0.  1.
         14    1    3    3    0    0 -0.29426370254E+03  0.16578361939E+03 -0.52030904776E+02  0.34173461947E+03  0.00000000000E+00 0. -1.
        -11    1    4    4    0    0  0.85353543654E+02 -0.77742802495E+02  0.56155456780E+02  0.12838460219E+03  0.00000000000E+00 0. -1.
         11    1    4    4    0    0  0.91255871208E+02 -0.54298463739E+02  0.17098942883E+03  0.20127926363E+03  0.00000000000E+00 0.  1.
          3    1    1    2  501    0  0.14186992365E+03 -0.33577096400E+02  0.31388382981E+03  0.34608894125E+03  0.00000000000E+00 0. -1.
<scales pt_clust_5="13000.00000" pt_clust_6="13000.00000" pt_clust_7="13000.00000" pt_clust_8="13000.00000" pt_clust_9="145.78922"></scales>
<clustering>
<clus scale="   80.217">  5  6 -1 -1</clus>
<clus scale="   91.966">  7  8 -1 -1</clus>
<clus scale="  145.789">  1  9  2 -1</clus>
<clus scale="  316.793">  2  5  1 -1</clus>
<clus scale="  145.789">  1  5  2 -1</clus>
</clustering>
</event>
<event>
 9    2  0.1488992E-004  0.9253032E+02  0.7546771E-02  0.1301386E+00
         21   -1    0    0  501  502  0.00000000000E+00  0.00000000000E+00  0.54316511993E+02  0.54316511993E+02  0.00000000000E+00 0.  1.
         -1   -1    0    0    0  501 -0.00000000000E+00 -0.00000000000E+00 -0.61225138874E+03  0.61225138874E+03  0.00000000000E+00 0.  1.
         24    2    1    2    0    0  0.68432167283E+01  0.90261007498E+01 -0.33403396059E+03  0.34379144401E+03  0.80533036946E+02 0.  0.
         23    2    1    2    0    0 -0.80804766871E+02 -0.34173336548E+02 -0.20894536574E+03  0.24323802037E+03  0.88370478164E+02 0.  0.
        -11    1    3    3    0    0  0.25799834709E+02  0.19698985587E+01 -0.32326500220E+02  0.41406697378E+02  0.00000000000E+00 0.  1.
         12    1    3    3    0    0 -0.18956617981E+02  0.70562021911E+01 -0.30170746037E+03  0.30238474664E+03  0.00000000000E+00 0. -1.
        -11    1    4    4    0    0 -0.41331844576E+02  0.26169991668E+02 -0.11368955665E+03  0.12376794872E+03  0.00000000000E+00 0. -1.
         11    1    4    4    0    0 -0.39472922295E+02 -0.60343328215E+02 -0.95255809088E+02  0.11947007165E+03  0.00000000000E+00 0.  1.
         -2    1    1    2    0  502  0.73961550143E+02  0.25147235798E+02 -0.14955550415E+02  0.79538436344E+02  0.00000000000E+00 0.  1.
<scales pt_clust_5="13000.00000" pt_clust_6="13000.00000" pt_clust_7="13000.00000" pt_clust_8="13000.00000" pt_clust_9="78.11974"></scales>
<clustering>
<clus scale="   78.120">  1  9  2 -1</clus>
<clus scale="   80.533">  5  6 -1 -1</clus>
<clus scale="   85.077">  2  5  1 -1</clus>
<clus scale="   88.370">  7  8 -1 -1</clus>
<clus scale="   78.120">  1  5  2 -1</clus>
</clustering>
</event>
<event>
 9    2  0.1488992E-004  0.1259270E+03  0.7546771E-02  0.1235634E+00
         21   -1    0    0  501  502  0.00000000000E+00  0.00000000000E+00  0.36259473052E+03  0.36259473052E+03  0.00000000000E+00 0.  1.
          2   -1    0    0  502    0 -0.00000000000E+00 -0.00000000000E+00 -0.10495264093E+03  0.10495264093E+03  0.00000000000E+00 0. -1.
         23    2    1    2    0    0  0.62291041596E+02  0.68225713287E+02 -0.28990024700E+02  0.13268351417E+03  0.90716986190E+02 0.  0.
         24    2    1    2    0    0 -0.15195783272E+02 -0.79017992460E+02  0.14787763871E+03  0.18793788565E+03  0.83535009847E+02 0.  0.
        -13    1    4    4    0    0 -0.32755490738E+01 -0.93243728516E+02  0.10089602189E+03  0.13742317622E+03  0.00000000000E+00 0.  1.
         14    1    4    4    0    0 -0.11920234198E+02  0.14225736056E+02  0.46981616814E+02  0.50514709424E+02  0.00000000000E+00 0. -1.
        -13    1    3    3    0    0 -0.20703523207E+02  0.11134841698E+02 -0.21187820849E+02  0.31647185106E+02  0.00000000000E+00 0.  1.
         13    1    3    3    0    0  0.82994564803E+02  0.57090871589E+02 -0.78022038514E+01  0.10103632906E+03  0.00000000000E+00 0. -1.
          1    1    1    2  501    0 -0.47095258324E+02  0.10792279173E+02  0.13875447559E+03  0.14692597164E+03  0.00000000000E+00 0. -1.
<scales pt_clust_5="13000.00000" pt_clust_6="13000.00000" pt_clust_7="13000.00000" pt_clust_8="13000.00000" pt_clust_9="48.31601"></scales>
<clustering>
<clus scale="   48.316">  1  9  2 -1</clus>
<clus scale="   83.535">  5  6 -1 -1</clus>
<clus scale="   90.717">  7  8 -1 -1</clus>
<clus scale="  120.856">  1  5  2 -1</clus>
<clus scale="   48.316">  1  5  2 -1</clus>
</clustering>
</event>
<event>
 9    2  0.1488992E-004  0.1092411E+03  0.7546771E-02  0.1268721E+00
          2   -1    0    0  502    0 -0.00000000000E+00  0.00000000000E+00  0.52767617507E+03  0.52767617507E+03  0.00000000000E+00 0. -1.
         21   -1    0    0  501  502  0.00000000000E+00 -0.00000000000E+00 -0.17207098602E+03  0.17207098602E+03  0.00000000000E+00 0. -1.
         24    2    1    2    0    0  0.16526226974E+02 -0.47693927602E+02  0.49185607863E+03  0.50127896578E+03  0.82524981278E+02 0.  0.
         23    2    1    2    0    0 -0.12950017812E+02  0.73008907656E+01 -0.71490422081E+02  0.12205939445E+03  0.97809045377E+02 0.  0.
        -13    1    3    3    0    0  0.38937477040E+02 -0.58292301379E+02  0.31586145218E+03  0.32354686908E+03  0.00000000000E+00 0.  1.
         14    1    3    3    0    0 -0.22411250065E+02  0.10598373777E+02  0.17599462645E+03  0.17773209670E+03  0.00000000000E+00 0. -1.
        -11    1    4    4    0    0 -0.26226655586E+02 -0.39445138042E+02 -0.20476811573E+02  0.51604807824E+02  0.00000000000E+00 0.  1.
         11    1    4    4    0    0  0.13276637774E+02  0.46746028808E+02 -0.51013610507E+02  0.70454586628E+02  0.00000000000E+00 0. -1.
          1    1    1    2  501    0 -0.35762091626E+01  0.40393036837E+02 -0.64760467502E+02  0.76408800854E+02  0.00000000000E+00 0. -1.
<scales pt_clust_5="13000.00000" pt_clust_6="13000.00000" pt_clust_7="13000.00000" pt_clust_8="13000.00000" pt_clust_9="40.55104"></scales>
<clustering>
<clus scale="   40.551">  2  9  1 -1</clus>
<clus scale="   82.525">  5  6 -1 -1</clus>
<clus scale="   95.799">  1  5  2 -1</clus>
<clus scale="   97.809">  7  8 -1 -1</clus>
<clus scale="   40.551">  2  5  1 -1</clus>
</clustering>
</event>
<event>
 9    2  0.1488992E-004  0.8889079E+02  0.7546771E-02  0.1310643E+00
          2   -1    0    0  502    0 -0.00000000000E+00  0.00000000000E+00  0.12903576067E+03  0.12903576067E+03  0.00000000000E+00 0. -1.
         21   -1    0    0  501  502  0.00000000000E+00 -0.00000000000E+00 -0.15799304666E+03  0.15799304666E+03  0.00000000000E+00 0.  1.
         24    2    1    2    0    0  0.19385478358E+01 -0.49102598350E+00  0.89254552783E+02  0.12055011618E+03  0.81005902527E+02 0.  0.
         23    2    1    2    0    0  0.90423893200E+01 -0.18785635240E+02 -0.75927176136E+02  0.11872763522E+03  0.88863099159E+02 0.  0.
        -11    1    3    3    0    0 -0.16308870551E+02 -0.15869706124E+02 -0.50193446577E+01  0.23302803521E+02  0.00000000000E+00 0.  1.
         12    1    3    3    0    0  0.18247418387E+02  0.15378680141E+02  0.94273897441E+02  0.97247312659E+02  0.00000000000E+00 0. -1.
        -13    1    4    4    0    0  0.17479017202E+02  0.26649559300E+02 -0.24991156874E+01  0.31968119001E+02  0.00000000000E+00 0. -1.
         13    1    4    4    0    0 -0.84366278819E+01 -0.45435194539E+02 -0.73428060448E+02  0.86759516216E+02  0.00000000000E+00 0.  1.
          1    1    1    2  501    0 -0.10980937156E+02  0.19276661223E+02 -0.42284662638E+02  0.47751055938E+02  0.00000000000E+00 0. -1.
<scales pt_clust_5="13000.00000" pt_clust_6="13000.00000" pt_clust_7="13000.00000" pt_clust_8="13000.00000" pt_clust_9="22.18492"></scales>
<clustering>
<clus scale="   22.185">  2  9  1 -1</clus>
<clus scale="   81.006">  5  6 -1 -1</clus>
<clus scale="   81.036">  1  5  2 -1</clus>
<clus scale="   88.863">  7  8 -1 -1</clus>
<clus scale="   22.185">  2  5  1 -1</clus>
</clustering>
</event>
<event>
 9    2  0.1488992E-004  0.1943495E+03  0.7546771E-02  0.1169834E+00
         21   -1    0    0  501  502  0.00000000000E+00  0.00000000000E+00  0.22487193195E+03  0.22487193195E+03  0.00000000000E+00 0.  1.
          2   -1    0    0  502    0 -0.00000000000E+00 -0.00000000000E+00 -0.44770219992E+03  0.44770219992E+03  0.00000000000E+00 0. -1.
         24    2    1    2    0    0  0.70556994922E+02 -0.84823438007E+02 -0.15404347699E+03  0.20581669139E+03  0.80360515701E+02 0.  0.
         23    2    1    2    0    0  0.12506694350E+02 -0.14978257672E+03  0.61365916187E+02  0.18590287704E+03  0.90569676646E+02 0.  0.
        -11    1    3    3    0    0  0.69523236059E+02 -0.22262993172E+02 -0.70936361514E+02  0.10178943266E+03  0.00000000000E+00 0.  1.
         12    1    3    3    0    0  0.10337588625E+01 -0.62560444834E+02 -0.83107115480E+02  0.10402725873E+03  0.00000000000E+00 0. -1.
        -11    1    4    4    0    0 -0.16923122205E+02 -0.45971488285E+02  0.60696229583E+02  0.77998731309E+02  0.00000000000E+00 0.  1.
         11    1    4    4    0    0  0.29429816555E+02 -0.10381108844E+03  0.66968660475E+00  0.10790414573E+03  0.00000000000E+00 0. -1.
          1    1    1    2  501    0 -0.83063689271E+02  0.23460601473E+03 -0.13015270717E+03  0.28085456344E+03  0.00000000000E+00 0. -1.
<scales pt_clust_5="13000.00000" pt_clust_6="13000.00000" pt_clust_7="13000.00000" pt_clust_8="13000.00000" pt_clust_9="171.95612"></scales>
<clustering>
<clus scale="   80.361">  5  6 -1 -1</clus>
<clus scale="   90.570">  7  8 -1 -1</clus>
<clus scale="  136.496">  2  5  1 -1</clus>
<clus scale="  171.956">  1  9  2 -1</clus>
<clus scale="  171.956">  1  5  2 -1</clus>
</clustering>
</event>
<event>
 9    2  0.1488992E-004  0.9652455E+02  0.7546771E-02  0.1292577E+00
         21   -1    0    0  501  502  0.00000000000E+00  0.00000000000E+00  0.61888892942E+02  0.61888892942E+02  0.00000000000E+00 0. -1.
          2   -1    0    0  502    0 -0.00000000000E+00 -0.00000000000E+00 -0.57995777530E+03  0.57995777530E+03  0.00000000000E+00 0. -1.
         24    2    1    2    0    0  0.20984738867E+02 -0.28952588787E+02 -0.51495145422E+03  0.52254777241E+03  0.81256154124E+02 0.  0.
         23    2    1    2    0    0 -0.14091006154E+02  0.86347689211E+01  0.12799506530E+02  0.92583990556E+02  0.90193415786E+02 0.  0.
        -13    1    3    3    0    0 -0.24766539933E+02 -0.23078689437E+02 -0.11310153645E+03  0.11805915871E+03  0.00000000000E+00 0.  1.
         14    1    3    3    0    0  0.45751278800E+02 -0.58738993496E+01 -0.40184991777E+03  0.40448861370E+03  0.00000000000E+00 0. -1.
        -11    1    4    4    0    0  0.24971614897E+02  0.69606706608E+01 -0.26553881120E+02  0.37109851645E+02  0.00000000000E+00 0.  1.
         11    1    4    4    0    0 -0.39062621051E+02  0.16740982602E+01  0.39353387650E+02  0.55474138911E+02  0.00000000000E+00 0. -1.
          1    1    1    2  501    0 -0.68937327132E+01  0.20317819866E+02 -0.15916934669E+02  0.26714905279E+02  0.00000000000E+00 0. -1.
<scales pt_clust_5="13000.00000" pt_clust_6="13000.00000" pt_clust_7="13000.00000" pt_clust_8="13000.00000" pt_clust_9="21.45547"></scales>
<clustering>
<clus scale="   21.455">  1  9  2 -1</clus>
<clus scale="   81.256">  5  6 -1 -1</clus>
<clus scale="   88.231">  2  5  1 -1</clus>
<clus scale="   90.193">  7  8 -1 -1</clus>
<clus scale="   21.455">  1  5  2 -1</clus>
</clustering>
</event>
<event>
 9    2  0.1488992E-004  0.1079708E+03  0.7546771E-02  0.1269610E+00
         21   -1    0    0  501  502  0.00000000000E+00  0.00000000000E+00  0.27523096751E+03  0.27523096751E+03  0.00000000000E+00 0.  1.
          2   -1    0    0  502    0 -0.00000000000E+00 -0.00000000000E+00 -0.71206457198E+02  0.71206457198E+02  0.00000000000E+00 0. -1.
         23    2    1    2    0    0  0.12072515602E+02  0.59947100396E+02  0.85546777223E+00  0.11157378989E+03  0.93319763645E+02 0.  0.
         24    2    1    2    0    0 -0.15895313236E+01 -0.32937252913E+02  0.16703822158E+03  0.18855099028E+03  0.81008142979E+02 0.  0.
        -13    1    4    4    0    0 -0.20695067335E+01 -0.47234855524E+02  0.16769260277E+03  0.17423037467E+03  0.00000000000E+00 0.  1.
         14    1    4    4    0    0  0.47997540990E+00  0.14297602612E+02 -0.65438118707E+00  0.14320615614E+02  0.00000000000E+00 0. -1.
        -11    1    3    3    0    0  0.41664667378E+02 -0.46212750942E+00  0.12063833788E+02  0.43378498767E+02  0.00000000000E+00 0.  1.
         11    1    3    3    0    0 -0.29592151776E+02  0.60409227905E+02 -0.11208366015E+02  0.68195291124E+02  0.00000000000E+00 0. -1.
          1    1    1    2  501    0 -0.10482984279E+02 -0.27009847483E+02  0.36130820961E+02  0.46312644534E+02  0.00000000000E+00 0. -1.
<scales pt_clust_5="13000.00000" pt_clust_6="13000.00000" pt_clust_7="13000.00000" pt_clust_8="13000.00000" pt_clust_9="28.97283"></scales>
<clustering>
<clus scale="   28.973">  1  9  2 -1</clus>
<clus scale="   81.008">  5  6 -1 -1</clus>
<clus scale="   93.320">  7  8 -1 -1</clus>
<clus scale="   97.527">  1  5  2 -1</clus>
<clus scale="   28.973">  1  5  2 -1</clus>
</clustering>
</event>
<event>
 9    2  0.1488992E-004  0.1037847E+03  0.7546771E-02  0.1278217E+00
         -3   -1    0    0    0  501 -0.00000000000E+00  0.00000000000E+00  0.18733622566E+03  0.18733622566E+03  0.00000000000E+00 0.  1.
         21   -1    0    0  501  502  0.00000000000E+00 -0.00000000000E+00 -0.95442320271E+02  0.95442320271E+02  0.00000000000E+00 0. -1.
         24    2    1    2    0    0 -0.93402571786E+01 -0.36170965218E+02  0.19525671009E+02  0.90798022252E+02  0.80420456897E+02 0.  0.
         23    2    1    2    0    0  0.63742877368E+02  0.30125153533E+02  0.23801758162E+02  0.11880334462E+03  0.92612265447E+02 0.  0.
        -13    1    3    3    0    0 -0.15837662417E+02 -0.56776270816E+02  0.30715666343E+02  0.66466748360E+02  0.00000000000E+00 0.  1.
         14    1    3    3    0    0  0.64974052380E+01  0.20605305598E+02 -0.11189995335E+02  0.24331273892E+02  0.00000000000E+00 0. -1.
        -11    1    4    4    0    0  0.30617971947E+01 -0.20607475918E+02  0.33155071150E+02  0.39157392773E+02  0.00000000000E+00 0. -1.
         11    1    4    4    0    0  0.60681080173E+02  0.50732629452E+02 -0.93533129882E+01  0.79645951849E+02  0.00000000000E+00 0.  1.
         -4    1    1    2    0  502 -0.54402620189E+02  0.60458116846E+01  0.48566476215E+02  0.73177179054E+02  0.00000000000E+00 0.  1.
<scales pt_clust_5="13000.00000" pt_clust_6="13000.00000" pt_clust_7="13000.00000" pt_clust_8="13000.00000" pt_clust_9="54.73755"></scales>
<clustering>
<clus scale="   54.738">  2  9  1 -1</clus>
<clus scale="   80.420">  5  6 -1 -1</clus>
<clus scale="   92.612">  7  8 -1 -1</clus>
<clus scale="   93.068">  1  5  2 -1</clus>
<clus scale="   54.738">  2  5  1 -1</clus>
</clustering>
</event>
<event>
 9    2  0.1488992E-004  0.9468674E+02  0.7546771E-02  0.1305149E+00
          2   -1    0    0  502    0 -0.00000000000E+00  0.00000000000E+00  0.58903560172E+03  0.58903560172E+03  0.00000000000E+00 0. -1.
         21   -1    0    0  501  502  0.00000000000E+00 -0.00000000000E+00 -0.22533352452E+02  0.22533352452E+02  0.00000000000E+00 0.  1.
         23    2    1    2    0    0  0.86873490106E+01 -0.12049447387E+02  0.34466572241E+03  0.35704555715E+03  0.92013099425E+02 0.  0.
         24    2    1    2    0    0 -0.38264093413E+02  0.17971550535E+02  0.10270694150E+03  0.13163436893E+03  0.70652486007E+02 0.  0.
        -13    1    4    4    0    0 -0.49946156684E+02  0.57308201500E+01  0.33557300325E+02  0.60444629804E+02  0.00000000000E+00 0.  1.
         14    1    4    4    0    0  0.11682063271E+02  0.12240730385E+02  0.69149641177E+02  0.71189739131E+02  0.00000000000E+00 0. -1.
        -11    1    3    3    0    0  0.49336281018E+02 -0.14239274316E+02  0.16403489987E+03  0.17188447845E+03  0.00000000000E+00 0. -1.
         11    1    3    3    0    0 -0.40648932007E+02  0.21898269290E+01  0.18063082254E+03  0.18516107871E+03  0.00000000000E+00 0.  1.
          1    1    1    2  501    0  0.29576744403E+02 -0.59221031486E+01  0.11912958536E+03  0.12288902808E+03  0.00000000000E+00 0. -1.
<scales pt_clust_5="13000.00000" pt_clust_6="13000.00000" pt_clust_7="13000.00000" pt_clust_8="13000.00000" pt_clust_9="30.16382"></scales>
<clustering>
<clus scale="   30.164">  2  9  1 -1</clus>
<clus scale="   70.652">  5  6 -1 -1</clus>
<clus scale="   74.101">  2  5  1 -1</clus>
<clus scale="   92.013">  7  8 -1 -1</clus>
<clus scale="   30.164">  2  5  1 -1</clus>
</clustering>
</event>
<event>
 9    2  0.1488992E-004  0.1246304E+03  0.7546771E-02  0.1238597E+00
         -3   -1    0    0    0  501 -0.00000000000E+00  0.00000000000E+00  0.33492873961E+03  0.33492873961E+03  0.00000000000E+00 0.  1.
         21   -1    0    0  501  502  0.00000000000E+00 -0.00000000000E+00 -0.54700328810E+02  0.54700328810E+02  0.00000000000E+00 0. -1.
         23    2    1    2    0    0 -0.69006433747E+02 -0.33626255536E+02  0.14174443811E+03  0.18475232651E+03  0.90273603320E+02 0.  0.
         24    2    1    2    0    0  0.83958273453E+02  0.51625630545E+02  0.10934949199E+03  0.16750893521E+03  0.79923304288E+02 0.  0.
        -13    1    4    4    0    0  0.97286413668E+02  0.31298350715E+02  0.82957679574E+02  0.13162906078E+03  0.00000000000E+00 0.  1.
         14    1    4    4    0    0 -0.13328140215E+02  0.20327279830E+02  0.26391812411E+02  0.35879874432E+02  0.00000000000E+00 0. -1.
        -11    1    3    3    0    0 -0.47716011248E+02 -0.64536612204E+02  0.10565852546E+03  0.13268577937E+03  0.00000000000E+00 0.  1.
         11    1    3    3    0    0 -0.21290422499E+02  0.30910356668E+02  0.36085912647E+02  0.52066547140E+02  0.00000000000E+00 0. -1.
         -4    1    1    2    0  502 -0.14951839707E+02 -0.17999375009E+02  0.29134480703E+02  0.37367806694E+02  0.00000000000E+00 0.  1.
<scales pt_clust_5="13000.00000" pt_clust_6="13000.00000" pt_clust_7="13000.00000" pt_clust_8="13000.00000" pt_clust_9="23.39948"></scales>
<clustering>
<clus scale="   23.399">  2  9  1 -1</clus>
<clus scale="   79.923">  5  6 -1 -1</clus>
<clus scale="   90.274">  7  8 -1 -1</clus>
<clus scale="  117.351">  2  5  1 -1</clus>
<clus scale="   23.399">  2  5  1 -1</clus>
</clustering>
</event>
<event>
 9    2  0.1488992E-004  0.1114440E+03  0.7546771E-02  0.1266018E+00
          2   -1    0    0  502    0 -0.00000000000E+00  0.00000000000E+00  0.39722526847E+03  0.39722526847E+03  0.00000000000E+00 0. -1.
         21   -1    0    0  501  502  0.00000000000E+00 -0.00000000000E+00 -0.56706553655E+02  0.56706553655E+02  0.00000000000E+00 0.  1.
         23    2    1    2    0    0 -0.14078152909E+02  0.51935328990E+02  0.15341279626E+03  0.18675732926E+03  0.91909418388E+02 0.  0.
         24    2    1    2    0    0  0.17400939386E+02 -0.82541846731E+02  0.40838807041E+02  0.11770252978E+03  0.71204832723E+02 0.  0.
        -11    1    4    4    0    0 -0.10861351735E+01 -0.78873318825E+02  0.72835385876E+01  0.79216349616E+02  0.00000000000E+00 0.  1.
         12    1    4    4    0    0  0.18487074560E+02 -0.36685279061E+01  0.33555268454E+02  0.38486180166E+02  0.00000000000E+00 0. -1.
        -13    1    3    3    0    0  0.33635668709E+02 -0.16754962726E+01  0.37290793295E+02  0.50247077147E+02  0.00000000000E+00 0. -1.
         13    1    3    3    0    0 -0.47713821617E+02  0.53610825263E+02  0.11612200297E+03  0.13651025211E+03  0.00000000000E+00 0.  1.
          1    1    1    2  501    0 -0.33227864775E+01  0.30606517741E+02  0.14626711152E+03  0.14947196309E+03  0.00000000000E+00 0. -1.
<scales pt_clust_5="13000.00000" pt_clust_6="13000.00000" pt_clust_7="13000.00000" pt_clust_8="13000.00000" pt_clust_9="30.78637"></scales>
<clustering>
<clus scale="   30.786">  2  9  1 -1</clus>
<clus scale="   71.205">  5  6 -1 -1</clus>
<clus scale="   91.909">  7  8 -1 -1</clus>
<clus scale="   95.092">  2  5  1 -1</clus>
<clus scale="   30.786">  2  5  1 -1</clus>
</clustering>
</event>
<event>
 9    2  0.1488992E-004  0.1248934E+03  0.7546771E-02  0.1238516E+00
          4   -1    0    0  502    0 -0.00000000000E+00  0.00000000000E+00  0.61384022718E+02  0.61384022718E+02  0.00000000000E+00 0. -1.
         21   -1    0    0  501  502  0.00000000000E+00 -0.00000000000E+00 -0.59700627523E+03  0.59700627523E+03  0.00000000000E+00 0.  1.
         23    2    1    2    0    0  0.73799832837E+02  0.85690177180E+01 -0.15992846769E+03  0.19977772440E+03  0.93883869743E+02 0.  0.
         24    2    1    2    0    0 -0.10151993300E+03  0.22946488374E+02 -0.39171876702E+03  0.41368562026E+03  0.82821264465E+02 0.  0.
        -13    1    4    4    0    0 -0.69557341748E+02 -0.10522136892E+02 -0.32474741282E+03  0.33227973349E+03  0.00000000000E+00 0.  1.
         14    1    4    4    0    0 -0.31962591256E+02  0.33468625266E+02 -0.66971354198E+02  0.81405886766E+02  0.00000000000E+00 0. -1.
        -11    1    3    3    0    0  0.62497125023E+01 -0.34018069001E+02 -0.23897244812E+02  0.42040055120E+02  0.00000000000E+00 0.  1.
         11    1    3    3    0    0  0.67550120334E+02  0.42587086719E+02 -0.13603122288E+03  0.15773766928E+03  0.00000000000E+00 0. -1.
          3    1    1    2  501    0  0.27720100168E+02 -0.31515506091E+02  0.16024982195E+02  0.44926953290E+02  0.00000000000E+00 0. -1.
<scales pt_clust_5="13000.00000" pt_clust_6="13000.00000" pt_clust_7="13000.00000" pt_clust_8="13000.00000" pt_clust_9="41.97181"></scales>
<clustering>
<clus scale="   41.972">  2  9  1 -1</clus>
<clus scale="   82.821">  5  6 -1 -1</clus>
<clus scale="   93.884">  7  8 -1 -1</clus>
<clus scale="  116.806">  2  5  1 -1</clus>
<clus scale="   41.972">  2  5  1 -1</clus>
</clustering>
</event>
<event>
 9    2  0.1488992E-004  0.1158607E+03  0.7546771E-02  0.1255585E+00
         21   -1    0    0  501  502  0.00000000000E+00  0.00000000000E+00  0.28701150662E+02  0.28701150662E+02  0.00000000000E+00 0. -1.
          2   -1    0    0  502    0 -0.00000000000E+00 -0.00000000000E+00 -0.13370460037E+04  0.13370460037E+04  0.00000000000E+00 0. -1.
         24    2    1    2    0    0 -0.67182205907E+02 -0.29958916098E+02 -0.90723431870E+03  0.91322558704E+03  0.74134191569E+02 0.  0.
         23    2    1    2    0    0  0.87161446977E+02 -0.42285796799E+02 -0.22364164272E+03  0.25987246634E+03  0.90182636658E+02 0.  0.
        -11    1    3    3    0    0 -0.62849868438E+02 -0.33458121436E+02 -0.42236916258E+03  0.42832845032E+03  0.00000000000E+00 0.  1.
         12    1    3    3    0    0 -0.43323374691E+01  0.34992053385E+01 -0.48486515612E+03  0.48489713672E+03  0.00000000000E+00 0. -1.
        -13    1    4    4    0    0  0.17113696284E+02  0.28179318553E+02 -0.53390967615E+02  0.62749884601E+02  0.00000000000E+00 0.  1.
         13    1    4    4    0    0  0.70047750693E+02 -0.70465115352E+02 -0.17025067510E+03  0.19712258174E+03  0.00000000000E+00 0. -1.
          1    1    1    2  501    0 -0.19979241069E+02  0.72244712897E+02 -0.17746889165E+03  0.19264910101E+03  0.00000000000E+00 0. -1.
<scales pt_clust_5="13000.00000" pt_clust_6="13000.00000" pt_clust_7="13000.00000" pt_clust_8="13000.00000" pt_clust_9="74.95644"></scales>
<clustering>
<clus scale="   74.134">  5  6 -1 -1</clus>
<clus scale="   74.956">  1  9  2 -1</clus>
<clus scale="   90.183">  7  8 -1 -1</clus>
<clus scale="  103.859">  2  5  1 -1</clus>
<clus scale="   74.956">  1  5  2 -1</clus>
</clustering>
</event>
<event>
 9    2  0.1488992E-004  0.2617087E+03  0.7546771E-02  0.1106122E+00
         -3   -1    0    0    0  501 -0.00000000000E+00  0.00000000000E+00  0.33335195793E+03  0.33335195793E+03  0.00000000000E+00 0.  1.
         21   -1    0    0  501  502  0.00000000000E+00 -0.00000000000E+00 -0.12632704827E+04  0.12632704827E+04  0.00000000000E+00 0.  1.
         24    2    1    2    0    0 -0.17019048283E+03  0.18189390101E+03 -0.22662215650E+03  0.34618584608E+03  0.80229960363E+02 0.  0.
         23    2    1    2    0    0  0.20062367223E+03  0.14453432851E+03 -0.85104865511E+03  0.89083639114E+03  0.90363889007E+02 0.  0.
        -13    1    3    3    0    0 -0.15949113970E+03  0.12714725346E+03 -0.19436979689E+03  0.28175071544E+03  0.00000000000E+00 0.  1.
         14    1    3    3    0    0 -0.10699343138E+02  0.54746647549E+02 -0.32252359606E+02  0.64435130648E+02  0.00000000000E+00 0. -1.
        -11    1    4    4    0    0  0.18714374795E+03  0.93807288035E+02 -0.64038908665E+03  0.67373642620E+03  0.00000000000E+00 0.  1.
         11    1    4    4    0    0  0.13479924283E+02  0.50727040475E+02 -0.21065956846E+03  0.21709996495E+03  0.00000000000E+00 0. -1.
         -4    1    1    2    0  502 -0.30433189402E+02 -0.32642822952E+03  0.14775228681E+03  0.35960020343E+03  0.00000000000E+00 0.  1.
<scales pt_clust_5="13000.00000" pt_clust_6="13000.00000" pt_clust_7="13000.00000" pt_clust_8="13000.00000" pt_clust_9="245.61330"></scales>
<clustering>
<clus scale="   80.230">  5  6 -1 -1</clus>
<clus scale="   90.364">  7  8 -1 -1</clus>
<clus scale="  261.700">  1  5  2 -1</clus>
<clus scale="  245.613">  2  9  1 -1</clus>
<clus scale="  245.613">  2  5  1 -1</clus>
</clustering>
</event>
<event>
 9    2  0.1488992E-004  0.1272369E+03  0.7546771E-02  0.1233613E+00
          2   -1    0    0  502    0 -0.00000000000E+00  0.00000000000E+00  0.94687544486E+03  0.94687544486E+03  0.00000000000E+00 0. -1.
         21   -1    0    0  501  502  0.00000000000E+00 -0.00000000000E+00 -0.25246703089E+02  0.25246703089E+02  0.00000000000E+00 0.  1.
         24    2    1    2    0    0 -0.92718827144E+02 -0.19533367567E+02  0.41324702533E+03  0.43160652604E+03  0.80825466421E+02 0.  0.
         23    2    1    2    0    0  0.68702040546E+02  0.66911927746E+02  0.35491480430E+03  0.37811603101E+03  0.88374420180E+02 0.  0.
        -11    1    3    3    0    0 -0.10644104861E+03 -0.23368992531E+02  0.38245449837E+03  0.39767731889E+03  0.00000000000E+00 0.  1.
         12    1    3    3    0    0  0.13722221468E+02  0.38356249641E+01  0.30792526961E+02  0.33929207145E+02  0.00000000000E+00 0. -1.
        -13    1    4    4    0    0  0.47227728402E+02  0.13244250226E+02  0.59557776299E+02  0.77155668695E+02  0.00000000000E+00 0.  1.
         13    1    4    4    0    0  0.21474312144E+02  0.53667677520E+02  0.29535702801E+03  0.30096036232E+03  0.00000000000E+00 0. -1.
          1    1    1    2  501    0  0.24016786598E+02 -0.47378560180E+02  0.15346691214E+03  0.16239959090E+03  0.00000000000E+00 0. -1.
<scales pt_clust_5="13000.00000" pt_clust_6="13000.00000" pt_clust_7="13000.00000" pt_clust_8="13000.00000" pt_clust_9="53.11811"></scales>
<clustering>
<clus scale="   53.118">  2  9  1 -1</clus>
<clus scale="   80.825">  5  6 -1 -1</clus>
<clus scale="   88.374">  7  8 -1 -1</clus>
<clus scale="  122.115">  1  5  2 -1</clus>
<clus scale="   53.118">  2  5  1 -1</clus>
</clustering>
</event>
<event>
 9    2  0.1488992E-004  0.2277235E+03  0.7546771E-02  0.1128252E+00
         21   -1    0    0  501  502  0.00000000000E+00  0.00000000000E+00  0.72318177392E+03  0.72318177392E+03  0.00000000000E+00 0.  1.
          2   -1    0    0  502    0 -0.00000000000E+00 -0.00000000000E+00 -0.77121973918E+02  0.77121973918E+02  0.00000000000E+00 0. -1.
         24    2    1    2    0    0 -0.72418099184E+02 -0.49941591351E+02  0.46952974230E+03  0.48450108125E+03  0.80898548779E+02 0.  0.
         23    2    1    2    0    0 -0.16139802967E+02 -0.17998530210E+02  0.18034829494E+03  0.20412034441E+03  0.92494146774E+02 0.  0.
        -13    1    3    3    0    0 -0.82805436934E+02 -0.53464633534E+02  0.32655206663E+03  0.34110329762E+03  0.00000000000E+00 0.  1.
         14    1    3    3    0    0  0.10387337750E+02  0.35230421823E+01  0.14297767566E+03  0.14339778363E+03  0.00000000000E+00 0. -1.
        -13    1    4    4    0    0 -0.17139853020E+02  0.36223583495E+02  0.93564888333E+02  0.10178561240E+03  0.00000000000E+00 0. -1.
         13    1    4    4    0    0  0.10000500526E+01 -0.54222113705E+02  0.86783406602E+02  0.10233473201E+03  0.00000000000E+00 0.  1.
          1    1    1    2  501    0  0.88557902151E+02  0.67940121561E+02 -0.38182372305E+01  0.11168232218E+03  0.00000000000E+00 0. -1.
<scales pt_clust_5="13000.00000" pt_clust_6="13000.00000" pt_clust_7="13000.00000" pt_clust_8="13000.00000" pt_clust_9="111.61709"></scales>
<clustering>
<clus scale="   80.899">  5  6 -1 -1</clus>
<clus scale="   92.494">  7  8 -1 -1</clus>
<clus scale="   92.877">  5  7 -1 -1</clus>
<clus scale="  111.617">  1  9  2 -1</clus>
<clus scale="  111.617">  1  5  2 -1</clus>
</clustering>
</event>
<event>
 9    2  0.1488992E-004  0.3546140E+03  0.7546771E-02  0.1105859E+00
         21   -1    0    0  501  502  0.00000000000E+00  0.00000000000E+00  0.44967813876E+03  0.44967813876E+03  0.00000000000E+00 0. -1.
          2   -1    0    0  502    0 -0.00000000000E+00 -0.00000000000E+00 -0.59991684370E+03  0.59991684370E+03  0.00000000000E+00 0. -1.
         23    2    1    2    0    0 -0.37501730507E+02 -0.37374432930E+02 -0.43346452424E+02  0.11443459391E+03  0.91723134035E+02 0.  0.
         24    2    1    2    0    0  0.37599596574E+03  0.21787023307E+02 -0.34793469532E+03  0.51932054696E+03  0.82387120670E+02 0.  0.
        -13    1    4    4    0    0  0.71482582957E+02  0.34511268756E+02 -0.90401504206E+02  0.12030469359E+03  0.00000000000E+00 0.  1.
         14    1    4    4    0    0  0.30451338278E+03 -0.12724245449E+02 -0.25753319112E+03  0.39901585337E+03  0.00000000000E+00 0. -1.
        -11    1    3    3    0    0 -0.16564252726E+02 -0.64751692092E+02 -0.12120195481E+02  0.67926837374E+02  0.00000000000E+00 0. -1.
         11    1    3    3    0    0 -0.20937477780E+02  0.27377259163E+02 -0.31226256943E+02  0.46507756533E+02  0.00000000000E+00 0.  1.
          1    1    1    2  501    0 -0.33849423523E+03  0.15587409623E+02  0.24104244281E+03  0.41583984160E+03  0.00000000000E+00 0. -1.
<scales pt_clust_5="13000.00000" pt_clust_6="13000.00000" pt_clust_7="13000.00000" pt_clust_8="13000.00000" pt_clust_9="344.91079"></scales>
<clustering>
<clus scale="   82.387">  5  6 -1 -1</clus>
<clus scale="   91.723">  7  8 -1 -1</clus>
<clus scale="  105.907">  2  7  1 -1</clus>
<clus scale="  344.911">  1  9  2 -1</clus>
<clus scale="  344.911">  1  5  2 -1</clus>
</clustering>
</event>
<event>
 9    2  0.1488992E-004  0.1796996E+03  0.7546771E-02  0.1179580E+00
         21   -1    0    0  501  502  0.00000000000E+00  0.00000000000E+00  0.88046242866E+03  0.88046242866E+03  0.00000000000E+00 0.  1.
         -3   -1    0    0    0  501 -0.00000000000E+00 -0.00000000000E+00 -0.79490590503E+02  0.79490590503E+02  0.00000000000E+00 0.  1.
         24    2    1    2    0    0  0.10370255036E+03 -0.37475696996E+02  0.38553320990E+03  0.40962959549E+03  0.83677372994E+02 0.  0.
         23    2    1    2    0    0  0.37298538824E+02  0.14723885269E+03  0.25105891605E+03  0.30752732139E+03  0.92043540419E+02 0.  0.
        -11    1    3    3    0    0  0.11128580433E+03 -0.39112095871E+02  0.38401641843E+03  0.40172490079E+03  0.00000000000E+00 0.  1.
         12    1    3    3    0    0 -0.75832539650E+01  0.16363988746E+01  0.15167914643E+01  0.79046947013E+01  0.00000000000E+00 0. -1.
        -11    1    4    4    0    0 -0.28200124830E+02  0.51905886888E+02  0.11224792598E+03  0.12684267823E+03  0.00000000000E+00 0.  1.
         11    1    4    4    0    0  0.65498663654E+02  0.95332965797E+02  0.13881099007E+03  0.18068464316E+03  0.00000000000E+00 0. -1.
         -4    1    1    2    0  502 -0.14100108919E+03 -0.10976315569E+03  0.16437971221E+03  0.24279610229E+03  0.00000000000E+00 0.  1.
<scales pt_clust_5="13000.00000" pt_clust_6="13000.00000" pt_clust_7="13000.00000" pt_clust_8="13000.00000" pt_clust_9="154.33718"></scales>
<clustering>
<clus scale="   83.677">  5  6 -1 -1</clus>
<clus scale="   92.044">  7  8 -1 -1</clus>
<clus scale="  138.422">  2  5  1 -1</clus>
<clus scale="  154.337">  1  9  2 -1</clus>
<clus scale="  154.337">  1  5  2 -1</clus>
</clustering>
</event>
<event>
 9    2  0.1488992E-004  0.1917174E+03  0.7546771E-02  0.1167558E+00
         -1   -1    0    0    0  501 -0.00000000000E+00  0.00000000000E+00  0.25235728597E+03  0.25235728597E+03  0.00000000000E+00 0.  1.
         21   -1    0    0  501  502  0.00000000000E+00 -0.00000000000E+00 -0.57327076412E+03  0.57327076412E+03  0.00000000000E+00 0.  1.
         24    2    1    2    0    0  0.94522310088E+02 -0.83389502326E+02 -0.32043567298E+03  0.35372690535E+03  0.80965590519E+02 0.  0.
         23    2    1    2    0    0 -0.14165447287E+03 -0.87345941578E+02  0.14808375664E+03  0.24072465325E+03  0.91237363547E+02 0.  0.
        -13    1    3    3    0    0  0.32011406496E+02 -0.47095888911E+02 -0.57066109862E+02  0.80618197654E+02  0.00000000000E+00 0.  1.
         14    1    3    3    0    0  0.62510903592E+02 -0.36293613415E+02 -0.26336956312E+03  0.27310870770E+03  0.00000000000E+00 0. -1.
        -11    1    4    4    0    0 -0.17850597064E+02  0.96904360743E+01  0.53384737533E+02  0.57118110686E+02  0.00000000000E+00 0. -1.
         11    1    4    4    0    0 -0.12380387580E+03 -0.97036377653E+02  0.94699019110E+02  0.18360654256E+03  0.00000000000E+00 0.  1.
         -2    1    1    2    0  502  0.47132162778E+02  0.17073544390E+03 -0.14856156181E+03  0.23117649150E+03  0.00000000000E+00 0.  1.
<scales pt_clust_5="13000.00000" pt_clust_6="13000.00000" pt_clust_7="13000.00000" pt_clust_8="13000.00000" pt_clust_9="168.61582"></scales>
<clustering>
<clus scale="   80.966">  5  6 -1 -1</clus>
<clus scale="   91.237">  7  8 -1 -1</clus>
<clus scale="  149.812">  1  5  2 -1</clus>
<clus scale="  168.616">  2  9  1 -1</clus>
<clus scale="  168.616">  2  5  1 -1</clus>
</clustering>
</event>
<event>
 9    2  0.1488992E-004  0.1112121E+03  0.7546771E-02  0.1262830E+00
         21   -1    0    0  501  502  0.00000000000E+00  0.00000000000E+00  0.39384509283E+03  0.39384509283E+03  0.00000000000E+00 0.  1.
         -1   -1    0    0    0  501 -0.00000000000E+00 -0.00000000000E+00 -0.29148141859E+03  0.29148141859E+03  0.00000000000E+00 0.  1.
         24    2    1    2    0    0  0.30013172000E+02 -0.68761882394E+02 -0.18232950299E+03  0.21295426491E+03  0.80476607282E+02 0.  0.
         23    2    1    2    0    0  0.65331336201E+02  0.44090668649E+02 -0.44238416380E+02  0.12901348761E+03  0.92061240214E+02 0.  0.
        -11    1    3    3    0    0  0.38309353941E+02 -0.79929596516E+02 -0.17719082741E+03  0.19812353802E+03  0.00000000000E+00 0.  1.
         12    1    3    3    0    0 -0.82961819410E+01  0.11167714122E+02 -0.51386755834E+01  0.14830726896E+02  0.00000000000E+00 0. -1.
        -11    1    4    4    0    0  0.67382338912E+02  0.68646927951E+02 -0.31136978240E+02  0.10110534965E+03  0.00000000000E+00 0.  1.
         11    1    4    4    0    0 -0.20510027105E+01 -0.24556259301E+02 -0.13101438140E+02  0.27908137958E+02  0.00000000000E+00 0. -1.
         -2    1    1    2    0  502 -0.95344508201E+02  0.24671213745E+02  0.32893159361E+03  0.34335875889E+03  0.00000000000E+00 0.  1.
<scales pt_clust_5="13000.00000" pt_clust_6="13000.00000" pt_clust_7="13000.00000" pt_clust_8="13000.00000" pt_clust_9="98.48474"></scales>
<clustering>
<clus scale="   80.477">  5  6 -1 -1</clus>
<clus scale="   92.061">  7  8 -1 -1</clus>
<clus scale="   98.485">  1  9  2 -1</clus>
<clus scale="  101.830">  2  5  1 -1</clus>
<clus scale="   98.485">  1  5  2 -1</clus>
</clustering>
</event>
<event>
 9    2  0.1488992E-004  0.2593990E+03  0.7546771E-02  0.1107953E+00
          2   -1    0    0  502    0 -0.00000000000E+00  0.00000000000E+00  0.12915960881E+04  0.12915960881E+04  0.00000000000E+00 0. -1.
         21   -1    0    0  501  502  0.00000000000E+00 -0.00000000000E+00 -0.62879080404E+02  0.62879080404E+02  0.00000000000E+00 0. -1.
         24    2    1    2    0    0  0.10433663637E+03  0.20833039109E+03  0.66946102880E+03  0.71373716937E+03  0.83396596498E+02 0.  0.
         23    2    1    2    0    0 -0.13557869526E+03 -0.22110841083E+03  0.46171497862E+03  0.53752176608E+03  0.92078312224E+02 0.  0.
        -11    1    3    3    0    0  0.10917901215E+03  0.15263994049E+03  0.45669623345E+03  0.49375141294E+03  0.00000000000E+00 0.  1.
         12    1    3    3    0    0 -0.48423757805E+01  0.55690450599E+02  0.21276479535E+03  0.21998575643E+03  0.00000000000E+00 0. -1.
        -13    1    4    4    0    0  0.11249021469E+02 -0.20737073007E+02  0.68153565724E+02  0.72121253468E+02  0.00000000000E+00 0.  1.
         13    1    4    4    0    0 -0.14682771673E+03 -0.20037133782E+03  0.39356141289E+03  0.46540051261E+03  0.00000000000E+00 0. -1.
          1    1    1    2  501    0  0.31242058891E+02  0.12778019736E+02  0.97541000311E+02  0.10321623309E+03  0.00000000000E+00 0. -1.
<scales pt_clust_5="13000.00000" pt_clust_6="13000.00000" pt_clust_7="13000.00000" pt_clust_8="13000.00000" pt_clust_9="33.75419"></scales>
<clustering>
<clus scale="   33.754">  2  9  1 -1</clus>
<clus scale="   83.397">  5  6 -1 -1</clus>
<clus scale="   92.078">  7  8 -1 -1</clus>
<clus scale="  256.446">  1  5  2 -1</clus>
<clus scale="   33.754">  2  5  1 -1</clus>
</clustering>
</event>
<event>
 9    2  0.1488992E-004  0.9184715E+02  0.7546771E-02  0.1304759E+00
         -1   -1    0    0    0  501 -0.00000000000E+00  0.00000000000E+00  0.20101191949E+03  0.20101191949E+03  0.00000000000E+00 0.  1.
         21   -1    0    0  501  502  0.00000000000E+00 -0.00000000000E+00 -0.14931378334E+03  0.14931378334E+03  0.00000000000E+00 0.  1.
         23    2    1    2    0    0  0.85545871293E+01 -0.99310558067E+01  0.82029199339E+02  0.12308561646E+03  0.90826607354E+02 0.  0.
         24    2    1    2    0    0  0.71192038996E+02  0.28009183983E+02 -0.76288542946E+02  0.13344012346E+03  0.78316690172E+02 0.  0.
        -11    1    4    4    0    0  0.79631589811E+02  0.36326735561E+02 -0.82309703252E+02  0.12014869563E+03  0.00000000000E+00 0.  1.
         12    1    4    4    0    0 -0.84395508153E+01 -0.83175515773E+01  0.60211603064E+01  0.13291427826E+02  0.00000000000E+00 0. -1.
        -11    1    3    3    0    0  0.43522200062E+02 -0.29345766591E+01  0.74964051908E+02  0.86731786081E+02  0.00000000000E+00 0.  1.
         11    1    3    3    0    0 -0.34967612932E+02 -0.69964791477E+01  0.70651474319E+01  0.36353830374E+02  0.00000000000E+00 0. -1.
         -2    1    1    2    0  502 -0.79746626125E+02 -0.18078128177E+02  0.45957479756E+02  0.93799962912E+02  0.00000000000E+00 0.  1.
<scales pt_clust_5="13000.00000" pt_clust_6="13000.00000" pt_clust_7="13000.00000" pt_clust_8="13000.00000" pt_clust_9="81.77010"></scales>
<clustering>
<clus scale="   78.317">  5  6 -1 -1</clus>
<clus scale="   81.770">  2  9  1 -1</clus>
<clus scale="   81.770">  2  5  1 -1</clus>
<clus scale="   90.827">  7  8 -1 -1</clus>
<clus scale="   81.770">  2  5  1 -1</clus>
</clustering>
</event>
<event>
 9    2  0.1488992E-004  0.9684979E+02  0.7546771E-02  0.1293393E+00
         -1   -1    0    0    0  501 -0.00000000000E+00  0.00000000000E+00  0.40212686639E+03  0.40212686639E+03  0.00000000000E+00 0.  1.
         21   -1    0    0  501  502  0.00000000000E+00 -0.00000000000E+00 -0.57374766912E+02  0.57374766912E+02  0.00000000000E+00 0. -1.
         24    2    1    2    0    0 -0.20907011753E+02  0.32120381860E+02  0.25944230942E+03  0.27362140055E+03  0.78035484557E+02 0.  0.
         23    2    1    2    0    0 -0.33365533589E+02 -0.44274480121E+02  0.35929868588E+02  0.11150545257E+03  0.89827735556E+02 0.  0.
        -13    1    3    3    0    0  0.28383069674E+02  0.22317005521E+02  0.12427829134E+03  0.12941692732E+03  0.00000000000E+00 0.  1.
         14    1    3    3    0    0 -0.49290081427E+02  0.98033763396E+01  0.13516401809E+03  0.14420447323E+03  0.00000000000E+00 0. -1.
        -13    1    4    4    0    0 -0.20638233041E+02 -0.68857227660E+02  0.82446431663E+01  0.72354879621E+02  0.00000000000E+00 0. -1.
         13    1    4    4    0    0 -0.12727300549E+02  0.24582747539E+02  0.27685225422E+02  0.39150572952E+02  0.00000000000E+00 0.  1.
         -2    1    1    2    0  502  0.54272545342E+02  0.12154098260E+02  0.49379921469E+02  0.74374780179E+02  0.00000000000E+00 0.  1.
<scales pt_clust_5="13000.00000" pt_clust_6="13000.00000" pt_clust_7="13000.00000" pt_clust_8="13000.00000" pt_clust_9="55.61683"></scales>
<clustering>
<clus scale="   55.617">  2  9  1 -1</clus>
<clus scale="   78.035">  5  6 -1 -1</clus>
<clus scale="   86.026">  1  5  2 -1</clus>
<clus scale="   89.828">  7  8 -1 -1</clus>
<clus scale="   55.617">  2  5  1 -1</clus>
</clustering>
</event>
<event>
 9    2  0.1488992E-004  0.1130891E+03  0.7546771E-02  0.1258669E+00
         21   -1    0    0  501  502  0.00000000000E+00  0.00000000000E+00  0.17593365651E+03  0.17593365651E+03  0.00000000000E+00 0.  1.
         -1   -1    0    0    0  501 -0.00000000000E+00 -0.00000000000E+00 -0.10434502084E+03  0.10434502084E+03  0.00000000000E+00 0.  1.
         23    2    1    2    0    0 -0.66593514230E+02  0.10948187521E+02  0.36507931166E+02  0.11824174361E+03  0.89965115164E+02 0.  0.
         24    2    1    2    0    0  0.69215436345E+02  0.31047128233E+02  0.44915277144E+02  0.11882582591E+03  0.79671161547E+02 0.  0.
        -13    1    4    4    0    0  0.83370784698E+02  0.36177135556E+02  0.25760583491E+02  0.94462058733E+02  0.00000000000E+00 0.  1.
         14    1    4    4    0    0 -0.14155348353E+02 -0.51300073226E+01  0.19154693653E+02  0.24363767177E+02  0.00000000000E+00 0. -1.
        -11    1    3    3    0    0 -0.87780031897E+02  0.14570912849E+02  0.37870002219E+02  0.96704615036E+02  0.00000000000E+00 0.  1.
         11    1    3    3    0    0  0.21186517667E+02 -0.36227253278E+01 -0.13620710535E+01  0.21537128574E+02  0.00000000000E+00 0. -1.
         -2    1    1    2    0  502 -0.26219221153E+01 -0.41995315755E+02 -0.98345726399E+01  0.43211107830E+02  0.00000000000E+00 0.  1.
<scales pt_clust_5="13000.00000" pt_clust_6="13000.00000" pt_clust_7="13000.00000" pt_clust_8="13000.00000" pt_clust_9="42.07711"></scales>
<clustering>
<clus scale="   42.077">  1  9  2 -1</clus>
<clus scale="   79.671">  5  6 -1 -1</clus>
<clus scale="   89.965">  7  8 -1 -1</clus>
<clus scale="  105.085">  1  5  2 -1</clus>
<clus scale="   42.077">  1  5  2 -1</clus>
</clustering>
</event>
<event>
 9    2  0.1488992E-004  0.1405797E+03  0.7546771E-02  0.1221633E+00
          2   -1    0    0  502    0 -0.00000000000E+00  0.00000000000E+00  0.82495437153E+03  0.82495437153E+03  0.00000000000E+00 0. -1.
         21   -1    0    0  501  502  0.00000000000E+00 -0.00000000000E+00 -0.42032673497E+02  0.42032673497E+02  0.00000000000E+00 0. -1.
         23    2    1    2    0    0  0.97122191439E+01  0.95247616418E+02  0.57973208123E+03  0.59906850605E+03  0.11673625529E+03 0.  0.
         24    2    1    2    0    0 -0.43130188219E+02 -0.32354482957E+02  0.97932289854E+02  0.14083033429E+03  0.85647089604E+02 0.  0.
        -11    1    4    4    0    0  0.21164756095E+02  0.49205498933E+01  0.43778081826E+02  0.48874115441E+02  0.00000000000E+00 0.  1.
         12    1    4    4    0    0 -0.64294944314E+02 -0.37275032850E+02  0.54154208028E+02  0.91956218851E+02  0.00000000000E+00 0. -1.
        -11    1    3    3    0    0  0.51148253347E+02  0.66697471674E+02  0.48062077718E+03  0.48791498030E+03  0.00000000000E+00 0. -1.
         11    1    3    3    0    0 -0.41436034203E+02  0.28550144744E+02  0.99111304053E+02  0.11115352575E+03  0.00000000000E+00 0.  1.
          1    1    1    2  501    0  0.33417969075E+02 -0.62893133461E+02  0.10525732695E+03  0.12708820468E+03  0.00000000000E+00 0. -1.
<scales pt_clust_5="13000.00000" pt_clust_6="13000.00000" pt_clust_7="13000.00000" pt_clust_8="13000.00000" pt_clust_9="71.22013"></scales>
<clustering>
<clus scale="   71.220">  2  9  1 -1</clus>
<clus scale="   85.647">  5  6 -1 -1</clus>
<clus scale="  116.063">  2  5  1 -1</clus>
<clus scale="  116.736">  7  8 -1 -1</clus>
<clus scale="   71.220">  2  5  1 -1</clus>
</clustering>
</event>
<event>
 9    2  0.1488992E-004  0.9288693E+02  0.7546771E-02  0.1300465E+00
         21   -1    0    0  501  502  0.00000000000E+00  0.00000000000E+00  0.52454488646E+02  0.52454488646E+02  0.00000000000E+00 0.  1.
         -1   -1    0    0    0  501 -0.00000000000E+00 -0.00000000000E+00 -0.25404911727E+03  0.25404911727E+03  0.00000000000E+00 0.  1.
         24    2    1    2    0    0  0.55178550123E+01 -0.36962405364E+02 -0.11823019634E+03  0.14864804031E+03  0.81982891055E+02 0.  0.
         23    2    1    2    0    0 -0.14003727880E+02  0.38785459426E+01 -0.84006011194E+02  0.12369471937E+03  0.89622687805E+02 0.  0.
        -11    1    3    3    0    0 -0.38517454338E+01 -0.42442205049E+02 -0.15502816365E+02  0.45348804037E+02  0.00000000000E+00 0.  1.
         12    1    3    3    0    0  0.93696004461E+01  0.54797996852E+01 -0.10272737998E+03  0.10329923627E+03  0.00000000000E+00 0. -1.
        -11    1    4    4    0    0  0.28539488293E+02 -0.20879575593E+02 -0.58242826961E+02  0.68137258247E+02  0.00000000000E+00 0. -1.
         11    1    4    4    0    0 -0.42543216173E+02  0.24758121535E+02 -0.25763184233E+02  0.55557461121E+02  0.00000000000E+00 0.  1.
         -2    1    1    2    0  502  0.84858728681E+01  0.33083859421E+02  0.64157891110E+00  0.34160846243E+02  0.00000000000E+00 0.  1.
<scales pt_clust_5="13000.00000" pt_clust_6="13000.00000" pt_clust_7="13000.00000" pt_clust_8="13000.00000" pt_clust_9="34.15482"></scales>
<clustering>
<clus scale="   34.155">  1  9  2 -1</clus>
<clus scale="   81.983">  5  6 -1 -1</clus>
<clus scale="   85.539">  2  5  1 -1</clus>
<clus scale="   89.623">  7  8 -1 -1</clus>
<clus scale="   34.155">  1  5  2 -1</clus>
</clustering>
</event>
<event>
 9    2  0.1488992E-004  0.1032709E+03  0.7546771E-02  0.1283240E+00
         21   -1    0    0  501  502  0.00000000000E+00  0.00000000000E+00  0.49185089448E+02  0.49185089448E+02  0.00000000000E+00 0.  1.
          2   -1    0    0  502    0 -0.00000000000E+00 -0.00000000000E+00 -0.56257338313E+03  0.56257338313E+03  0.00000000000E+00 0. -1.
         24    2    1    2    0    0  0.24005691598E+02  0.18831246722E+02 -0.42345823838E+03  0.43184854970E+03  0.79027850408E+02 0.  0.
         23    2    1    2    0    0 -0.45670164703E+02 -0.23701353333E+02 -0.10557508818E+03  0.15274681578E+03  0.97662543438E+02 0.  0.
        -11    1    3    3    0    0 -0.26242877764E+02 -0.82115249911E+01 -0.12584960369E+03  0.12881863423E+03  0.00000000000E+00 0.  1.
         12    1    3    3    0    0  0.50248569363E+02  0.27042771713E+02 -0.29760863469E+03  0.30302991547E+03  0.00000000000E+00 0. -1.
        -11    1    4    4    0    0 -0.74066312314E+02 -0.24231916975E+02 -0.93936365817E+02  0.12205345240E+03  0.00000000000E+00 0.  1.
         11    1    4    4    0    0  0.28396147611E+02  0.53056364144E+00 -0.11638722367E+02  0.30693363375E+02  0.00000000000E+00 0. -1.
          1    1    1    2  501    0  0.21664473104E+02  0.48701066117E+01  0.15645032888E+02  0.27163107101E+02  0.00000000000E+00 0. -1.
<scales pt_clust_5="13000.00000" pt_clust_6="13000.00000" pt_clust_7="13000.00000" pt_clust_8="13000.00000" pt_clust_9="22.20512"></scales>
<clustering>
<clus scale="   22.205">  1  9  2 -1</clus>
<clus scale="   79.028">  5  6 -1 -1</clus>
<clus scale="   85.862">  2  5  1 -1</clus>
<clus scale="   97.663">  7  8 -1 -1</clus>
<clus scale="   22.205">  1  5  2 -1</clus>
</clustering>
</event>
<event>
 9    2  0.1488992E-004  0.1490474E+03  0.7546771E-02  0.1230201E+00
          2   -1    0    0  502    0 -0.00000000000E+00  0.00000000000E+00  0.85525050815E+03  0.85525050815E+03  0.00000000000E+00 0. -1.
         21   -1    0    0  501  502  0.00000000000E+00 -0.00000000000E+00 -0.48705998081E+02  0.48705998081E+02  0.00000000000E+00 0. -1.
         24    2    1    2    0    0  0.91359319931E+01 -0.19381657684E+02  0.28990510468E+03  0.30114192256E+03  0.78628073201E+02 0.  0.
         23    2    1    2    0    0  0.10716434824E+03  0.44367362267E+02  0.12739588936E+03  0.19580038811E+03  0.93034504305E+02 0.  0.
        -11    1    3    3    0    0 -0.29179155387E+01  0.29586801188E+02  0.13498745601E+03  0.13822266933E+03  0.00000000000E+00 0.  1.
         12    1    3    3    0    0  0.12053847532E+02 -0.48968458872E+02  0.15491764867E+03  0.16291925323E+03  0.00000000000E+00 0. -1.
        -13    1    4    4    0    0 -0.11330755741E+02  0.26531821560E+02  0.25526298245E+02  0.38521623578E+02  0.00000000000E+00 0.  1.
         13    1    4    4    0    0  0.11849510398E+03  0.17835540706E+02  0.10186959111E+03  0.15727876453E+03  0.00000000000E+00 0. -1.
          1    1    1    2  501    0 -0.11630028023E+03 -0.24985704583E+02  0.38924351603E+03  0.40701419556E+03  0.00000000000E+00 0. -1.
<scales pt_clust_5="13000.00000" pt_clust_6="13000.00000" pt_clust_7="13000.00000" pt_clust_8="13000.00000" pt_clust_9="116.44626"></scales>
<clustering>
<clus scale="   78.628">  5  6 -1 -1</clus>
<clus scale="   81.495">  1  5  2 -1</clus>
<clus scale="   93.035">  7  8 -1 -1</clus>
<clus scale="  116.446">  2  9  1 -1</clus>
<clus scale="  116.446">  2  5  1 -1</clus>
</clustering>
</event>
<event>
 9    2  0.1488992E-004  0.1162507E+03  0.7546771E-02  0.1254542E+00
          2   -1    0    0  502    0 -0.00000000000E+00  0.00000000000E+00  0.39065754459E+03  0.39065754459E+03  0.00000000000E+00 0. -1.
         21   -1    0    0  501  502  0.00000000000E+00 -0.00000000000E+00 -0.12463329157E+03  0.12463329157E+03  0.00000000000E+00 0. -1.
         23    2    1    2    0    0  0.10995610666E+02 -0.73287035439E+02  0.23507525250E+03  0.26436874360E+03  0.95595843202E+02 0.  0.
         24    2    1    2    0    0  0.17378323089E+02  0.57099788947E+02  0.11953676742E+03  0.15650334702E+03  0.81497649364E+02 0.  0.
        -13    1    4    4    0    0  0.48021319751E+02  0.47868739912E+02  0.69413872258E+02  0.97034782801E+02  0.00000000000E+00 0.  1.
         14    1    4    4    0    0 -0.30642996662E+02  0.92310490351E+01  0.50122895161E+02  0.59468564218E+02  0.00000000000E+00 0. -1.
        -11    1    3    3    0    0 -0.17822302327E+02 -0.78779849032E+02  0.11351229966E+03  0.13931597629E+03  0.00000000000E+00 0.  1.
         11    1    3    3    0    0  0.28817912993E+02  0.54928135932E+01  0.12156295284E+03  0.12505276732E+03  0.00000000000E+00 0. -1.
          1    1    1    2  501    0 -0.28373933755E+02  0.16187246491E+02 -0.88587766897E+02  0.94418745540E+02  0.00000000000E+00 0. -1.
<scales pt_clust_5="13000.00000" pt_clust_6="13000.00000" pt_clust_7="13000.00000" pt_clust_8="13000.00000" pt_clust_9="32.66660"></scales>
<clustering>
<clus scale="   32.667">  2  9  1 -1</clus>
<clus scale="   81.498">  5  6 -1 -1</clus>
<clus scale="   95.596">  7  8 -1 -1</clus>
<clus scale="  104.964">  2  5  1 -1</clus>
<clus scale="   32.667">  2  5  1 -1</clus>
</clustering>
</event>
<event>
 9    2  0.1488992E-004  0.1539466E+03  0.7546771E-02  0.1209781E+00
         21   -1    0    0  501  502  0.00000000000E+00  0.00000000000E+00  0.15770178847E+03  0.15770178847E+03  0.00000000000E+00 0. -1.
          2   -1    0    0  502    0 -0.00000000000E+00 -0.00000000000E+00 -0.52156280990E+03  0.52156280990E+03  0.00000000000E+00 0. -1.
         24    2    1    2    0    0  0.16753561389E+02  0.80719093201E+02 -0.83409684885E+02  0.14089923056E+03  0.78097143442E+02 0.  0.
         23    2    1    2    0    0 -0.13556349516E+03 -0.44187857257E+02 -0.35505753395E+03  0.39339496995E+03  0.91453387134E+02 0.  0.
        -13    1    3    3    0    0  0.21279562620E+02  0.95233598680E+02 -0.77398077129E+02  0.12455007204E+03  0.00000000000E+00 0.  1.
         14    1    3    3    0    0 -0.45260012308E+01 -0.14514505479E+02 -0.60116077564E+01  0.16349158518E+02  0.00000000000E+00 0. -1.
        -13    1    4    4    0    0 -0.75858385446E+02 -0.51557819818E+02 -0.12161148889E+03  0.15232221656E+03  0.00000000000E+00 0.  1.
         13    1    4    4    0    0 -0.59705109715E+02  0.73699625612E+01 -0.23344604506E+03  0.24107275340E+03  0.00000000000E+00 0. -1.
          1    1    1    2  501    0  0.11880993377E+03 -0.36531235945E+02  0.74606197405E+02  0.14497039785E+03  0.00000000000E+00 0. -1.
<scales pt_clust_5="13000.00000" pt_clust_6="13000.00000" pt_clust_7="13000.00000" pt_clust_8="13000.00000" pt_clust_9="123.83789"></scales>
<clustering>
<clus scale="   78.097">  5  6 -1 -1</clus>
<clus scale="   91.453">  7  8 -1 -1</clus>
<clus scale="  113.558">  2  5  1 -1</clus>
<clus scale="  123.838">  1  9  2 -1</clus>
<clus scale="  123.838">  1  5  2 -1</clus>
</clustering>
</event>
<event>
 9    2  0.1488992E-004  0.9474565E+02  0.7546771E-02  0.1297171E+00
         21   -1    0    0  501  502  0.00000000000E+00  0.00000000000E+00  0.14252909241E+03  0.14252909241E+03  0.00000000000E+00 0.  1.
          2   -1    0    0  502    0 -0.00000000000E+00 -0.00000000000E+00 -0.27934490957E+03  0.27934490957E+03  0.00000000000E+00 0. -1.
         24    2    1    2    0    0 -0.25137225640E+02 -0.10885849566E+02 -0.17096058719E+03  0.19094409154E+03  0.80509265845E+02 0.  0.
         23    2    1    2    0    0  0.44838741461E+02  0.30722773687E+02  0.10870446666E+03  0.15130075971E+03  0.90115799163E+02 0.  0.
        -13    1    3    3    0    0 -0.12021494426E+02 -0.45863930278E+02 -0.10313862137E+03  0.11351471996E+03  0.00000000000E+00 0.  1.
         14    1    3    3    0    0 -0.13115731214E+02  0.34978080712E+02 -0.67821965818E+02  0.77429371578E+02  0.00000000000E+00 0. -1.
        -13    1    4    4    0    0  0.28667279033E+02 -0.24279622740E+02  0.13027506145E+02  0.39762153914E+02  0.00000000000E+00 0. -1.
         13    1    4    4    0    0  0.16171462428E+02  0.55002396427E+02  0.95676960518E+02  0.11153860580E+03  0.00000000000E+00 0.  1.
          1    1    1    2  501    0 -0.19701515821E+02 -0.19836924121E+02 -0.74559696638E+02  0.79629150736E+02  0.00000000000E+00 0. -1.
<scales pt_clust_5="13000.00000" pt_clust_6="13000.00000" pt_clust_7="13000.00000" pt_clust_8="13000.00000" pt_clust_9="27.95808"></scales>
<clustering>
<clus scale="   27.958">  1  9  2 -1</clus>
<clus scale="   80.509">  5  6 -1 -1</clus>
<clus scale="   85.660">  2  5  1 -1</clus>
<clus scale="   90.116">  7  8 -1 -1</clus>
<clus scale="   27.958">  1  5  2 -1</clus>
</clustering>
</event>
<event>
 9    2  0.1488992E-004  0.1118449E+03  0.7546771E-02  0.1262732E+00
         21   -1    0    0  501  502  0.00000000000E+00  0.00000000000E+00  0.17738018115E+03  0.17738018115E+03  0.00000000000E+00 0.  1.
         -3   -1    0    0    0  501 -0.00000000000E+00 -0.00000000000E+00 -0.10210594986E+03  0.10210594986E+03  0.00000000000E+00 0.  1.
         24    2    1    2    0    0  0.33097199855E+02  0.46192110607E+02 -0.20295310759E+02  0.99896487502E+02  0.79613270601E+02 0.  0.
         23    2    1    2    0    0 -0.22849122943E+02 -0.72790560874E+02  0.89639769332E+02  0.15047499356E+03  0.93738398048E+02 0.  0.
        -11    1    3    3    0    0  0.92009253308E+01 -0.22900269772E+02 -0.41332194979E+01  0.25023246911E+02  0.00000000000E+00 0.  1.
         12    1    3    3    0    0  0.23896274524E+02  0.69092380379E+02 -0.16162091261E+02  0.74873240590E+02  0.00000000000E+00 0. -1.
        -13    1    4    4    0    0  0.76525562808E+01 -0.71609774345E+02  0.95278377820E+02  0.11943404322E+03  0.00000000000E+00 0.  1.
         13    1    4    4    0    0 -0.30501679224E+02 -0.11807865289E+01 -0.56386084875E+01  0.31040950340E+02  0.00000000000E+00 0. -1.
         -4    1    1    2    0  502 -0.10248076911E+02  0.26598450266E+02  0.59297727157E+01  0.29114649945E+02  0.00000000000E+00 0.  1.
<scales pt_clust_5="13000.00000" pt_clust_6="13000.00000" pt_clust_7="13000.00000" pt_clust_8="13000.00000" pt_clust_9="28.50441"></scales>
<clustering>
<clus scale="   28.504">  1  9  2 -1</clus>
<clus scale="   79.613">  5  6 -1 -1</clus>
<clus scale="   93.738">  7  8 -1 -1</clus>
<clus scale="  100.303">  2  5  1 -1</clus>
<clus scale="   28.504">  1  5  2 -1</clus>
</clustering>
</event>
<event>
 9    2  0.1488992E-004  0.2156584E+03  0.7546771E-02  0.1137787E+00
          2   -1    0    0  502    0 -0.00000000000E+00  0.00000000000E+00  0.17963838340E+04  0.17963838340E+04  0.00000000000E+00 0. -1.
         21   -1    0    0  501  502  0.00000000000E+00 -0.00000000000E+00 -0.39150674381E+02  0.39150674381E+02  0.00000000000E+00 0.  1.
         24    2    1    2    0    0  0.11415690774E+01  0.19010823521E+03  0.78037903829E+03  0.80719897347E+03  0.80226523669E+02 0.  0.
         23    2    1    2    0    0  0.83647407079E+02 -0.19965412270E+03  0.66034778041E+03  0.70052986338E+03  0.88454739629E+02 0.  0.
        -13    1    3    3    0    0  0.11326578897E+02  0.46637935855E+02  0.90006293414E+02  0.10200255538E+03  0.00000000000E+00 0.  1.
         14    1    3    3    0    0 -0.10185009820E+02  0.14347029936E+03  0.69037274487E+03  0.70519641809E+03  0.00000000000E+00 0. -1.
        -13    1    4    4    0    0 -0.12932757172E+02 -0.59557929053E+02  0.22502243031E+03  0.23312978630E+03  0.00000000000E+00 0. -1.
         13    1    4    4    0    0  0.96580164251E+02 -0.14009619365E+03  0.43532535011E+03  0.46740007707E+03  0.00000000000E+00 0.  1.
          1    1    1    2  501    0 -0.84788976157E+02  0.95458874894E+01  0.31650634087E+03  0.32780567149E+03  0.00000000000E+00 0. -1.
<scales pt_clust_5="13000.00000" pt_clust_6="13000.00000" pt_clust_7="13000.00000" pt_clust_8="13000.00000" pt_clust_9="85.32468"></scales>
<clustering>
<clus scale="   80.227">  5  6 -1 -1</clus>
<clus scale="   85.325">  2  9  1 -1</clus>
<clus scale="   88.455">  7  8 -1 -1</clus>
<clus scale="  212.416">  1  5  2 -1</clus>
<clus scale="   85.325">  2  5  1 -1</clus>
</clustering>
</event>
<event>
 9    2  0.1488992E-004  0.1587582E+03  0.7546771E-02  0.1203199E+00
         -1   -1    0    0    0  501 -0.00000000000E+00  0.00000000000E+00  0.85236730062E+02  0.85236730062E+02  0.00000000000E+00 0.  1.
         21   -1    0    0  501  502  0.00000000000E+00 -0.00000000000E+00 -0.56356043366E+03  0.56356043366E+03  0.00000000000E+00 0. -1.
         24    2    1    2    0    0 -0.79023415897E+02 -0.38893145399E+02 -0.17137034120E+03  0.20878808932E+03  0.80419496256E+02 0.  0.
         23    2    1    2    0    0  0.14434915462E+02 -0.95970432486E+02 -0.49682990498E+02  0.14243907712E+03  0.91661335632E+02 0.  0.
        -13    1    3    3    0    0 -0.65181174273E+02 -0.52598332055E+02 -0.81621694797E+02  0.11694986565E+03  0.00000000000E+00 0.  1.
         14    1    3    3    0    0 -0.13842241623E+02  0.13705186656E+02 -0.89748646404E+02  0.91838223664E+02  0.00000000000E+00 0. -1.
        -11    1    4    4    0    0  0.27801482317E+02 -0.12810786499E+02 -0.49513477161E+02  0.58211881007E+02  0.00000000000E+00 0.  1.
         11    1    4    4    0    0 -0.13366566855E+02 -0.83159645987E+02 -0.16951333660E+00  0.84227196112E+02  0.00000000000E+00 0. -1.
         -2    1    1    2    0  502  0.64588500435E+02  0.13486357788E+03 -0.25727037190E+03  0.29756999729E+03  0.00000000000E+00 0.  1.
<scales pt_clust_5="13000.00000" pt_clust_6="13000.00000" pt_clust_7="13000.00000" pt_clust_8="13000.00000" pt_clust_9="129.62388"></scales>
<clustering>
<clus scale="   80.419">  5  6 -1 -1</clus>
<clus scale="   91.661">  7  8 -1 -1</clus>
<clus scale="  119.267">  1  5  2 -1</clus>
<clus scale="  129.624">  2  9  1 -1</clus>
<clus scale="  129.624">  2  5  1 -1</clus>
</clustering>
</event>
<event>
 9    2  0.1488992E-004  0.2745766E+03  0.7546771E-02  0.1138782E+00
         21   -1    0    0  501  502  0.00000000000E+00  0.00000000000E+00  0.32041099520E+03  0.32041099520E+03  0.00000000000E+00 0.  1.
         -1   -1    0    0    0  501 -0.00000000000E+00 -0.00000000000E+00 -0.84539371844E+03  0.84539371844E+03  0.00000000000E+00 0.  1.
         23    2    1    2    0    0  0.33675223363E+02  0.22740412760E+02 -0.51011693146E+03  0.51991703282E+03  0.91887377872E+02 0.  0.
         24    2    1    2    0    0  0.22275228481E+03  0.65700603666E+02 -0.20067579274E+03  0.31709863478E+03  0.79659404218E+02 0.  0.
        -13    1    4    4    0    0  0.20355948525E+03  0.34433819618E+02 -0.18496079421E+03  0.27718702597E+03  0.00000000000E+00 0.  1.
         14    1    4    4    0    0  0.19192799558E+02  0.31266784048E+02 -0.15714998527E+02  0.39911608816E+02  0.00000000000E+00 0. -1.
        -11    1    3    3    0    0  0.61993233820E+02  0.33077361429E+02 -0.36506010057E+03  0.37176087732E+03  0.00000000000E+00 0.  1.
         11    1    3    3    0    0 -0.28318010457E+02 -0.10336948669E+02 -0.14505683089E+03  0.14815615550E+03  0.00000000000E+00 0. -1.
         -2    1    1    2    0  502 -0.25642750817E+03 -0.88441016426E+02  0.18581000097E+03  0.32878904604E+03  0.00000000000E+00 0.  1.
<scales pt_clust_5="13000.00000" pt_clust_6="13000.00000" pt_clust_7="13000.00000" pt_clust_8="13000.00000" pt_clust_9="262.76734"></scales>
<clustering>
<clus scale="   79.659">  5  6 -1 -1</clus>
<clus scale="   91.887">  7  8 -1 -1</clus>
<clus scale="  100.471">  2  7  1 -1</clus>
<clus scale="  262.767">  1  9  2 -1</clus>
<clus scale="  262.767">  1  5  2 -1</clus>
</clustering>
</event>
<event>
 9    2  0.1488992E-004  0.2173714E+03  0.7546771E-02  0.1165060E+00
         21   -1    0    0  501  502  0.00000000000E+00  0.00000000000E+00  0.16196749693E+03  0.16196749693E+03  0.00000000000E+00 0. -1.
          2   -1    0    0  502    0 -0.00000000000E+00 -0.00000000000E+00 -0.58496683897E+03  0.58496683897E+03  0.00000000000E+00 0. -1.
         24    2    1    2    0    0  0.69842268092E+02 -0.15386669831E+02 -0.24725631505E+02  0.11164198809E+03  0.82084618716E+02 0.  0.
         23    2    1    2    0    0 -0.12161904625E+03 -0.17526160295E+03 -0.36963769244E+03  0.43567366081E+03  0.87588202216E+02 0.  0.
        -11    1    3    3    0    0 -0.62461838332E+01 -0.29931769426E+02 -0.88173046759E+00  0.30589264164E+02  0.00000000000E+00 0.  1.
         12    1    3    3    0    0  0.76088451925E+02  0.14545099595E+02 -0.23843901038E+02  0.81052723923E+02  0.00000000000E+00 0. -1.
        -11    1    4    4    0    0 -0.30161433617E+02  0.10828596753E+01 -0.69264815751E+02  0.75554611798E+02  0.00000000000E+00 0.  1.
         11    1    4    4    0    0 -0.91457612628E+02 -0.17634446263E+03 -0.30037287669E+03  0.36011904901E+03  0.00000000000E+00 0. -1.
          1    1    1    2  501    0  0.51776778154E+02  0.19064827278E+03 -0.28636018085E+02  0.19961868701E+03  0.00000000000E+00 0. -1.
<scales pt_clust_5="13000.00000" pt_clust_6="13000.00000" pt_clust_7="13000.00000" pt_clust_8="13000.00000" pt_clust_9="198.94375"></scales>
<clustering>
<clus scale="   82.085">  5  6 -1 -1</clus>
<clus scale="   87.588">  7  8 -1 -1</clus>
<clus scale="  108.870">  2  5  1 -1</clus>
<clus scale="  198.944">  1  9  2 -1</clus>
<clus scale="  198.944">  1  5  2 -1</clus>
</clustering>
</event>
<event>
 9    2  0.1488992E-004  0.1158557E+03  0.7546771E-02  0.1255309E+00
          2   -1    0    0  502    0 -0.00000000000E+00  0.00000000000E+00  0.39268952848E+03  0.39268952848E+03  0.00000000000E+00 0. -1.
         21   -1    0    0  501  502  0.00000000000E+00 -0.00000000000E+00 -0.70012275884E+02  0.70012275884E+02  0.00000000000E+00 0.  1.
         23    2    1    2    0    0  0.60785801856E+02 -0.47105825213E+02  0.18271742950E+03  0.21927862556E+03  0.93720777355E+02 0.  0.
         24    2    1    2    0    0 -0.33777773087E+02  0.28385988386E+02 -0.88083727605E+01  0.91068848353E+02  0.79178566659E+02 0.  0.
        -11    1    4    4    0    0 -0.18444775786E+02  0.26886999395E+02 -0.42767213824E+02  0.53778760385E+02  0.00000000000E+00 0.  1.
         12    1    4    4    0    0 -0.15332997302E+02  0.14989889907E+01  0.33958841064E+02  0.37290087968E+02  0.00000000000E+00 0. -1.
        -13    1    3    3    0    0  0.19704575309E+02 -0.54901233494E+02  0.16285611062E+03  0.17298707608E+03  0.00000000000E+00 0.  1.
         13    1    3    3    0    0  0.41081226547E+02  0.77954082807E+01  0.19861318879E+02  0.46291549472E+02  0.00000000000E+00 0. -1.
          1    1    1    2  501    0 -0.27008028769E+02  0.18719836827E+02  0.14876819587E+03  0.15235433046E+03  0.00000000000E+00 0. -1.
<scales pt_clust_5="13000.00000" pt_clust_6="13000.00000" pt_clust_7="13000.00000" pt_clust_8="13000.00000" pt_clust_9="32.86133"></scales>
<clustering>
<clus scale="   32.861">  2  9  1 -1</clus>
<clus scale="   79.179">  5  6 -1 -1</clus>
<clus scale="   93.721">  7  8 -1 -1</clus>
<clus scale="  104.442">  2  5  1 -1</clus>
<clus scale="   32.861">  2  5  1 -1</clus>
</clustering>
</event>
<event>
 9    2  0.1488992E-004  0.1582283E+03  0.7546771E-02  0.1193186E+00
          2   -1    0    0  502    0 -0.00000000000E+00  0.00000000000E+00  0.94841492297E+02  0.94841492297E+02  0.00000000000E+00 0. -1.
         21   -1    0    0  501  502  0.00000000000E+00 -0.00000000000E+00 -0.41104718050E+03  0.41104718050E+03  0.00000000000E+00 0. -1.
         23    2    1    2    0    0 -0.44911134946E+02 -0.10448027688E+03 -0.84421568208E+02  0.17059191141E+03  0.95086596111E+02 0.  0.
         24    2    1    2    0    0  0.25444718691E+02  0.15229668192E+03 -0.22305786738E+03  0.28293745049E+03  0.80355931075E+02 0.  0.
        -11    1    4    4    0    0  0.19442655717E+02  0.79398014375E+02 -0.51959907331E+02  0.96860175087E+02  0.00000000000E+00 0.  1.
         12    1    4    4    0    0  0.60020629745E+01  0.72898667542E+02 -0.17109796005E+03  0.18607727541E+03  0.00000000000E+00 0. -1.
        -13    1    3    3    0    0 -0.19191188171E+02  0.10533589073E+02  0.52369681024E+01  0.22509643202E+02  0.00000000000E+00 0.  1.
         13    1    3    3    0    0 -0.25719946775E+02 -0.11501386595E+03 -0.89658536310E+02  0.14808226821E+03  0.00000000000E+00 0. -1.
          1    1    1    2  501    0  0.19466416255E+02 -0.47816405035E+02 -0.87262526086E+01  0.52359310890E+02  0.00000000000E+00 0. -1.
<scales pt_clust_5="13000.00000" pt_clust_6="13000.00000" pt_clust_7="13000.00000" pt_clust_8="13000.00000" pt_clust_9="51.62705"></scales>
<clustering>
<clus scale="   51.627">  2  9  1 -1</clus>
<clus scale="   80.356">  5  6 -1 -1</clus>
<clus scale="   95.087">  7  8 -1 -1</clus>
<clus scale="  149.839">  2  5  1 -1</clus>
<clus scale="   51.627">  2  5  1 -1</clus>
</clustering>
</event>
<event>
 9    2  0.1488992E-004  0.1121050E+03  0.7546771E-02  0.1257820E+00
         -3   -1    0    0    0  501 -0.00000000000E+00  0.00000000000E+00  0.22160939427E+03  0.22160939427E+03  0.00000000000E+00 0.  1.
         21   -1    0    0  501  502  0.00000000000E+00 -0.00000000000E+00 -0.14434995453E+03  0.14434995453E+03  0.00000000000E+00 0. -1.
         23    2    1    2    0    0 -0.19211993939E+02 -0.54917937523E+02  0.12939739661E+03  0.16866040429E+03  0.91200686133E+02 0.  0.
         24    2    1    2    0    0  0.77846803323E+02  0.45497794275E+02 -0.42928746447E+02  0.13720244272E+03  0.94082192501E+02 0.  0.
        -11    1    4    4    0    0  0.38404367896E+02  0.22042244433E+02  0.28241770113E+02  0.52520030391E+02  0.00000000000E+00 0.  1.
         12    1    4    4    0    0  0.39442435427E+02  0.23455549842E+02 -0.71170516560E+02  0.84682412331E+02  0.00000000000E+00 0. -1.
        -13    1    3    3    0    0  0.48936990841E+01 -0.60922178043E+02  0.13017196679E+03  0.14380612298E+03  0.00000000000E+00 0.  1.
         13    1    3    3    0    0 -0.24105693023E+02  0.60042405199E+01 -0.77457017767E+00  0.24854281308E+02  0.00000000000E+00 0. -1.
         -4    1    1    2    0  502 -0.58634809383E+02  0.94201432477E+01 -0.92092104245E+01  0.60096501786E+02  0.00000000000E+00 0.  1.
<scales pt_clust_5="13000.00000" pt_clust_6="13000.00000" pt_clust_7="13000.00000" pt_clust_8="13000.00000" pt_clust_9="59.38670"></scales>
<clustering>
<clus scale="   59.387">  2  9  1 -1</clus>
<clus scale="   91.201">  7  8 -1 -1</clus>
<clus scale="   94.082">  5  6 -1 -1</clus>
<clus scale="  109.698">  1  7  2 -1</clus>
<clus scale="   59.387">  2  5  1 -1</clus>
</clustering>
</event>
<event>
 9    2  0.1488992E-004  0.1188612E+03  0.7546771E-02  0.1250372E+00
         21   -1    0    0  501  502  0.00000000000E+00  0.00000000000E+00  0.59677962133E+03  0.59677962133E+03  0.00000000000E+00 0. -1.
         -1   -1    0    0    0  501 -0.00000000000E+00 -0.00000000000E+00 -0.70162216882E+02  0.70162216882E+02  0.00000000000E+00 0.  1.
         24    2    1    2    0    0  0.78873419687E+01 -0.70079301587E+02  0.30855982281E+02  0.11106637927E+03  0.80064538266E+02 0.  0.
         23    2    1    2    0    0  0.23647072685E+01 -0.57463164137E+02  0.32730916574E+03  0.34433740617E+03  0.90162920511E+02 0.  0.
        -11    1    3    3    0    0 -0.25402511301E+02 -0.64179411403E+02  0.63599462298E+01  0.69316183857E+02  0.00000000000E+00 0.  1.
         12    1    3    3    0    0  0.33289853270E+02 -0.58998901839E+01  0.24496036051E+02  0.41750195414E+02  0.00000000000E+00 0. -1.
        -13    1    4    4    0    0 -0.15079137962E+02 -0.77333965333E+02  0.21572439852E+03  0.22966266286E+03  0.00000000000E+00 0.  1.
         13    1    4    4    0    0  0.17443845231E+02  0.19870801196E+02  0.11158476722E+03  0.11467474331E+03  0.00000000000E+00 0. -1.
         -2    1    1    2    0  502 -0.10252049237E+02  0.12754246572E+03  0.16845225643E+03  0.21153805278E+03  0.00000000000E+00 0.  1.
<scales pt_clust_5="13000.00000" pt_clust_6="13000.00000" pt_clust_7="13000.00000" pt_clust_8="13000.00000" pt_clust_9="77.45092"></scales>
<clustering>
<clus scale="   80.065">  5  6 -1 -1</clus>
<clus scale="   90.163">  7  8 -1 -1</clus>
<clus scale="  106.694">  2  5  1 -1</clus>
<clus scale="   77.451">  1  9  2 -1</clus>
<clus scale="   77.451">  1  5  2 -1</clus>
</clustering>
</event>
<event>
 9    2  0.1488992E-004  0.1139285E+03  0.7546771E-02  0.1256615E+00
         21   -1    0    0  501  502  0.00000000000E+00  0.00000000000E+00  0.16412225820E+03  0.16412225820E+03  0.00000000000E+00 0. -1.
          4   -1    0    0  502    0 -0.00000000000E+00 -0.00000000000E+00 -0.15133145527E+03  0.15133145527E+03  0.00000000000E+00 0. -1.
         24    2    1    2    0    0 -0.76674053473E+02  0.15468389736E+02 -0.62896006802E+02  0.12928297204E+03  0.81486180610E+02 0.  0.
         23    2    1    2    0    0  0.54452395287E+02 -0.10530688892E+02 -0.11588335143E+01  0.10602440110E+03  0.90354147507E+02 0.  0.
        -13    1    3    3    0    0 -0.27001359645E+02  0.46914724941E+02 -0.28609653002E+02  0.61225624406E+02  0.00000000000E+00 0.  1.
         14    1    3    3    0    0 -0.49672693828E+02 -0.31446335205E+02 -0.34286353800E+02  0.68057347633E+02  0.00000000000E+00 0. -1.
        -11    1    4    4    0    0  0.50205568944E+02 -0.45249748567E+02  0.12015593178E+02  0.68647748527E+02  0.00000000000E+00 0.  1.
         11    1    4    4    0    0  0.42468263437E+01  0.34719059675E+02 -0.13174426693E+02  0.37376652570E+02  0.00000000000E+00 0. -1.
          3    1    1    2  501    0  0.22221658186E+02 -0.49377008436E+01  0.76845643253E+02  0.80146340335E+02  0.00000000000E+00 0. -1.
<scales pt_clust_5="13000.00000" pt_clust_6="13000.00000" pt_clust_7="13000.00000" pt_clust_8="13000.00000" pt_clust_9="22.76363"></scales>
<clustering>
<clus scale="   22.764">  1  9  2 -1</clus>
<clus scale="   81.486">  5  6 -1 -1</clus>
<clus scale="   90.354">  7  8 -1 -1</clus>
<clus scale="  107.032">  2  5  1 -1</clus>
<clus scale="   22.764">  1  5  2 -1</clus>
</clustering>
</event>
<event>
 9    2  0.1488992E-004  0.1506720E+03  0.7546771E-02  0.1202027E+00
         21   -1    0    0  501  502  0.00000000000E+00  0.00000000000E+00  0.10919936337E+03  0.10919936337E+03  0.00000000000E+00 0.  1.
         -1   -1    0    0    0  501 -0.00000000000E+00 -0.00000000000E+00 -0.28653242323E+03  0.28653242323E+03  0.00000000000E+00 0.  1.
         24    2    1    2    0    0 -0.75257056386E+02  0.10248977166E+03 -0.12784399459E+03  0.19725116666E+03  0.79975983681E+02 0.  0.
         23    2    1    2    0    0  0.83403818250E+02 -0.64153858097E+02 -0.67508984640E+01  0.14049301006E+03  0.92848246278E+02 0.  0.
        -11    1    3    3    0    0 -0.24150713428E+02  0.82023282509E+02 -0.11011559024E+03  0.13941491687E+03  0.00000000000E+00 0.  1.
         12    1    3    3    0    0 -0.51106342958E+02  0.20466489154E+02 -0.17728404345E+02  0.57836249787E+02  0.00000000000E+00 0. -1.
        -13    1    4    4    0    0  0.48834032424E+02 -0.86382733194E+02 -0.48789817209E+01  0.99350610363E+02  0.00000000000E+00 0.  1.
         13    1    4    4    0    0  0.34569785826E+02  0.22228875097E+02 -0.18719167431E+01  0.41142399692E+02  0.00000000000E+00 0. -1.
         -2    1    1    2    0  502 -0.81467618636E+01 -0.38335913565E+02 -0.42738166805E+02  0.57987609880E+02  0.00000000000E+00 0.  1.
<scales pt_clust_5="13000.00000" pt_clust_6="13000.00000" pt_clust_7="13000.00000" pt_clust_8="13000.00000" pt_clust_9="39.19201"></scales>
<clustering>
<clus scale="   39.192">  1  9  2 -1</clus>
<clus scale="   79.976">  5  6 -1 -1</clus>
<clus scale="   92.848">  7  8 -1 -1</clus>
<clus scale="  143.099">  2  5  1 -1</clus>
<clus scale="   39.192">  1  5  2 -1</clus>
</clustering>
</event>
<event>
 9    2  0.1488992E-004  0.1070620E+03  0.7546771E-02  0.1270649E+00
         21   -1    0    0  501  502  0.00000000000E+00  0.00000000000E+00  0.20543985152E+03  0.20543985152E+03  0.00000000000E+00 0.  1.
          2   -1    0    0  502    0 -0.00000000000E+00 -0.00000000000E+00 -0.29307307514E+03  0.29307307514E+03  0.00000000000E+00 0. -1.
         24    2    1    2    0    0  0.53975269359E+02  0.90122553105E+01 -0.25304819099E+03  0.27132885637E+03  0.81187504506E+02 0.  0.
         23    2    1    2    0    0 -0.62547210033E+02  0.26364720888E+02  0.97736778390E+02  0.15033782200E+03  0.91878892482E+02 0.  0.
        -11    1    3    3    0    0 -0.19905544319E+02  0.12378602702E+02 -0.49737576115E+02  0.54984424861E+02  0.00000000000E+00 0.  1.
         12    1    3    3    0    0  0.73880813678E+02 -0.33663473918E+01 -0.20331061487E+03  0.21634443151E+03  0.00000000000E+00 0. -1.
        -13    1    4    4    0    0 -0.67549202886E+02 -0.15724680829E+02  0.75326004429E+02  0.10239222305E+03  0.00000000000E+00 0.  1.
         13    1    4    4    0    0  0.50019928532E+01  0.42089401717E+02  0.22410773961E+02  0.47945598953E+02  0.00000000000E+00 0. -1.
          1    1    1    2  501    0  0.85719406745E+01 -0.35376976198E+02  0.67678188982E+02  0.76846248286E+02  0.00000000000E+00 0. -1.
<scales pt_clust_5="13000.00000" pt_clust_6="13000.00000" pt_clust_7="13000.00000" pt_clust_8="13000.00000" pt_clust_9="36.40067"></scales>
<clustering>
<clus scale="   36.401">  1  9  2 -1</clus>
<clus scale="   81.188">  5  6 -1 -1</clus>
<clus scale="   91.879">  7  8 -1 -1</clus>
<clus scale="   98.041">  2  5  1 -1</clus>
<clus scale="   36.401">  1  5  2 -1</clus>
</clustering>
</event>
<event>
 9    2  0.1488992E-004  0.1166350E+03  0.7546771E-02  0.1250849E+00
         21   -1    0    0  501  502  0.00000000000E+00  0.00000000000E+00  0.26543264191E+03  0.26543264191E+03  0.00000000000E+00 0.  1.
          2   -1    0    0  502    0 -0.00000000000E+00 -0.00000000000E+00 -0.22694428803E+03  0.22694428803E+03  0.00000000000E+00 0. -1.
         23    2    1    2    0    0 -0.71727537018E+02  0.20114233155E+02 -0.18558874906E+03  0.21851734965E+03  0.88075117811E+02 0.  0.
         24    2    1    2    0    0  0.94580371768E+02 -0.23287655209E+02  0.15174207762E+03  0.19793410004E+03  0.81636316846E+02 0.  0.
        -11    1    4    4    0    0  0.21777895564E+02  0.21053773351E+02  0.83231212244E+02  0.88571851054E+02  0.00000000000E+00 0.  1.
         12    1    4    4    0    0  0.72802476204E+02 -0.44341428559E+02  0.68510865376E+02  0.10936224898E+03  0.00000000000E+00 0. -1.
        -11    1    3    3    0    0 -0.33413961722E+02  0.54347209952E+02 -0.96740327859E+02  0.11588271270E+03  0.00000000000E+00 0.  1.
         11    1    3    3    0    0 -0.38313575296E+02 -0.34232976797E+02 -0.88848421205E+02  0.10263463696E+03  0.00000000000E+00 0. -1.
          1    1    1    2  501    0 -0.22852834750E+02  0.31734220541E+01  0.72335025316E+02  0.75925480249E+02  0.00000000000E+00 0. -1.
<scales pt_clust_5="13000.00000" pt_clust_6="13000.00000" pt_clust_7="13000.00000" pt_clust_8="13000.00000" pt_clust_9="23.07212"></scales>
<clustering>
<clus scale="   23.072">  1  9  2 -1</clus>
<clus scale="   81.636">  5  6 -1 -1</clus>
<clus scale="   88.075">  7  8 -1 -1</clus>
<clus scale="  111.853">  1  5  2 -1</clus>
<clus scale="   23.072">  1  5  2 -1</clus>
</clustering>
</event>
<event>
 9    2  0.1488992E-004  0.2254050E+03  0.7546771E-02  0.1153939E+00
          2   -1    0    0  502    0 -0.00000000000E+00  0.00000000000E+00  0.14585601769E+04  0.14585601769E+04  0.00000000000E+00 0. -1.
         21   -1    0    0  501  502  0.00000000000E+00 -0.00000000000E+00 -0.30422606243E+03  0.30422606243E+03  0.00000000000E+00 0. -1.
         23    2    1    2    0    0  0.40965355377E+02  0.77019806877E+02  0.22319938556E+02  0.12847044301E+03  0.91631130511E+02 0.  0.
         24    2    1    2    0    0 -0.70265475718E+02 -0.28078110627E+03  0.13208940288E+04  0.13549365504E+04  0.85538023043E+02 0.  0.
        -13    1    4    4    0    0  0.15356213168E+02 -0.99479886135E+02  0.40037026175E+03  0.41282975610E+03  0.00000000000E+00 0.  1.
         14    1    4    4    0    0 -0.85621688887E+02 -0.18130122013E+03  0.92052376709E+03  0.94210679427E+03  0.00000000000E+00 0. -1.
        -11    1    3    3    0    0 -0.96828835811E+01  0.74654118173E+02  0.19100805741E+02  0.77664897956E+02  0.00000000000E+00 0.  1.
         11    1    3    3    0    0  0.50648238958E+02  0.23656887038E+01  0.32191328159E+01  0.50805545059E+02  0.00000000000E+00 0. -1.
          1    1    1    2  501    0  0.29300120341E+02  0.20376129939E+03 -0.18887985297E+03  0.27937924590E+03  0.00000000000E+00 0. -1.
<scales pt_clust_5="13000.00000" pt_clust_6="13000.00000" pt_clust_7="13000.00000" pt_clust_8="13000.00000" pt_clust_9="208.54416"></scales>
<clustering>
<clus scale="   85.538">  5  6 -1 -1</clus>
<clus scale="   91.631">  7  8 -1 -1</clus>
<clus scale="  126.517">  1  7  2 -1</clus>
<clus scale="  208.544">  2  9  1 -1</clus>
<clus scale="  208.544">  2  5  1 -1</clus>
</clustering>
</event>
<event>
 9    2  0.1488992E-004  0.2822939E+03  0.7546771E-02  0.1095603E+00
         -1   -1    0    0    0  501 -0.00000000000E+00  0.00000000000E+00  0.67689565645E+03  0.67689565645E+03  0.00000000000E+00 0.  1.
         21   -1    0    0  501  502  0.00000000000E+00 -0.00000000000E+00 -0.23327943214E+03  0.23327943214E+03  0.00000000000E+00 0. -1.
         24    2    1    2    0    0  0.22893427034E+03  0.10007090407E+03  0.18604633933E+03  0.31830261621E+03  0.65408173246E+02 0.  0.
         23    2    1    2    0    0 -0.29561460283E+03 -0.84019427569E+02 -0.38334519752E+01  0.32162143869E+03  0.94754402847E+02 0.  0.
        -13    1    3    3    0    0  0.13397647575E+03  0.91209719786E+02  0.10471103977E+03  0.19295935035E+03  0.00000000000E+00 0.  1.
         14    1    3    3    0    0  0.94957794593E+02  0.88611842802E+01  0.81335299563E+02  0.12534326586E+03  0.00000000000E+00 0. -1.
        -11    1    4    4    0    0 -0.20739777977E+03 -0.86980298423E+02  0.30409769032E+02  0.22694529169E+03  0.00000000000E+00 0. -1.
         11    1    4    4    0    0 -0.88216823061E+02  0.29608708533E+01 -0.34243221007E+02  0.94676147007E+02  0.00000000000E+00 0.  1.
         -2    1    1    2    0  502  0.66680332484E+02 -0.16051476496E+02  0.26140333695E+03  0.27025103369E+03  0.00000000000E+00 0.  1.
<scales pt_clust_5="13000.00000" pt_clust_6="13000.00000" pt_clust_7="13000.00000" pt_clust_8="13000.00000" pt_clust_9="68.58514"></scales>
<clustering>
<clus scale="   65.408">  5  6 -1 -1</clus>
<clus scale="   68.585">  2  9  1 -1</clus>
<clus scale="   94.754">  7  8 -1 -1</clus>
<clus scale="  273.842">  1  5  2 -1</clus>
<clus scale="   68.585">  2  5  1 -1</clus>
</clustering>
</event>
<event>
 9    2  0.1488992E-004  0.2313735E+03  0.7546771E-02  0.1156384E+00
          2   -1    0    0  502    0 -0.00000000000E+00  0.00000000000E+00  0.15586803257E+04  0.15586803257E+04  0.00000000000E+00 0. -1.
         21   -1    0    0  501  502  0.00000000000E+00 -0.00000000000E+00 -0.12330934113E+03  0.12330934113E+03  0.00000000000E+00 0. -1.
         24    2    1    2    0    0 -0.50619282559E+02 -0.53439201190E+02  0.97138060397E+03  0.97763987626E+03  0.82349194807E+02 0.  0.
         23    2    1    2    0    0 -0.17764377818E+03  0.10942394746E+03  0.56827616090E+02  0.23422232540E+03  0.89998930886E+02 0.  0.
        -13    1    3    3    0    0 -0.39454031896E+02 -0.50081269667E+02  0.32718847745E+03  0.33334224752E+03  0.00000000000E+00 0.  1.
         14    1    3    3    0    0 -0.11165250663E+02 -0.33579315225E+01  0.64419212652E+03  0.64429762874E+03  0.00000000000E+00 0. -1.
        -13    1    4    4    0    0 -0.13270280511E+03  0.12047199512E+03  0.33268894667E+02  0.18229195112E+03  0.00000000000E+00 0. -1.
         13    1    4    4    0    0 -0.44940973073E+02 -0.11048047655E+02  0.23558721423E+02  0.51930374279E+02  0.00000000000E+00 0.  1.
          1    1    1    2  501    0  0.22826306074E+03 -0.55984746272E+02  0.40716276454E+03  0.47012746520E+03  0.00000000000E+00 0. -1.
<scales pt_clust_5="13000.00000" pt_clust_6="13000.00000" pt_clust_7="13000.00000" pt_clust_8="13000.00000" pt_clust_9="213.15242"></scales>
<clustering>
<clus scale="   82.349">  5  6 -1 -1</clus>
<clus scale="   89.999">  7  8 -1 -1</clus>
<clus scale="  110.451">  1  5  2 -1</clus>
<clus scale="  213.152">  2  9  1 -1</clus>
<clus scale="  213.152">  2  5  1 -1</clus>
</clustering>
</event>
<event>
 9    2  0.1488992E-004  0.9936272E+02  0.7546771E-02  0.1284560E+00
          2   -1    0    0  502    0 -0.00000000000E+00  0.00000000000E+00  0.10054345129E+03  0.10054345129E+03  0.00000000000E+00 0. -1.
         21   -1    0    0  501  502  0.00000000000E+00 -0.00000000000E+00 -0.80078548291E+03  0.80078548291E+03  0.00000000000E+00 0.  1.
         23    2    1    2    0    0  0.12029001731E+02  0.37354427702E+02  0.66100064488E+02  0.11900266621E+03  0.90842533478E+02 0.  0.
         24    2    1    2    0    0  0.57771700821E+01 -0.70728178769E+02 -0.66506473394E+03  0.67421534762E+03  0.84966956343E+02 0.  0.
        -11    1    4    4    0    0 -0.29997266628E+02 -0.66175555140E+02 -0.38052932638E+03  0.38740367621E+03  0.00000000000E+00 0.  1.
         12    1    4    4    0    0  0.35774436710E+02 -0.45526236287E+01 -0.28453540755E+03  0.28681167141E+03  0.00000000000E+00 0. -1.
        -13    1    3    3    0    0 -0.23622261911E+02 -0.33437270006E+01 -0.98001789203E+01  0.25792155298E+02  0.00000000000E+00 0.  1.
         13    1    3    3    0    0  0.35651263642E+02  0.40698154702E+02  0.75900243408E+02  0.93210510914E+02  0.00000000000E+00 0. -1.
          1    1    1    2  501    0 -0.17806171813E+02  0.33373751067E+02 -0.10127736218E+03  0.10811092038E+03  0.00000000000E+00 0. -1.
<scales pt_clust_5="13000.00000" pt_clust_6="13000.00000" pt_clust_7="13000.00000" pt_clust_8="13000.00000" pt_clust_9="37.82680"></scales>
<clustering>
<clus scale="   37.827">  2  9  1 -1</clus>
<clus scale="   84.967">  5  6 -1 -1</clus>
<clus scale="   90.843">  7  8 -1 -1</clus>
<clus scale="   94.021">  2  5  1 -1</clus>
<clus scale="   37.827">  2  5  1 -1</clus>
</clustering>
</event>
<event>
 9    2  0.1488992E-004  0.1286302E+03  0.7546771E-02  0.1232066E+00
         21   -1    0    0  501  502  0.00000000000E+00  0.00000000000E+00  0.36246777263E+02  0.36246777263E+02  0.00000000000E+00 0.  1.
          2   -1    0    0  502    0 -0.00000000000E+00 -0.00000000000E+00 -0.69072548867E+03  0.69072548867E+03  0.00000000000E+00 0. -1.
         23    2    1    2    0    0 -0.42959271355E+02  0.67964663427E+02 -0.27268743289E+03  0.29841599158E+03  0.90713689729E+02 0.  0.
         24    2    1    2    0    0  0.35855677510E+02 -0.10492140921E+03 -0.19812176611E+03  0.24107093654E+03  0.81048322130E+02 0.  0.
        -13    1    4    4    0    0  0.55346296043E+02 -0.10401546815E+03 -0.17082328601E+03  0.20751632501E+03  0.00000000000E+00 0.  1.
         14    1    4    4    0    0 -0.19490618533E+02 -0.90594106304E+00 -0.27298480093E+02  0.33554611537E+02  0.00000000000E+00 0. -1.
        -11    1    3    3    0    0  0.88481606232E+01  0.68821186738E+02 -0.15845134115E+03  0.17297824488E+03  0.00000000000E+00 0. -1.
         11    1    3    3    0    0 -0.51807431979E+02 -0.85652331149E+00 -0.11423609174E+03  0.12543774670E+03  0.00000000000E+00 0.  1.
          1    1    1    2  501    0  0.71035938456E+01  0.36956745785E+02 -0.18366951241E+03  0.18748533781E+03  0.00000000000E+00 0. -1.
<scales pt_clust_5="13000.00000" pt_clust_6="13000.00000" pt_clust_7="13000.00000" pt_clust_8="13000.00000" pt_clust_9="37.63328"></scales>
<clustering>
<clus scale="   37.633">  1  9  2 -1</clus>
<clus scale="   81.048">  5  6 -1 -1</clus>
<clus scale="   90.714">  7  8 -1 -1</clus>
<clus scale="  122.007">  1  5  2 -1</clus>
<clus scale="   37.633">  1  5  2 -1</clus>
</clustering>
</event>
<event>
 9    2  0.1488992E-004  0.1050298E+03  0.7546771E-02  0.1274211E+00
          2   -1    0    0  502    0 -0.00000000000E+00  0.00000000000E+00  0.16116290594E+03  0.16116290594E+03  0.00000000000E+00 0. -1.
         21   -1    0    0  501  502  0.00000000000E+00 -0.00000000000E+00 -0.12442322498E+03  0.12442322498E+03  0.00000000000E+00 0. -1.
         23    2    1    2    0    0  0.21999694438E+02  0.49555910841E+02  0.57468978527E+02  0.12042986500E+03  0.90889460537E+02 0.  0.
         24    2    1    2    0    0 -0.66586731549E+02 -0.13676124492E+02 -0.19888493785E+02  0.10791930323E+03  0.81426007062E+02 0.  0.
        -11    1    4    4    0    0 -0.23329481989E+02 -0.17238273765E+02 -0.48087976313E+02  0.56159382815E+02  0.00000000000E+00 0.  1.
         12    1    4    4    0    0 -0.43257249560E+02  0.35621492730E+01  0.28199482528E+02  0.51759920419E+02  0.00000000000E+00 0. -1.
        -11    1    3    3    0    0  0.19475236577E+02 -0.23724748205E+02  0.71963702388E+01  0.31526754697E+02  0.00000000000E+00 0. -1.
         11    1    3    3    0    0  0.25244578615E+01  0.73280659046E+02  0.50272608288E+02  0.88903110304E+02  0.00000000000E+00 0.  1.
          1    1    1    2  501    0  0.44587037110E+02 -0.35879786349E+02 -0.84080378685E+00  0.57236962688E+02  0.00000000000E+00 0. -1.
<scales pt_clust_5="13000.00000" pt_clust_6="13000.00000" pt_clust_7="13000.00000" pt_clust_8="13000.00000" pt_clust_9="57.23079"></scales>
<clustering>
<clus scale="   57.231">  2  9  1 -1</clus>
<clus scale="   81.426">  5  6 -1 -1</clus>
<clus scale="   90.889">  7  8 -1 -1</clus>
<clus scale="   96.956">  2  5  1 -1</clus>
<clus scale="   57.231">  2  5  1 -1</clus>
</clustering>
</event>
<event>
 9    2  0.1488992E-004  0.1364004E+03  0.7546771E-02  0.1219982E+00
          2   -1    0    0  502    0 -0.00000000000E+00  0.00000000000E+00  0.14486915909E+04  0.14486915909E+04  0.00000000000E+00 0. -1.
         21   -1    0    0  501  502  0.00000000000E+00 -0.00000000000E+00 -0.37429316499E+02  0.37429316499E+02  0.00000000000E+00 0. -1.
         24    2    1    2    0    0  0.93232406605E+02 -0.75479305543E+02  0.81299190734E+03  0.82570370601E+03  0.80258093083E+02 0.  0.
         23    2    1    2    0    0  0.30948552955E+02  0.10381483852E+03  0.21313667019E+03  0.25476737998E+03  0.87999114179E+02 0.  0.
        -13    1    3    3    0    0  0.38291775824E+01 -0.46328805433E+02  0.18717700428E+03  0.19286329808E+03  0.00000000000E+00 0.  1.
         14    1    3    3    0    0  0.89403229023E+02 -0.29150500110E+02  0.62581490305E+03  0.63284040792E+03  0.00000000000E+00 0. -1.
        -11    1    4    4    0    0  0.61522983342E+02  0.71494252951E+02  0.13204376129E+03  0.16227156430E+03  0.00000000000E+00 0. -1.
         11    1    4    4    0    0 -0.30574430387E+02  0.32320585566E+02  0.81092908900E+02  0.92495815682E+02  0.00000000000E+00 0.  1.
          1    1    1    2  501    0 -0.12418095956E+03 -0.28335532974E+02  0.38513369687E+03  0.40564982141E+03  0.00000000000E+00 0. -1.
<scales pt_clust_5="13000.00000" pt_clust_6="13000.00000" pt_clust_7="13000.00000" pt_clust_8="13000.00000" pt_clust_9="127.37273"></scales>
<clustering>
<clus scale="   80.258">  5  6 -1 -1</clus>
<clus scale="   87.999">  7  8 -1 -1</clus>
<clus scale="  127.373">  2  9  1 -1</clus>
<clus scale="  131.539">  1  5  2 -1</clus>
<clus scale="  127.373">  2  5  1 -1</clus>
</clustering>
</event>
<event>
 9    2  0.1488992E-004  0.1397712E+03  0.7546771E-02  0.1216215E+00
         21   -1    0    0  501  502  0.00000000000E+00  0.00000000000E+00  0.44458224429E+03  0.44458224429E+03  0.00000000000E+00 0.  1.
          2   -1    0    0  502    0 -0.00000000000E+00 -0.00000000000E+00 -0.73760968241E+02  0.73760968241E+02  0.00000000000E+00 0. -1.
         24    2    1    2    0    0 -0.72595002188E+02 -0.66591259506E+02  0.54639294457E+02  0.13810125789E+03  0.79887888612E+02 0.  0.
         23    2    1    2    0    0  0.57678308175E+02  0.11359262099E+03  0.20153473547E+03  0.25543960376E+03  0.91668264915E+02 0.  0.
        -11    1    3    3    0    0 -0.61217869037E+02 -0.22774120435E+01  0.22032070378E+02  0.65101660656E+02  0.00000000000E+00 0.  1.
         12    1    3    3    0    0 -0.11377133150E+02 -0.64313847463E+02  0.32607224078E+02  0.72999597234E+02  0.00000000000E+00 0. -1.
        -13    1    4    4    0    0  0.34344074698E+02  0.12163406053E+03  0.18999550150E+03  0.22819432669E+03  0.00000000000E+00 0.  1.
         13    1    4    4    0    0  0.23334233477E+02 -0.80414395386E+01  0.11539233975E+02  0.27245277069E+02  0.00000000000E+00 0. -1.
          1    1    1    2  501    0  0.14916694013E+02 -0.47001361481E+02  0.11464724613E+03  0.12480235088E+03  0.00000000000E+00 0. -1.
<scales pt_clust_5="13000.00000" pt_clust_6="13000.00000" pt_clust_7="13000.00000" pt_clust_8="13000.00000" pt_clust_9="49.31162"></scales>
<clustering>
<clus scale="   49.312">  1  9  2 -1</clus>
<clus scale="   79.888">  5  6 -1 -1</clus>
<clus scale="   91.668">  7  8 -1 -1</clus>
<clus scale="  132.344">  2  5  1 -1</clus>
<clus scale="   49.312">  1  5  2 -1</clus>
</clustering>
</event>
<event>
 9    2  0.1488992E-004  0.9867353E+02  0.7546771E-02  0.1289631E+00
         21   -1    0    0  501  502  0.00000000000E+00  0.00000000000E+00  0.36395688913E+03  0.36395688913E+03  0.00000000000E+00 0. -1.
          4   -1    0    0  502    0 -0.00000000000E+00 -0.00000000000E+00 -0.76400487475E+02  0.76400487475E+02  0.00000000000E+00 0. -1.
         24    2    1    2    0    0 -0.37391753435E+02 -0.88862752945E+01 -0.15462882720E+02  0.90106957033E+02  0.80019084287E+02 0.  0.
         23    2    1    2    0    0  0.26965815843E+02 -0.27604188667E+02  0.92274248371E+02  0.13611559210E+03  0.92324271162E+02 0.  0.
        -11    1    3    3    0    0 -0.49297163361E+01  0.32400069282E+02  0.60946547948E+01  0.33334837778E+02  0.00000000000E+00 0.  1.
         12    1    3    3    0    0 -0.32462037099E+02 -0.41286344576E+02 -0.21557537514E+02  0.56772119255E+02  0.00000000000E+00 0. -1.
        -11    1    4    4    0    0  0.54117310002E+02  0.79957209040E+01  0.58017491864E+02  0.79741107071E+02  0.00000000000E+00 0.  1.
         11    1    4    4    0    0 -0.27151494159E+02 -0.35599909571E+02  0.34256756507E+02  0.56374485034E+02  0.00000000000E+00 0. -1.
          3    1    1    2  501    0  0.10425937592E+02  0.36490463961E+02  0.21074503601E+03  0.21413482747E+03  0.00000000000E+00 0. -1.
<scales pt_clust_5="13000.00000" pt_clust_6="13000.00000" pt_clust_7="13000.00000" pt_clust_8="13000.00000" pt_clust_9="37.95068"></scales>
<clustering>
<clus scale="   37.951">  1  9  2 -1</clus>
<clus scale="   80.019">  5  6 -1 -1</clus>
<clus scale="   87.268">  2  5  1 -1</clus>
<clus scale="   92.324">  7  8 -1 -1</clus>
<clus scale="   37.951">  1  5  2 -1</clus>
</clustering>
</event>
<event>
 9    2  0.1488992E-004  0.9605752E+02  0.7546771E-02  0.1296669E+00
          2   -1    0    0  502    0 -0.00000000000E+00  0.00000000000E+00  0.51860345313E+03  0.51860345313E+03  0.00000000000E+00 0. -1.
         21   -1    0    0  501  502  0.00000000000E+00 -0.00000000000E+00 -0.79602565829E+02  0.79602565829E+02  0.00000000000E+00 0. -1.
         24    2    1    2    0    0  0.29243054913E+01 -0.25208002910E+02  0.45346671924E+03  0.46110225733E+03  0.79619289658E+02 0.  0.
         23    2    1    2    0    0  0.55431794231E+01  0.36277840256E+01  0.20031184439E+02  0.95541178863E+02  0.93182513667E+02 0.  0.
        -13    1    3    3    0    0 -0.25166909060E+02 -0.27034072829E+02  0.10149689815E+03  0.10800849383E+03  0.00000000000E+00 0.  1.
         14    1    3    3    0    0  0.28091214551E+02  0.18260699184E+01  0.35196982109E+03  0.35309376350E+03  0.00000000000E+00 0. -1.
        -11    1    4    4    0    0 -0.34176239435E+01  0.46715926001E+02  0.21427074577E+02  0.51509003295E+02  0.00000000000E+00 0.  1.
         11    1    4    4    0    0  0.89608033666E+01 -0.43088141976E+02 -0.13958901373E+01  0.44032175567E+02  0.00000000000E+00 0. -1.
          1    1    1    2  501    0 -0.84674849145E+01  0.21580218885E+02 -0.34497016372E+02  0.41562582769E+02  0.00000000000E+00 0. -1.
<scales pt_clust_5="13000.00000" pt_clust_6="13000.00000" pt_clust_7="13000.00000" pt_clust_8="13000.00000" pt_clust_9="23.18198"></scales>
<clustering>
<clus scale="   23.182">  2  9  1 -1</clus>
<clus scale="   79.619">  5  6 -1 -1</clus>
<clus scale="   82.966">  1  5  2 -1</clus>
<clus scale="   93.183">  7  8 -1 -1</clus>
<clus scale="   23.182">  2  5  1 -1</clus>
</clustering>
</event>
<event>
 9    2  0.1488992E-004  0.1301692E+03  0.7546771E-02  0.1244404E+00
          2   -1    0    0  502    0 -0.00000000000E+00  0.00000000000E+00  0.25190239827E+03  0.25190239827E+03  0.00000000000E+00 0. -1.
         21   -1    0    0  501  502  0.00000000000E+00 -0.00000000000E+00 -0.13525607045E+03  0.13525607045E+03  0.00000000000E+00 0. -1.
         24    2    1    2    0    0  0.33371007035E+01  0.38982617828E+02  0.12912455668E+03  0.15829632374E+03  0.82787645443E+02 0.  0.
         23    2    1    2    0    0  0.86693935578E+02  0.82702482031E+01 -0.15856470383E+02  0.12712801423E+03  0.91246199253E+02 0.  0.
        -13    1    3    3    0    0 -0.36810090370E+02  0.11070702218E+02  0.81157609463E+02  0.89800338387E+02  0.00000000000E+00 0.  1.
         14    1    3    3    0    0  0.40147191074E+02  0.27911915610E+02  0.47966947215E+02  0.68495985351E+02  0.00000000000E+00 0. -1.
        -13    1    4    4    0    0  0.11993805368E+02  0.42226987833E+02 -0.87876196701E+01  0.44768204433E+02  0.00000000000E+00 0. -1.
         13    1    4    4    0    0  0.74700130210E+02 -0.33956739630E+02 -0.70688507125E+01  0.82359809799E+02  0.00000000000E+00 0.  1.
          1    1    1    2  501    0 -0.90031036281E+02 -0.47252866031E+02  0.33782415260E+01  0.10173413074E+03  0.00000000000E+00 0. -1.
<scales pt_clust_5="13000.00000" pt_clust_6="13000.00000" pt_clust_7="13000.00000" pt_clust_8="13000.00000" pt_clust_9="92.83399"></scales>
<clustering>
<clus scale="   82.788">  5  6 -1 -1</clus>
<clus scale="   91.246">  7  8 -1 -1</clus>
<clus scale="   91.567">  1  5  2 -1</clus>
<clus scale="   92.834">  2  9  1 -1</clus>
<clus scale="   92.834">  2  5  1 -1</clus>
</clustering>
</event>
<event>
 9    2  0.1488992E-004  0.1029849E+03  0.7546771E-02  0.1282393E+00
          2   -1    0    0  502    0 -0.00000000000E+00  0.00000000000E+00  0.28266914096E+03  0.28266914096E+03  0.00000000000E+00 0. -1.
         21   -1    0    0  501  502  0.00000000000E+00 -0.00000000000E+00 -0.83877579337E+02  0.83877579337E+02  0.00000000000E+00 0.  1.
         23    2    1    2    0    0 -0.23667581718E+02  0.24255693471E+02  0.21505506997E+03  0.23771771484E+03  0.95459602653E+02 0.  0.
         24    2    1    2    0    0  0.41283701537E+02 -0.43344318925E+02 -0.19407040478E+01  0.99166806930E+02  0.79039327356E+02 0.  0.
        -13    1    4    4    0    0  0.31186118403E+02 -0.21664047174E+01 -0.33869336987E+02  0.46091206086E+02  0.00000000000E+00 0.  1.
         14    1    4    4    0    0  0.10097583134E+02 -0.41177914208E+02  0.31928632940E+02  0.53075600845E+02  0.00000000000E+00 0. -1.
        -13    1    3    3    0    0 -0.18585796613E+02  0.51155650726E+02  0.19827246096E+03  0.20560715263E+03  0.00000000000E+00 0. -1.
         13    1    3    3    0    0 -0.50817851047E+01 -0.26899957256E+02  0.16782609006E+02  0.32110562207E+02  0.00000000000E+00 0.  1.
          1    1    1    2  501    0 -0.17616119819E+02  0.19088625454E+02 -0.14322804290E+02  0.29662198535E+02  0.00000000000E+00 0. -1.
<scales pt_clust_5="13000.00000" pt_clust_6="13000.00000" pt_clust_7="13000.00000" pt_clust_8="13000.00000" pt_clust_9="25.97505"></scales>
<clustering>
<clus scale="   25.975">  2  9  1 -1</clus>
<clus scale="   79.039">  5  6 -1 -1</clus>
<clus scale="   87.980">  2  5  1 -1</clus>
<clus scale="   95.460">  7  8 -1 -1</clus>
<clus scale="   25.975">  2  5  1 -1</clus>
</clustering>
</event>
<event>
 9    2  0.1488992E-004  0.1280841E+03  0.7546771E-02  0.1252040E+00
          2   -1    0    0  502    0 -0.00000000000E+00  0.00000000000E+00  0.82409295802E+03  0.82409295802E+03  0.00000000000E+00 0. -1.
         21   -1    0    0  501  502  0.00000000000E+00 -0.00000000000E+00 -0.77007230409E+02  0.77007230409E+02  0.00000000000E+00 0.  1.
         24    2    1    2    0    0  0.75107361863E+01  0.18953061737E+02  0.65839839811E+03  0.66354429929E+03  0.79918438261E+02 0.  0.
         23    2    1    2    0    0 -0.95264571483E+02 -0.19015821307E+01  0.49836854593E+02  0.14008359581E+03  0.89781663749E+02 0.  0.
        -13    1    3    3    0    0 -0.27023948463E+02  0.52929981548E+00  0.94511843650E+02  0.98300877611E+02  0.00000000000E+00 0.  1.
         14    1    3    3    0    0  0.34534684649E+02  0.18423761921E+02  0.56388655446E+03  0.56524342168E+03  0.00000000000E+00 0. -1.
        -11    1    4    4    0    0 -0.86147144475E+02 -0.35599811158E+02  0.48669656037E+02  0.10515423184E+03  0.00000000000E+00 0.  1.
         11    1    4    4    0    0 -0.91174270081E+01  0.33698229028E+02  0.11671985564E+01  0.34929363970E+02  0.00000000000E+00 0. -1.
          1    1    1    2  501    0  0.87753835297E+02 -0.17051479606E+02  0.38850474903E+02  0.97472293326E+02  0.00000000000E+00 0. -1.
<scales pt_clust_5="13000.00000" pt_clust_6="13000.00000" pt_clust_7="13000.00000" pt_clust_8="13000.00000" pt_clust_9="91.34987"></scales>
<clustering>
<clus scale="   79.918">  5  6 -1 -1</clus>
<clus scale="   82.478">  1  5  2 -1</clus>
<clus scale="   89.782">  7  8 -1 -1</clus>
<clus scale="   91.350">  2  9  1 -1</clus>
<clus scale="   91.350">  2  5  1 -1</clus>
</clustering>
</event>
<event>
 9    2  0.1488992E-004  0.1103572E+03  0.7546771E-02  0.1269659E+00
         -1   -1    0    0    0  501 -0.00000000000E+00  0.00000000000E+00  0.37764808918E+03  0.37764808918E+03  0.00000000000E+00 0.  1.
         21   -1    0    0  501  502  0.00000000000E+00 -0.00000000000E+00 -0.11208015877E+03  0.11208015877E+03  0.00000000000E+00 0. -1.
         24    2    1    2    0    0 -0.20991567944E+02  0.40666203911E+02  0.18614315924E+03  0.20730502688E+03  0.78941195657E+02 0.  0.
         23    2    1    2    0    0 -0.39173952493E+02  0.37976324165E+02 -0.51819245581E+02  0.11801662447E+03  0.90916938399E+02 0.  0.
        -13    1    3    3    0    0 -0.27889535334E+02 -0.17268483152E+02  0.62374567638E+02  0.70474203646E+02  0.00000000000E+00 0.  1.
         14    1    3    3    0    0  0.68979673904E+01  0.57934687063E+02  0.12376859160E+03  0.13683082323E+03  0.00000000000E+00 0. -1.
        -11    1    4    4    0    0 -0.33005647502E+02 -0.18040731599E+01  0.17840144766E+02  0.37561925035E+02  0.00000000000E+00 0.  1.
         11    1    4    4    0    0 -0.61683049902E+01  0.39780397325E+02 -0.69659390348E+02  0.80454699436E+02  0.00000000000E+00 0. -1.
         -2    1    1    2    0  502  0.60165520436E+02 -0.78642528076E+02  0.13124401675E+03  0.16440659660E+03  0.00000000000E+00 0.  1.
<scales pt_clust_5="13000.00000" pt_clust_6="13000.00000" pt_clust_7="13000.00000" pt_clust_8="13000.00000" pt_clust_9="62.55261"></scales>
<clustering>
<clus scale="   78.941">  5  6 -1 -1</clus>
<clus scale="   90.917">  7  8 -1 -1</clus>
<clus scale="   91.247">  1  5  2 -1</clus>
<clus scale="   62.553">  2  9  1 -1</clus>
<clus scale="   62.553">  2  5  1 -1</clus>
</clustering>
</event>
<event>
 9    2  0.1488992E-004  0.1263180E+03  0.7546771E-02  0.1235788E+00
         21   -1    0    0  501  502  0.00000000000E+00  0.00000000000E+00  0.47739667177E+03  0.47739667177E+03  0.00000000000E+00 0. -1.
          2   -1    0    0  502    0 -0.00000000000E+00 -0.00000000000E+00 -0.73669089884E+02  0.73669089884E+02  0.00000000000E+00 0. -1.
         23    2    1    2    0    0 -0.58241865812E+02  0.12686150425E+02  0.10742491674E+03  0.15309362599E+03  0.91348192296E+02 0.  0.
         24    2    1    2    0    0  0.12615958248E+03 -0.73246259870E+02  0.23465044797E+03  0.28805699124E+03  0.81453929489E+02 0.  0.
        -11    1    4    4    0    0  0.83292629685E+02 -0.12797901469E+01  0.11874849094E+03  0.14505345264E+03  0.00000000000E+00 0.  1.
         12    1    4    4    0    0  0.42866952794E+02 -0.71966469723E+02  0.11590195703E+03  0.14300353859E+03  0.00000000000E+00 0. -1.
        -11    1    3    3    0    0 -0.79863558676E+02  0.24317959879E+02  0.91329841165E+02  0.12373637729E+03  0.00000000000E+00 0. -1.
         11    1    3    3    0    0  0.21621692864E+02 -0.11631809454E+02  0.16095075575E+02  0.29357248700E+02  0.00000000000E+00 0.  1.
          1    1    1    2  501    0 -0.67917716667E+02  0.60560109445E+02  0.61652217176E+02  0.10991514443E+03  0.00000000000E+00 0. -1.
<scales pt_clust_5="13000.00000" pt_clust_6="13000.00000" pt_clust_7="13000.00000" pt_clust_8="13000.00000" pt_clust_9="90.99644"></scales>
<clustering>
<clus scale="   81.454">  5  6 -1 -1</clus>
<clus scale="   90.996">  1  9  2 -1</clus>
<clus scale="   91.348">  7  8 -1 -1</clus>
<clus scale="  119.359">  1  5  2 -1</clus>
<clus scale="   90.996">  1  5  2 -1</clus>
</clustering>
</event>
<event>
 9    2  0.1488992E-004  0.3381751E+03  0.7546771E-02  0.1117147E+00
         21   -1    0    0  501  502  0.00000000000E+00  0.00000000000E+00  0.27078287372E+03  0.27078287372E+03  0.00000000000E+00 0. -1.
          2   -1    0    0  502    0 -0.00000000000E+00 -0.00000000000E+00 -0.78854403284E+03  0.78854403284E+03  0.00000000000E+00 0. -1.
         24    2    1    2    0    0  0.38330270861E+02  0.16240143478E+02 -0.26616505472E+03  0.28150931806E+03  0.81674401608E+02 0.  0.
         23    2    1    2    0    0  0.11252373188E+03  0.27919765986E+03 -0.30712418016E+03  0.44147878165E+03  0.99826494960E+02 0.  0.
        -11    1    3    3    0    0 -0.28686336660E+01 -0.29578074367E+02 -0.98256764247E+02  0.10265224431E+03  0.00000000000E+00 0.  1.
         12    1    3    3    0    0  0.41198904527E+02  0.45818217845E+02 -0.16790829047E+03  0.17885707375E+03  0.00000000000E+00 0. -1.
        -11    1    4    4    0    0  0.42527786819E+02  0.10052913912E+03 -0.18255943963E+03  0.21270324271E+03  0.00000000000E+00 0.  1.
         11    1    4    4    0    0  0.69995945065E+02  0.17866852075E+03 -0.12456474054E+03  0.22877553894E+03  0.00000000000E+00 0. -1.
          1    1    1    2  501    0 -0.15085400275E+03 -0.29543780334E+03  0.55528075763E+02  0.33633880684E+03  0.00000000000E+00 0. -1.
<scales pt_clust_5="13000.00000" pt_clust_6="13000.00000" pt_clust_7="13000.00000" pt_clust_8="13000.00000" pt_clust_9="323.10537"></scales>
<clustering>
<clus scale="   81.674">  5  6 -1 -1</clus>
<clus scale="   91.671">  2  5  1 -1</clus>
<clus scale="   99.826">  7  8 -1 -1</clus>
<clus scale="  323.105">  1  9  2 -1</clus>
<clus scale="  323.105">  1  5  2 -1</clus>
</clustering>
</event>
<event>
 9    2  0.1488992E-004  0.2109997E+03  0.7546771E-02  0.1141552E+00
         21   -1    0    0  501  502  0.00000000000E+00  0.00000000000E+00  0.87418252898E+03  0.87418252898E+03  0.00000000000E+00 0.  1.
          2   -1    0    0  502    0 -0.00000000000E+00 -0.00000000000E+00 -0.83751864874E+02  0.83751864874E+02  0.00000000000E+00 0. -1.
         24    2    1    2    0    0  0.15904613955E+03 -0.10470589612E+03  0.37068288570E+03  0.42442843241E+03  0.80465478915E+02 0.  0.
         23    2    1    2    0    0 -0.13589138320E+03  0.13789586776E+03  0.43939312133E+03  0.48852089216E+03  0.90025599886E+02 0.  0.
        -11    1    3    3    0    0  0.15788118653E+03 -0.75060766602E+02  0.29189765486E+03  0.34024230874E+03  0.00000000000E+00 0.  1.
         12    1    3    3    0    0  0.11649530168E+01 -0.29645129515E+02  0.78785230846E+02  0.84186123672E+02  0.00000000000E+00 0. -1.
        -11    1    4    4    0    0 -0.73984990330E+02  0.14608539547E+02  0.16380911765E+03  0.18033473111E+03  0.00000000000E+00 0. -1.
         11    1    4    4    0    0 -0.61906392869E+02  0.12328732821E+03  0.27558400368E+03  0.30818616105E+03  0.00000000000E+00 0.  1.
          1    1    1    2  501    0 -0.23154756349E+02 -0.33189971643E+02 -0.19645342930E+02  0.44985069280E+02  0.00000000000E+00 0. -1.
<scales pt_clust_5="13000.00000" pt_clust_6="13000.00000" pt_clust_7="13000.00000" pt_clust_8="13000.00000" pt_clust_9="40.46874"></scales>
<clustering>
<clus scale="   40.469">  1  9  2 -1</clus>
<clus scale="   80.465">  5  6 -1 -1</clus>
<clus scale="   90.026">  7  8 -1 -1</clus>
<clus scale="  207.101">  2  5  1 -1</clus>
<clus scale="   40.469">  1  5  2 -1</clus>
</clustering>
</event>
<event>
 9    2  0.1488992E-004  0.1107221E+03  0.7546771E-02  0.1262136E+00
         21   -1    0    0  501  502  0.00000000000E+00  0.00000000000E+00  0.63004991820E+03  0.63004991820E+03  0.00000000000E+00 0. -1.
         -1   -1    0    0    0  501 -0.00000000000E+00 -0.00000000000E+00 -0.53177590104E+02  0.53177590104E+02  0.00000000000E+00 0.  1.
         23    2    1    2    0    0 -0.60664046780E+02  0.46738156494E+01  0.22895540814E+03  0.25393201310E+03  0.91427114337E+02 0.  0.
         24    2    1    2    0    0  0.30523074217E+02  0.95487882302E+02  0.26972005476E+03  0.29869842904E+03  0.80138940886E+02 0.  0.
        -13    1    4    4    0    0 -0.52018607768E+01  0.83349485744E+02  0.22606849275E+03  0.24100033101E+03  0.00000000000E+00 0.  1.
         14    1    4    4    0    0  0.35724934993E+02  0.12138396559E+02  0.43651562002E+02  0.57698098032E+02  0.00000000000E+00 0. -1.
        -13    1    3    3    0    0 -0.25351061367E+02  0.33553594263E+02  0.18793552104E+03  0.19258317701E+03  0.00000000000E+00 0. -1.
         13    1    3    3    0    0 -0.35312985412E+02 -0.28879778614E+02  0.41019887106E+02  0.61348836091E+02  0.00000000000E+00 0.  1.
         -2    1    1    2    0  502  0.30140972563E+02 -0.10016169795E+03  0.78196865198E+02  0.13059706616E+03  0.00000000000E+00 0.  1.
<scales pt_clust_5="13000.00000" pt_clust_6="13000.00000" pt_clust_7="13000.00000" pt_clust_8="13000.00000" pt_clust_9="104.59854"></scales>
<clustering>
<clus scale="   80.139">  5  6 -1 -1</clus>
<clus scale="   91.427">  7  8 -1 -1</clus>
<clus scale="  104.599">  1  9  2 -1</clus>
<clus scale="  104.599">  1  5  2 -1</clus>
<clus scale="  104.599">  1  5  2 -1</clus>
</clustering>
</event>
<event>
 9    2  0.1488992E-004  0.2223950E+03  0.7546771E-02  0.1132244E+00
         21   -1    0    0  501  502  0.00000000000E+00  0.00000000000E+00  0.44941719977E+02  0.44941719977E+02  0.00000000000E+00 0.  1.
          2   -1    0    0  502    0 -0.00000000000E+00 -0.00000000000E+00 -0.15588083200E+04  0.15588083200E+04  0.00000000000E+00 0. -1.
         24    2    1    2    0    0 -0.30388561110E+02 -0.20542277217E+03 -0.10733351471E+04  0.10970009958E+04  0.90779219992E+02 0.  0.
         23    2    1    2    0    0  0.49831161447E+02  0.18749413562E+03 -0.42623073327E+03  0.47668309505E+03  0.88977185716E+02 0.  0.
        -11    1    3    3    0    0 -0.32126949635E+02 -0.19059201783E+03 -0.79101779701E+03  0.81428902322E+03  0.00000000000E+00 0.  1.
         12    1    3    3    0    0  0.17383885247E+01 -0.14830754342E+02 -0.28231735011E+03  0.28271197258E+03  0.00000000000E+00 0. -1.
        -13    1    4    4    0    0  0.75027748208E+02  0.12157117785E+03 -0.28596824092E+03  0.31966630898E+03  0.00000000000E+00 0.  1.
         13    1    4    4    0    0 -0.25196586760E+02  0.65922957772E+02 -0.14026249235E+03  0.15701678607E+03  0.00000000000E+00 0. -1.
          1    1    1    2  501    0 -0.19442600337E+02  0.17928636547E+02 -0.14300719686E+02  0.30065949176E+02  0.00000000000E+00 0. -1.
<scales pt_clust_5="13000.00000" pt_clust_6="13000.00000" pt_clust_7="13000.00000" pt_clust_8="13000.00000" pt_clust_9="26.44713"></scales>
<clustering>
<clus scale="   26.447">  1  9  2 -1</clus>
<clus scale="   88.977">  7  8 -1 -1</clus>
<clus scale="   90.779">  5  6 -1 -1</clus>
<clus scale="  221.666">  1  7  2 -1</clus>
<clus scale="   26.447">  1  5  2 -1</clus>
</clustering>
</event>
<event>
 9    2  0.1488992E-004  0.2288026E+03  0.7546771E-02  0.1127741E+00
          2   -1    0    0  502    0 -0.00000000000E+00  0.00000000000E+00  0.29235289474E+03  0.29235289474E+03  0.00000000000E+00 0. -1.
         21   -1    0    0  501  502  0.00000000000E+00 -0.00000000000E+00 -0.32994044338E+03  0.32994044338E+03  0.00000000000E+00 0. -1.
         24    2    1    2    0    0  0.27543127098E+03 -0.14484235051E+01  0.43840467950E+02  0.29136779844E+03  0.84313251482E+02 0.  0.
         23    2    1    2    0    0 -0.14093615026E+03  0.50057320361E+02 -0.70955898845E+02  0.18753297502E+03  0.88120050868E+02 0.  0.
        -11    1    3    3    0    0  0.11763362110E+03 -0.42050047461E+02  0.24271417451E+02  0.12725948691E+03  0.00000000000E+00 0.  1.
         12    1    3    3    0    0  0.15779764988E+03  0.40601623956E+02  0.19569050499E+02  0.16410831153E+03  0.00000000000E+00 0. -1.
        -11    1    4    4    0    0 -0.12299763100E+03  0.60950662687E+02 -0.85752276315E+02  0.16185442041E+03  0.00000000000E+00 0. -1.
         11    1    4    4    0    0 -0.17938519267E+02 -0.10893342327E+02  0.14796377470E+02  0.25678554608E+02  0.00000000000E+00 0.  1.
          1    1    1    2  501    0 -0.13449512071E+03 -0.48608896855E+02 -0.10472117746E+02  0.14339256466E+03  0.00000000000E+00 0. -1.
<scales pt_clust_5="13000.00000" pt_clust_6="13000.00000" pt_clust_7="13000.00000" pt_clust_8="13000.00000" pt_clust_9="143.00966"></scales>
<clustering>
<clus scale="   84.313">  5  6 -1 -1</clus>
<clus scale="   88.120">  7  8 -1 -1</clus>
<clus scale="  143.010">  2  9  1 -1</clus>
<clus scale="  227.364">  1  5  2 -1</clus>
<clus scale="  143.010">  2  5  1 -1</clus>
</clustering>
</event>
<event>
 9    2  0.1488992E-004  0.1034944E+03  0.7546771E-02  0.1277088E+00
          2   -1    0    0  502    0 -0.00000000000E+00  0.00000000000E+00  0.66550082029E+03  0.66550082029E+03  0.00000000000E+00 0. -1.
         21   -1    0    0  501  502  0.00000000000E+00 -0.00000000000E+00 -0.59933442203E+02  0.59933442203E+02  0.00000000000E+00 0.  1.
         23    2    1    2    0    0  0.17772510851E+02 -0.39565535259E+02  0.44319366131E+03  0.45404433715E+03  0.88624742318E+02 0.  0.
         24    2    1    2    0    0 -0.79034407834E+01  0.90283743099E+02  0.18009420185E+03  0.21676620575E+03  0.79624416916E+02 0.  0.
        -13    1    4    4    0    0  0.77666540471E+01  0.60758298707E+02  0.40990711838E+02  0.73702986600E+02  0.00000000000E+00 0.  1.
         14    1    4    4    0    0 -0.15670094830E+02  0.29525444392E+02  0.13910349002E+03  0.14306321915E+03  0.00000000000E+00 0. -1.
        -13    1    3    3    0    0 -0.35910723194E+02 -0.95249177533E+01  0.16683988625E+03  0.17092645127E+03  0.00000000000E+00 0. -1.
         13    1    3    3    0    0  0.53683234046E+02 -0.30040617506E+02  0.27635377506E+03  0.28311788588E+03  0.00000000000E+00 0.  1.
          1    1    1    2  501    0 -0.98690700678E+01 -0.50718207839E+02 -0.17720485080E+02  0.54623719591E+02  0.00000000000E+00 0. -1.
<scales pt_clust_5="13000.00000" pt_clust_6="13000.00000" pt_clust_7="13000.00000" pt_clust_8="13000.00000" pt_clust_9="51.66948"></scales>
<clustering>
<clus scale="   51.669">  2  9  1 -1</clus>
<clus scale="   79.624">  5  6 -1 -1</clus>
<clus scale="   88.625">  7  8 -1 -1</clus>
<clus scale="   95.900">  2  5  1 -1</clus>
<clus scale="   51.669">  2  5  1 -1</clus>
</clustering>
</event>
<event>
 9    2  0.1488992E-004  0.1025346E+03  0.7546771E-02  0.1279406E+00
         -3   -1    0    0    0  501 -0.00000000000E+00  0.00000000000E+00  0.64140218116E+03  0.64140218116E+03  0.00000000000E+00 0.  1.
         21   -1    0    0  501  502  0.00000000000E+00 -0.00000000000E+00 -0.96048374224E+02  0.96048374224E+02  0.00000000000E+00 0.  1.
         23    2    1    2    0    0  0.37606149879E+02  0.44201899960E+02  0.39556250514E+03  0.40992075375E+03  0.90538933131E+02 0.  0.
         24    2    1    2    0    0 -0.29562437533E+02 -0.22410306229E+02  0.22858467291E+03  0.24538377193E+03  0.81154687486E+02 0.  0.
        -11    1    4    4    0    0 -0.51812887971E+02 -0.15346434956E+01  0.18539008413E+03  0.19250042542E+03  0.00000000000E+00 0.  1.
         12    1    4    4    0    0  0.22250450438E+02 -0.20875662733E+02  0.43194588774E+02  0.52883346515E+02  0.00000000000E+00 0. -1.
        -13    1    3    3    0    0  0.34330451423E+02 -0.22305863732E+02  0.15374268809E+03  0.15910042613E+03  0.00000000000E+00 0. -1.
         13    1    3    3    0    0  0.32756984556E+01  0.66507763692E+02  0.24181981705E+03  0.25082032762E+03  0.00000000000E+00 0.  1.
         -4    1    1    2    0  502 -0.80437123456E+01 -0.21791593731E+02 -0.78793371109E+02  0.82146029705E+02  0.00000000000E+00 0.  1.
<scales pt_clust_5="13000.00000" pt_clust_6="13000.00000" pt_clust_7="13000.00000" pt_clust_8="13000.00000" pt_clust_9="23.22875"></scales>
<clustering>
<clus scale="   23.229">  2  9  1 -1</clus>
<clus scale="   81.155">  5  6 -1 -1</clus>
<clus scale="   90.539">  7  8 -1 -1</clus>
<clus scale="   94.351">  2  5  1 -1</clus>
<clus scale="   23.229">  2  5  1 -1</clus>
</clustering>
</event>
<event>
 9    2  0.1488992E-004  0.1397690E+03  0.7546771E-02  0.1229722E+00
          4   -1    0    0  502    0 -0.00000000000E+00  0.00000000000E+00  0.39694090194E+03  0.39694090194E+03  0.00000000000E+00 0. -1.
         21   -1    0    0  501  502  0.00000000000E+00 -0.00000000000E+00 -0.19586317478E+03  0.19586317478E+03  0.00000000000E+00 0. -1.
         23    2    1    2    0    0  0.11075155993E+02 -0.40712229537E+02  0.29781747337E+03  0.31409698763E+03  0.90451785363E+02 0.  0.
         24    2    1    2    0    0  0.97101404221E+02  0.72443423559E+02 -0.33364698782E+02  0.14938024157E+03  0.80774507910E+02 0.  0.
        -13    1    4    4    0    0  0.35454264549E+02  0.18271982817E+01 -0.42291571532E+02  0.55217031348E+02  0.00000000000E+00 0.  1.
         14    1    4    4    0    0  0.61647139671E+02  0.70616225277E+02  0.89268727502E+01  0.94163210221E+02  0.00000000000E+00 0. -1.
        -13    1    3    3    0    0 -0.40420316427E+01  0.26137323204E+02  0.45417822005E+02  0.52557361423E+02  0.00000000000E+00 0.  1.
         13    1    3    3    0    0  0.15117187636E+02 -0.66849552741E+02  0.25239965137E+03  0.26153962620E+03  0.00000000000E+00 0. -1.
          3    1    1    2  501    0 -0.10817656021E+03 -0.31731194022E+02 -0.63375047428E+02  0.12932684752E+03  0.00000000000E+00 0. -1.
<scales pt_clust_5="13000.00000" pt_clust_6="13000.00000" pt_clust_7="13000.00000" pt_clust_8="13000.00000" pt_clust_9="114.06513"></scales>
<clustering>
<clus scale="   80.775">  5  6 -1 -1</clus>
<clus scale="   90.452">  7  8 -1 -1</clus>
<clus scale="   99.808">  1  7  2 -1</clus>
<clus scale="  114.065">  2  9  1 -1</clus>
<clus scale="  114.065">  2  5  1 -1</clus>
</clustering>
</event>
<event>
 9    2  0.1488992E-004  0.1327952E+03  0.7546771E-02  0.1229329E+00
         -3   -1    0    0    0  501 -0.00000000000E+00  0.00000000000E+00  0.42454931936E+02  0.42454931936E+02  0.00000000000E+00 0.  1.
         21   -1    0    0  501  502  0.00000000000E+00 -0.00000000000E+00 -0.11483399029E+04  0.11483399029E+04  0.00000000000E+00 0. -1.
         24    2    1    2    0    0 -0.57831332290E+01  0.85344509598E+02 -0.72250268356E+03  0.73196626890E+03  0.80295461329E+02 0.  0.
         23    2    1    2    0    0 -0.73240255674E+02  0.21247177448E+02 -0.19321337240E+03  0.22694346513E+03  0.91413081637E+02 0.  0.
        -13    1    3    3    0    0 -0.74868823888E+01  0.43439426094E+02 -0.11724772461E+03  0.12525999390E+03  0.00000000000E+00 0.  1.
         14    1    3    3    0    0  0.17037491598E+01  0.41905083504E+02 -0.60525495895E+03  0.60670627500E+03  0.00000000000E+00 0. -1.
        -13    1    4    4    0    0 -0.31112160309E+02  0.52477629174E+02 -0.68935213448E+02  0.92053961001E+02  0.00000000000E+00 0.  1.
         13    1    4    4    0    0 -0.42128095365E+02 -0.31230451727E+02 -0.12427815895E+03  0.13488950413E+03  0.00000000000E+00 0. -1.
         -4    1    1    2    0  502  0.79023388903E+02 -0.10659168705E+03 -0.19016891505E+03  0.23188510084E+03  0.00000000000E+00 0.  1.
<scales pt_clust_5="13000.00000" pt_clust_6="13000.00000" pt_clust_7="13000.00000" pt_clust_8="13000.00000" pt_clust_9="96.32347"></scales>
<clustering>
<clus scale="   80.295">  5  6 -1 -1</clus>
<clus scale="   91.413">  7  8 -1 -1</clus>
<clus scale="  117.322">  1  5  2 -1</clus>
<clus scale="   96.323">  2  9  1 -1</clus>
<clus scale="   96.323">  2  5  1 -1</clus>
</clustering>
</event>
<event>
 9    2  0.1488992E-004  0.9440704E+02  0.7546771E-02  0.1300781E+00
          2   -1    0    0  502    0 -0.00000000000E+00  0.00000000000E+00  0.86933175503E+02  0.86933175503E+02  0.00000000000E+00 0. -1.
         21   -1    0    0  501  502  0.00000000000E+00 -0.00000000000E+00 -0.15636934662E+03  0.15636934662E+03  0.00000000000E+00 0.  1.
         24    2    1    2    0    0 -0.44852785961E+01  0.12216242490E+02  0.99468194682E+01  0.79609747634E+02  0.77906472107E+02 0.  0.
         23    2    1    2    0    0  0.36200982351E+02 -0.25049059816E+02 -0.34946424859E+02  0.10761091076E+03  0.91765401892E+02 0.  0.
        -11    1    3    3    0    0  0.25473791159E+02 -0.17413316957E+02 -0.10736041955E+02  0.32671091814E+02  0.00000000000E+00 0.  1.
         12    1    3    3    0    0 -0.29959069755E+02  0.29629559447E+02  0.20682861423E+02  0.46938655820E+02  0.00000000000E+00 0. -1.
        -11    1    4    4    0    0  0.56909949021E+02 -0.27515381473E+02  0.40983529840E+01  0.63345362990E+02  0.00000000000E+00 0.  1.
         11    1    4    4    0    0 -0.20708966669E+02  0.24663216569E+01 -0.39044777843E+02  0.44265547775E+02  0.00000000000E+00 0. -1.
          1    1    1    2  501    0 -0.31715703755E+02  0.12832817326E+02 -0.44436565730E+02  0.56081863727E+02  0.00000000000E+00 0. -1.
<scales pt_clust_5="13000.00000" pt_clust_6="13000.00000" pt_clust_7="13000.00000" pt_clust_8="13000.00000" pt_clust_9="34.21355"></scales>
<clustering>
<clus scale="   34.214">  2  9  1 -1</clus>
<clus scale="   77.906">  5  6 -1 -1</clus>
<clus scale="   81.001">  1  5  2 -1</clus>
<clus scale="   91.765">  7  8 -1 -1</clus>
<clus scale="   34.214">  2  5  1 -1</clus>
</clustering>
</event>
<event>
 9    2  0.1488992E-004  0.1039087E+03  0.7546771E-02  0.1275335E+00
         -1   -1    0    0    0  501 -0.00000000000E+00  0.00000000000E+00  0.15259513922E+03  0.15259513922E+03  0.00000000000E+00 0.  1.
         21   -1    0    0  501  502  0.00000000000E+00 -0.00000000000E+00 -0.10636116473E+03  0.10636116473E+03  0.00000000000E+00 0. -1.
         24    2    1    2    0    0  0.48948454470E+02 -0.27902136064E+02  0.56131564358E+02  0.11268895864E+03  0.79834632152E+02 0.  0.
         23    2    1    2    0    0 -0.64291058301E+02 -0.16503570923E+01 -0.22791585562E+02  0.11056019659E+03  0.86994464436E+02 0.  0.
        -13    1    3    3    0    0 -0.20579348858E+02 -0.85918089733E+01  0.18215045136E+01  0.22375134849E+02  0.00000000000E+00 0.  1.
         14    1    3    3    0    0  0.69527803328E+02 -0.19310327090E+02  0.54310059844E+02  0.90313823794E+02  0.00000000000E+00 0. -1.
        -13    1    4    4    0    0 -0.28973428865E+02 -0.58767882001E+00  0.33377082777E+02  0.44202201318E+02  0.00000000000E+00 0.  1.
         13    1    4    4    0    0 -0.35317629436E+02 -0.10626782723E+01 -0.56168668340E+02  0.66357995277E+02  0.00000000000E+00 0. -1.
         -2    1    1    2    0  502  0.15342603830E+02  0.29552493156E+02  0.12893995700E+02  0.35707148712E+02  0.00000000000E+00 0.  1.
<scales pt_clust_5="13000.00000" pt_clust_6="13000.00000" pt_clust_7="13000.00000" pt_clust_8="13000.00000" pt_clust_9="33.29784"></scales>
<clustering>
<clus scale="   33.298">  2  9  1 -1</clus>
<clus scale="   79.835">  5  6 -1 -1</clus>
<clus scale="   86.994">  7  8 -1 -1</clus>
<clus scale="   97.993">  1  5  2 -1</clus>
<clus scale="   33.298">  2  5  1 -1</clus>
</clustering>
</event>
<event>
 9    2  0.1488992E-004  0.9904683E+02  0.7546771E-02  0.1290390E+00
         21   -1    0    0  501  502  0.00000000000E+00  0.00000000000E+00  0.14513061084E+03  0.14513061084E+03  0.00000000000E+00 0. -1.
         -1   -1    0    0    0  501 -0.00000000000E+00 -0.00000000000E+00 -0.23854779515E+03  0.23854779515E+03  0.00000000000E+00 0.  1.
         24    2    1    2    0    0  0.12589009826E+02 -0.37096132665E+02 -0.18881937230E+03  0.20771887997E+03  0.77199556431E+02 0.  0.
         23    2    1    2    0    0 -0.32865503346E+02 -0.64877796415E+01  0.51900823032E+02  0.11112849675E+03  0.92377566350E+02 0.  0.
        -11    1    3    3    0    0  0.30193065884E+02 -0.52325026032E+02 -0.10955382047E+03  0.12510623149E+03  0.00000000000E+00 0.  1.
         12    1    3    3    0    0 -0.17604056058E+02  0.15228893367E+02 -0.79265551831E+02  0.82612648486E+02  0.00000000000E+00 0. -1.
        -11    1    4    4    0    0 -0.44976393122E+02 -0.23585942451E+02  0.67881769557E+02  0.84776808490E+02  0.00000000000E+00 0. -1.
         11    1    4    4    0    0  0.12110889776E+02  0.17098162809E+02 -0.15980946524E+02  0.26351688265E+02  0.00000000000E+00 0.  1.
         -2    1    1    2    0  502  0.20276493521E+02  0.43583912307E+02  0.43501364963E+02  0.64831029261E+02  0.00000000000E+00 0.  1.
<scales pt_clust_5="13000.00000" pt_clust_6="13000.00000" pt_clust_7="13000.00000" pt_clust_8="13000.00000" pt_clust_9="48.06967"></scales>
<clustering>
<clus scale="   48.070">  1  9  2 -1</clus>
<clus scale="   77.200">  5  6 -1 -1</clus>
<clus scale="   85.067">  2  5  1 -1</clus>
<clus scale="   92.378">  7  8 -1 -1</clus>
<clus scale="   48.070">  1  5  2 -1</clus>
</clustering>
</event>
<event>
 9    2  0.1488992E-004  0.1656956E+03  0.7546771E-02  0.1206357E+00
          2   -1    0    0  502    0 -0.00000000000E+00  0.00000000000E+00  0.51508167802E+03  0.51508167802E+03  0.00000000000E+00 0. -1.
         21   -1    0    0  501  502  0.00000000000E+00 -0.00000000000E+00 -0.26271043022E+03  0.26271043022E+03  0.00000000000E+00 0. -1.
         23    2    1    2    0    0 -0.32219235531E+02  0.99242912706E+01 -0.37439088137E+02  0.10491417583E+03  0.92025693549E+02 0.  0.
         24    2    1    2    0    0 -0.11305463970E+03 -0.19019743288E+02  0.44095393684E+03  0.46304081900E+03  0.82603410612E+02 0.  0.
        -13    1    4    4    0    0 -0.39602809999E+02  0.27062538530E+02  0.95479896636E+02  0.10685117787E+03  0.00000000000E+00 0.  1.
         14    1    4    4    0    0 -0.73451829703E+02 -0.46082281818E+02  0.34547404021E+03  0.35618964112E+03  0.00000000000E+00 0. -1.
        -11    1    3    3    0    0  0.27718495199E+02  0.64640005325E+01  0.80626364016E+01  0.29582163287E+02  0.00000000000E+00 0.  1.
         11    1    3    3    0    0 -0.59937730730E+02  0.34602907381E+01 -0.45501724539E+02  0.75332012539E+02  0.00000000000E+00 0. -1.
          1    1    1    2  501    0  0.14527387523E+03  0.90954520175E+01 -0.15114360090E+03  0.20983711342E+03  0.00000000000E+00 0. -1.
<scales pt_clust_5="13000.00000" pt_clust_6="13000.00000" pt_clust_7="13000.00000" pt_clust_8="13000.00000" pt_clust_9="143.63746"></scales>
<clustering>
<clus scale="   82.603">  5  6 -1 -1</clus>
<clus scale="   92.026">  7  8 -1 -1</clus>
<clus scale="   98.007">  1  7  2 -1</clus>
<clus scale="  143.637">  2  9  1 -1</clus>
<clus scale="  143.637">  2  5  1 -1</clus>
</clustering>
</event>
<event>
 9    2  0.1488992E-004  0.1326693E+03  0.7546771E-02  0.1226441E+00
         21   -1    0    0  501  502  0.00000000000E+00  0.00000000000E+00  0.52329142578E+02  0.52329142578E+02  0.00000000000E+00 0. -1.
          2   -1    0    0  502    0 -0.00000000000E+00 -0.00000000000E+00 -0.88409839342E+03  0.88409839342E+03  0.00000000000E+00 0. -1.
         24    2    1    2    0    0 -0.85019275635E+02  0.31335313707E+02 -0.57380568034E+03  0.58633729177E+03  0.79550498498E+02 0.  0.
         23    2    1    2    0    0  0.11923414342E+03 -0.13120632704E+01 -0.26445776580E+03  0.30410951656E+03  0.91247935332E+02 0.  0.
        -13    1    3    3    0    0 -0.24141957911E+02  0.50938813850E+02 -0.25007569179E+03  0.25635024578E+03  0.00000000000E+00 0.  1.
         14    1    3    3    0    0 -0.60877317724E+02 -0.19603500143E+02 -0.32372998855E+03  0.32998704599E+03  0.00000000000E+00 0. -1.
        -11    1    4    4    0    0  0.11178916966E+03  0.28543968871E+02 -0.17593874751E+03  0.21039491317E+03  0.00000000000E+00 0. -1.
         11    1    4    4    0    0  0.74449737615E+01 -0.29856032141E+02 -0.88519018290E+02  0.93714603390E+02  0.00000000000E+00 0.  1.
          1    1    1    2  501    0 -0.34214867784E+02 -0.30023250437E+02  0.64941953038E+01  0.45980727668E+02  0.00000000000E+00 0. -1.
<scales pt_clust_5="13000.00000" pt_clust_6="13000.00000" pt_clust_7="13000.00000" pt_clust_8="13000.00000" pt_clust_9="45.51981"></scales>
<clustering>
<clus scale="   45.520">  1  9  2 -1</clus>
<clus scale="   79.550">  5  6 -1 -1</clus>
<clus scale="   91.248">  7  8 -1 -1</clus>
<clus scale="  124.913">  2  5  1 -1</clus>
<clus scale="   45.520">  1  5  2 -1</clus>
</clustering>
</event>
<event>
 9    2  0.1488992E-004  0.1092288E+03  0.7546771E-02  0.1266480E+00
          2   -1    0    0  502    0 -0.00000000000E+00  0.00000000000E+00  0.56001421425E+03  0.56001421425E+03  0.00000000000E+00 0. -1.
         21   -1    0    0  501  502  0.00000000000E+00 -0.00000000000E+00 -0.15440117661E+03  0.15440117661E+03  0.00000000000E+00 0. -1.
         24    2    1    2    0    0 -0.46923151716E+02  0.38467771289E+02  0.47556757736E+03  0.48613902963E+03  0.80530018628E+02 0.  0.
         23    2    1    2    0    0  0.50279653896E+02 -0.18642881332E+02  0.42258459479E+02  0.11427614386E+03  0.91638742019E+02 0.  0.
        -11    1    3    3    0    0 -0.30213024253E+02 -0.21766658976E+02  0.14442741899E+03  0.14915057370E+03  0.00000000000E+00 0.  1.
         12    1    3    3    0    0 -0.16710127463E+02  0.60234430265E+02  0.33114015837E+03  0.33698845593E+03  0.00000000000E+00 0. -1.
        -13    1    4    4    0    0  0.33090713029E+02  0.88065690695E+01  0.65840806196E+02  0.74212955123E+02  0.00000000000E+00 0. -1.
         13    1    4    4    0    0  0.17188940867E+02 -0.27449450401E+02 -0.23582346717E+02  0.40063188742E+02  0.00000000000E+00 0.  1.
          1    1    1    2  501    0 -0.33565021799E+01 -0.19824889957E+02 -0.11221299920E+03  0.11400021736E+03  0.00000000000E+00 0. -1.
<scales pt_clust_5="13000.00000" pt_clust_6="13000.00000" pt_clust_7="13000.00000" pt_clust_8="13000.00000" pt_clust_9="20.10702"></scales>
<clustering>
<clus scale="   20.107">  2  9  1 -1</clus>
<clus scale="   80.530">  5  6 -1 -1</clus>
<clus scale="   91.639">  7  8 -1 -1</clus>
<clus scale="  100.092">  1  5  2 -1</clus>
<clus scale="   20.107">  2  5  1 -1</clus>
</clustering>
</event>
<event>
 9    2  0.1488992E-004  0.2035540E+03  0.7546771E-02  0.1147258E+00
         21   -1    0    0  501  502  0.00000000000E+00  0.00000000000E+00  0.39988068838E+03  0.39988068838E+03  0.00000000000E+00 0.  1.
         -3   -1    0    0    0  501 -0.00000000000E+00 -0.00000000000E+00 -0.23144002841E+03  0.23144002841E+03  0.00000000000E+00 0.  1.
         23    2    1    2    0    0  0.15195706751E+03  0.92257293812E+02 -0.56627376644E+02  0.20550240235E+03  0.86152300941E+02 0.  0.
         24    2    1    2    0    0 -0.22049720060E+03 -0.33368625016E+02  0.23632753012E+03  0.33475569121E+03  0.80487208272E+02 0.  0.
        -13    1    4    4    0    0 -0.21612641660E+03 -0.13303782905E+02  0.21697131413E+03  0.30653575607E+03  0.00000000000E+00 0.  1.
         14    1    4    4    0    0 -0.43707839927E+01 -0.20064842111E+02  0.19356215994E+02  0.28219935139E+02  0.00000000000E+00 0. -1.
        -13    1    3    3    0    0  0.72734890925E+02  0.87806602734E+02 -0.12478478172E+02  0.11469994010E+03  0.00000000000E+00 0.  1.
         13    1    3    3    0    0  0.79222176582E+02  0.44506910780E+01 -0.44148898473E+02  0.90802462245E+02  0.00000000000E+00 0. -1.
         -4    1    1    2    0  502  0.68540133088E+02 -0.58888668796E+02 -0.11259493511E+02  0.91062623235E+02  0.00000000000E+00 0.  1.
<scales pt_clust_5="13000.00000" pt_clust_6="13000.00000" pt_clust_7="13000.00000" pt_clust_8="13000.00000" pt_clust_9="90.36389"></scales>
<clustering>
<clus scale="   80.487">  5  6 -1 -1</clus>
<clus scale="   86.152">  7  8 -1 -1</clus>
<clus scale="   90.364">  1  9  2 -1</clus>
<clus scale="  201.222">  1  5  2 -1</clus>
<clus scale="   90.364">  1  5  2 -1</clus>
</clustering>
</event>
<event>
 9    2  0.1488992E-004  0.1299451E+03  0.7546771E-02  0.1228137E+00
          2   -1    0    0  502    0 -0.00000000000E+00  0.00000000000E+00  0.41949986129E+03  0.41949986129E+03  0.00000000000E+00 0. -1.
         21   -1    0    0  501  502  0.00000000000E+00 -0.00000000000E+00 -0.11485212996E+03  0.11485212996E+03  0.00000000000E+00 0. -1.
         23    2    1    2    0    0  0.11184209095E+03 -0.20057189894E+02  0.18998257120E+03  0.23553924271E+03  0.80463739182E+02 0.  0.
         24    2    1    2    0    0 -0.81068216820E+02 -0.69972431815E+02  0.14548336833E+03  0.19880211876E+03  0.82998041971E+02 0.  0.
        -13    1    4    4    0    0 -0.18642002821E+02  0.82016775578E+01  0.71587941836E+02  0.74428658460E+02  0.00000000000E+00 0.  1.
         14    1    4    4    0    0 -0.62426213999E+02 -0.78174109373E+02  0.73895426495E+02  0.12437346030E+03  0.00000000000E+00 0. -1.
        -11    1    3    3    0    0  0.85489403502E+02  0.14009769256E+02  0.82000252341E+02  0.11928433732E+03  0.00000000000E+00 0.  1.
         11    1    3    3    0    0  0.26352687443E+02 -0.34066959150E+02  0.10798231886E+03  0.11625490539E+03  0.00000000000E+00 0. -1.
          1    1    1    2  501    0 -0.30773874126E+02  0.90029621709E+02 -0.30818208195E+02  0.10001062979E+03  0.00000000000E+00 0. -1.
<scales pt_clust_5="13000.00000" pt_clust_6="13000.00000" pt_clust_7="13000.00000" pt_clust_8="13000.00000" pt_clust_9="95.14391"></scales>
<clustering>
<clus scale="   80.464">  7  8 -1 -1</clus>
<clus scale="   82.998">  5  6 -1 -1</clus>
<clus scale="   95.144">  2  9  1 -1</clus>
<clus scale="  128.341">  1  7  2 -1</clus>
<clus scale="   95.144">  2  5  1 -1</clus>
</clustering>
</event>
<event>
 9    2  0.1488992E-004  0.1646627E+03  0.7546771E-02  0.1185088E+00
          2   -1    0    0  502    0 -0.00000000000E+00  0.00000000000E+00  0.34476052402E+03  0.34476052402E+03  0.00000000000E+00 0. -1.
         21   -1    0    0  501  502  0.00000000000E+00 -0.00000000000E+00 -0.24379800922E+03  0.24379800922E+03  0.00000000000E+00 0.  1.
         23    2    1    2    0    0  0.13316028998E+03  0.29986452916E+02  0.12101350526E+03  0.20368019485E+03  0.90611826686E+02 0.  0.
         24    2    1    2    0    0 -0.12748297761E+03 -0.75548490388E+02 -0.16323511306E+03  0.23451270369E+03  0.79943868281E+02 0.  0.
        -11    1    4    4    0    0 -0.11393254862E+03 -0.74231546302E+02 -0.17128270574E+03  0.21869776722E+03  0.00000000000E+00 0.  1.
         12    1    4    4    0    0 -0.13550428989E+02 -0.13169440859E+01  0.80475926816E+01  0.15814936467E+02  0.00000000000E+00 0. -1.
        -13    1    3    3    0    0  0.57959488304E+02  0.54936681918E+02  0.85059194776E+02  0.11667222429E+03  0.00000000000E+00 0.  1.
         13    1    3    3    0    0  0.75200801672E+02 -0.24950229002E+02  0.35954310483E+02  0.87007970563E+02  0.00000000000E+00 0. -1.
          1    1    1    2  501    0 -0.56773123639E+01  0.45562037472E+02  0.14318412259E+03  0.15036563469E+03  0.00000000000E+00 0. -1.
<scales pt_clust_5="13000.00000" pt_clust_6="13000.00000" pt_clust_7="13000.00000" pt_clust_8="13000.00000" pt_clust_9="45.91441"></scales>
<clustering>
<clus scale="   45.914">  2  9  1 -1</clus>
<clus scale="   79.944">  5  6 -1 -1</clus>
<clus scale="   90.612">  7  8 -1 -1</clus>
<clus scale="  159.042">  2  5  1 -1</clus>
<clus scale="   45.914">  2  5  1 -1</clus>
</clustering>
</event>
<event>
 9    2  0.1488992E-004  0.9979129E+02  0.7546771E-02  0.1285804E+00
         21   -1    0    0  501  502  0.00000000000E+00  0.00000000000E+00  0.22884778447E+03  0.22884778447E+03  0.00000000000E+00 0. -1.
          2   -1    0    0  502    0 -0.00000000000E+00 -0.00000000000E+00 -0.22900305508E+03  0.22900305508E+03  0.00000000000E+00 0. -1.
         23    2    1    2    0    0 -0.34418716232E+02 -0.24613948118E+02 -0.19147106462E+03  0.21661754121E+03  0.92040730674E+02 0.  0.
         24    2    1    2    0    0 -0.16016575808E+02  0.31971403835E+02  0.85492093526E+02  0.12377476769E+03  0.82052383862E+02 0.  0.
        -13    1    4    4    0    0  0.70649291496E+01 -0.25947064056E+02  0.30239805348E+02  0.40467384206E+02  0.00000000000E+00 0.  1.
         14    1    4    4    0    0 -0.23081504958E+02  0.57918467891E+02  0.55252288178E+02  0.83307383484E+02  0.00000000000E+00 0. -1.
        -13    1    3    3    0    0 -0.46838232843E+02  0.57023547559E+01 -0.17233289841E+03  0.17867558529E+03  0.00000000000E+00 0. -1.
         13    1    3    3    0    0  0.12419516610E+02 -0.30316302874E+02 -0.19138166212E+02  0.37941955916E+02  0.00000000000E+00 0.  1.
          1    1    1    2  501    0  0.50435292041E+02 -0.73574557171E+01  0.10582370048E+03  0.11745853065E+03  0.00000000000E+00 0. -1.
<scales pt_clust_5="13000.00000" pt_clust_6="13000.00000" pt_clust_7="13000.00000" pt_clust_8="13000.00000" pt_clust_9="50.96912"></scales>
<clustering>
<clus scale="   50.969">  1  9  2 -1</clus>
<clus scale="   82.052">  5  6 -1 -1</clus>
<clus scale="   90.661">  1  5  2 -1</clus>
<clus scale="   92.041">  7  8 -1 -1</clus>
<clus scale="   50.969">  1  5  2 -1</clus>
</clustering>
</event>
<event>
 9    2  0.1488992E-004  0.1649036E+03  0.7546771E-02  0.1199540E+00
         21   -1    0    0  501  502  0.00000000000E+00  0.00000000000E+00  0.82024887213E+02  0.82024887213E+02  0.00000000000E+00 0. -1.
          2   -1    0    0  502    0 -0.00000000000E+00 -0.00000000000E+00 -0.68457275477E+03  0.68457275477E+03  0.00000000000E+00 0. -1.
         24    2    1    2    0    0 -0.82670744071E+02 -0.50977449362E+01 -0.21412631276E+03  0.24315149231E+03  0.80075785798E+02 0.  0.
         23    2    1    2    0    0 -0.98677880889E+02 -0.22157448740E+02 -0.89718605402E+02  0.17294134038E+03  0.10784712488E+03 0.  0.
        -11    1    3    3    0    0 -0.16561712874E+02  0.26363815738E+02 -0.23677495873E+02  0.39114766066E+02  0.00000000000E+00 0.  1.
         12    1    3    3    0    0 -0.66109031197E+02 -0.31461560674E+02 -0.19044881688E+03  0.20403672625E+03  0.00000000000E+00 0. -1.
        -11    1    4    4    0    0 -0.52532934794E+02 -0.12884940719E+02  0.16674669688E+02  0.56601904073E+02  0.00000000000E+00 0. -1.
         11    1    4    4    0    0 -0.46144946095E+02 -0.92725080216E+01 -0.10639327509E+03  0.11633943630E+03  0.00000000000E+00 0.  1.
          1    1    1    2  501    0  0.18134862496E+03  0.27255193677E+02 -0.29870294940E+03  0.35050480929E+03  0.00000000000E+00 0. -1.
<scales pt_clust_5="13000.00000" pt_clust_6="13000.00000" pt_clust_7="13000.00000" pt_clust_8="13000.00000" pt_clust_9="124.74858"></scales>
<clustering>
<clus scale="   80.076">  5  6 -1 -1</clus>
<clus scale="  107.847">  7  8 -1 -1</clus>
<clus scale="  115.207">  2  5  1 -1</clus>
<clus scale="  124.749">  1  9  2 -1</clus>
<clus scale="  124.749">  1  5  2 -1</clus>
</clustering>
</event>
<event>
 9    2  0.1488992E-004  0.1071605E+03  0.7546771E-02  0.1272245E+00
         -1   -1    0    0    0  501 -0.00000000000E+00  0.00000000000E+00  0.27564541134E+03  0.27564541134E+03  0.00000000000E+00 0.  1.
         21   -1    0    0  501  502  0.00000000000E+00 -0.00000000000E+00 -0.11367828801E+03  0.11367828801E+03  0.00000000000E+00 0.  1.
         24    2    1    2    0    0 -0.45674326315E+02 -0.22870845008E+02  0.95865054218E+02  0.13431449552E+03  0.79000350946E+02 0.  0.
         23    2    1    2    0    0  0.74841066058E+02 -0.36968725369E+02 -0.38433737170E+02  0.13107693328E+03  0.93467312263E+02 0.  0.
        -11    1    3    3    0    0 -0.43028146266E+01  0.25152333089E+02  0.49801452258E+02  0.55958365956E+02  0.00000000000E+00 0.  1.
         12    1    3    3    0    0 -0.41371511688E+02 -0.48023178097E+02  0.46063601960E+02  0.78356129559E+02  0.00000000000E+00 0. -1.
        -13    1    4    4    0    0  0.28145641135E+01 -0.43440400768E+02 -0.39457915670E+02  0.58753019488E+02  0.00000000000E+00 0.  1.
         13    1    4    4    0    0  0.72026501945E+02  0.64716753990E+01  0.10241784999E+01  0.72323913794E+02  0.00000000000E+00 0. -1.
         -2    1    1    2    0  502 -0.29166739744E+02  0.59839570377E+02  0.10453580628E+03  0.12393227055E+03  0.00000000000E+00 0.  1.
<scales pt_clust_5="13000.00000" pt_clust_6="13000.00000" pt_clust_7="13000.00000" pt_clust_8="13000.00000" pt_clust_9="66.56934"></scales>
<clustering>
<clus scale="   66.569">  2  9  1 -1</clus>
<clus scale="   79.000">  5  6 -1 -1</clus>
<clus scale="   93.467">  7  8 -1 -1</clus>
<clus scale="   94.807">  1  5  2 -1</clus>
<clus scale="   66.569">  2  5  1 -1</clus>
</clustering>
</event>
<event>
 9    2  0.1488992E-004  0.1632328E+03  0.7546771E-02  0.1210727E+00
         21   -1    0    0  501  502  0.00000000000E+00  0.00000000000E+00  0.55808960306E+03  0.55808960306E+03  0.00000000000E+00 0.  1.
          2   -1    0    0  502    0 -0.00000000000E+00 -0.00000000000E+00 -0.10891929551E+03  0.10891929551E+03  0.00000000000E+00 0. -1.
         24    2    1    2    0    0 -0.21880730349E+02  0.42923794153E+02  0.90597789622E+02  0.13008825027E+03  0.79961083719E+02 0.  0.
         23    2    1    2    0    0  0.12671119554E+02  0.12638532464E+03  0.32960436595E+03  0.36490451980E+03  0.91555791531E+02 0.  0.
        -11    1    3    3    0    0 -0.37899089804E+02  0.57105386871E+02  0.52273307547E+02  0.86196664086E+02  0.00000000000E+00 0.  1.
         12    1    3    3    0    0  0.16018359455E+02 -0.14181592718E+02  0.38324482076E+02  0.43891586187E+02  0.00000000000E+00 0. -1.
        -11    1    4    4    0    0 -0.12533624744E+02  0.84668170417E+02  0.10697163031E+03  0.13699898000E+03  0.00000000000E+00 0.  1.
         11    1    4    4    0    0  0.25204744299E+02  0.41717154220E+02  0.22263273563E+03  0.22790553979E+03  0.00000000000E+00 0. -1.
          1    1    1    2  501    0  0.92096107947E+01 -0.16930911879E+03  0.28968151979E+02  0.17201612850E+03  0.00000000000E+00 0. -1.
<scales pt_clust_5="13000.00000" pt_clust_6="13000.00000" pt_clust_7="13000.00000" pt_clust_8="13000.00000" pt_clust_9="135.13884"></scales>
<clustering>
<clus scale="   79.961">  5  6 -1 -1</clus>
<clus scale="   91.556">  7  8 -1 -1</clus>
<clus scale="   93.354">  2  5  1 -1</clus>
<clus scale="  135.139">  1  9  2 -1</clus>
<clus scale="  135.139">  1  5  2 -1</clus>
</clustering>
</event>
<event>
 9    2  0.1488992E-004  0.2181800E+03  0.7546771E-02  0.1153217E+00
         21   -1    0    0  501  502  0.00000000000E+00  0.00000000000E+00  0.92781344108E+02  0.92781344108E+02  0.00000000000E+00 0. -1.
          4   -1    0    0  502    0 -0.00000000000E+00 -0.00000000000E+00 -0.90491076755E+03  0.90491076755E+03  0.00000000000E+00 0. -1.
         24    2    1    2    0    0  0.96527091128E+02 -0.65657171138E+02 -0.18712395093E+03  0.23484179039E+03  0.80665668396E+02 0.  0.
         23    2    1    2    0    0 -0.13807349207E+03  0.22050115786E+03 -0.37994113101E+03  0.47000344126E+03  0.94143092881E+02 0.  0.
        -13    1    3    3    0    0  0.36102124508E+02 -0.53283732100E+02 -0.14906323383E+03  0.16236491980E+03  0.00000000000E+00 0.  1.
         14    1    3    3    0    0  0.60424966621E+02 -0.12373439038E+02 -0.38060717098E+02  0.72476870591E+02  0.00000000000E+00 0. -1.
        -11    1    4    4    0    0 -0.72767677201E+02  0.57374170723E+02 -0.80182326413E+02  0.12254034348E+03  0.00000000000E+00 0.  1.
         11    1    4    4    0    0 -0.65305814868E+02  0.16312698713E+03 -0.29975880459E+03  0.34746309778E+03  0.00000000000E+00 0. -1.
          3    1    1    2  501    0  0.41546400941E+02 -0.15484398672E+03 -0.24506434151E+03  0.29284688001E+03  0.00000000000E+00 0. -1.
<scales pt_clust_5="13000.00000" pt_clust_6="13000.00000" pt_clust_7="13000.00000" pt_clust_8="13000.00000" pt_clust_9="196.82373"></scales>
<clustering>
<clus scale="   80.666">  5  6 -1 -1</clus>
<clus scale="   94.143">  7  8 -1 -1</clus>
<clus scale="  141.899">  2  5  1 -1</clus>
<clus scale="  196.824">  1  9  2 -1</clus>
<clus scale="  196.824">  1  5  2 -1</clus>
</clustering>
</event>
<event>
 9    2  0.1488992E-004  0.1187171E+03  0.7546771E-02  0.1263677E+00
         21   -1    0    0  501  502  0.00000000000E+00  0.00000000000E+00  0.19370385830E+03  0.19370385830E+03  0.00000000000E+00 0. -1.
          4   -1    0    0  502    0 -0.00000000000E+00 -0.00000000000E+00 -0.18592945992E+03  0.18592945992E+03  0.00000000000E+00 0. -1.
         24    2    1    2    0    0 -0.33005668457E+02 -0.17548289502E+02 -0.11358662452E+03  0.14029027315E+03  0.73362952894E+02 0.  0.
         23    2    1    2    0    0 -0.35435105540E+02  0.66128595794E+02  0.40051379796E+02  0.12248653576E+03  0.88148740956E+02 0.  0.
        -11    1    3    3    0    0 -0.26773889850E+02  0.26040004481E+02 -0.41607957148E+02  0.55911940667E+02  0.00000000000E+00 0.  1.
         12    1    3    3    0    0 -0.62317786072E+01 -0.43588293982E+02 -0.71978667372E+02  0.84378332488E+02  0.00000000000E+00 0. -1.
        -11    1    4    4    0    0  0.24549551700E+02  0.46023799080E+01 -0.49875762683E+01  0.25470341704E+02  0.00000000000E+00 0.  1.
         11    1    4    4    0    0 -0.59984657239E+02  0.61526215886E+02  0.45038956065E+02  0.97016194054E+02  0.00000000000E+00 0. -1.
          3    1    1    2  501    0  0.68440773997E+02 -0.48580306292E+02  0.81309643107E+02  0.11685650931E+03  0.00000000000E+00 0. -1.
<scales pt_clust_5="13000.00000" pt_clust_6="13000.00000" pt_clust_7="13000.00000" pt_clust_8="13000.00000" pt_clust_9="79.52068"></scales>
<clustering>
<clus scale="   73.363">  5  6 -1 -1</clus>
<clus scale="   82.337">  2  5  1 -1</clus>
<clus scale="   79.521">  1  9  2 -1</clus>
<clus scale="   88.149">  7  8 -1 -1</clus>
<clus scale="   79.521">  1  5  2 -1</clus>
</clustering>
</event>
<event>
 9    2  0.1488992E-004  0.9941670E+02  0.7546771E-02  0.1285066E+00
          2   -1    0    0  502    0 -0.00000000000E+00  0.00000000000E+00  0.33797823675E+03  0.33797823675E+03  0.00000000000E+00 0. -1.
         21   -1    0    0  501  502  0.00000000000E+00 -0.00000000000E+00 -0.76486223951E+02  0.76486223951E+02  0.00000000000E+00 0.  1.
         23    2    1    2    0    0 -0.26610697573E+02 -0.38857276827E+02  0.15634965769E+03  0.18608389495E+03  0.89241152573E+02 0.  0.
         24    2    1    2    0    0  0.30540384412E+02  0.15239172857E+02 -0.27976271940E+02  0.93125894329E+02  0.82004956762E+02 0.  0.
        -11    1    4    4    0    0  0.45632323363E+02  0.38801234495E+02 -0.25281629653E+02  0.65015425337E+02  0.00000000000E+00 0.  1.
         12    1    4    4    0    0 -0.15091938951E+02 -0.23562061638E+02 -0.26946422867E+01  0.28110468992E+02  0.00000000000E+00 0. -1.
        -13    1    3    3    0    0  0.70267638865E+00 -0.63607035689E+02  0.10714340301E+03  0.12460360168E+03  0.00000000000E+00 0.  1.
         13    1    3    3    0    0 -0.27313373962E+02  0.24749758862E+02  0.49206254680E+02  0.61480293270E+02  0.00000000000E+00 0. -1.
          1    1    1    2  501    0 -0.39296868393E+01  0.23618103970E+02  0.13311862705E+03  0.13525467142E+03  0.00000000000E+00 0. -1.
<scales pt_clust_5="13000.00000" pt_clust_6="13000.00000" pt_clust_7="13000.00000" pt_clust_8="13000.00000" pt_clust_9="23.94280"></scales>
<clustering>
<clus scale="   23.943">  2  9  1 -1</clus>
<clus scale="   82.005">  5  6 -1 -1</clus>
<clus scale="   89.241">  7  8 -1 -1</clus>
<clus scale="   92.976">  2  5  1 -1</clus>
<clus scale="   23.943">  2  5  1 -1</clus>
</clustering>
</event>
<event>
 9    2  0.1488992E-004  0.9750492E+02  0.7546771E-02  0.1291571E+00
         21   -1    0    0  501  502  0.00000000000E+00  0.00000000000E+00  0.39102013632E+03  0.39102013632E+03  0.00000000000E+00 0. -1.
          2   -1    0    0  502    0 -0.00000000000E+00 -0.00000000000E+00 -0.79987403145E+02  0.79987403145E+02  0.00000000000E+00 0. -1.
         23    2    1    2    0    0  0.30777607740E+02 -0.22478054942E+02 -0.16993094211E+02  0.10004203431E+03  0.90923700348E+02 0.  0.
         24    2    1    2    0    0 -0.14361135135E+02 -0.10368658318E+00  0.33289500190E+03  0.34262570129E+03  0.79793708669E+02 0.  0.
        -11    1    4    4    0    0 -0.33913971225E+02 -0.29603338255E+02  0.16426003165E+03  0.17031697825E+03  0.00000000000E+00 0.  1.
         12    1    4    4    0    0  0.19552836090E+02  0.29499651672E+02  0.16863497025E+03  0.17230872305E+03  0.00000000000E+00 0. -1.
        -13    1    3    3    0    0  0.55534394454E+02 -0.21792103968E+02 -0.35232534512E+02  0.69284170276E+02  0.00000000000E+00 0. -1.
         13    1    3    3    0    0 -0.24756786714E+02 -0.68595097449E+00  0.18239440301E+02  0.30757864029E+02  0.00000000000E+00 0.  1.
          1    1    1    2  501    0 -0.16416472604E+02  0.22581741525E+02 -0.48691745101E+01  0.28339803872E+02  0.00000000000E+00 0. -1.
<scales pt_clust_5="13000.00000" pt_clust_6="13000.00000" pt_clust_7="13000.00000" pt_clust_8="13000.00000" pt_clust_9="27.91839"></scales>
<clustering>
<clus scale="   27.918">  1  9  2 -1</clus>
<clus scale="   79.794">  5  6 -1 -1</clus>
<clus scale="   87.219">  1  5  2 -1</clus>
<clus scale="   90.924">  7  8 -1 -1</clus>
<clus scale="   27.918">  1  5  2 -1</clus>
</clustering>
</event>
<event>
 9    2  0.1488992E-004  0.3665023E+03  0.7546771E-02  0.1109178E+00
          2   -1    0    0  502    0 -0.00000000000E+00  0.00000000000E+00  0.19154042067E+03  0.19154042067E+03  0.00000000000E+00 0. -1.
         21   -1    0    0  501  502  0.00000000000E+00 -0.00000000000E+00 -0.91534493298E+03  0.91534493298E+03  0.00000000000E+00 0.  1.
         24    2    1    2    0    0 -0.48295887481E+02 -0.44143232170E+02 -0.81144531198E+01  0.88493550180E+02  0.59026658216E+02 0.  0.
         23    2    1    2    0    0 -0.19903556345E+03 -0.25372127068E+03 -0.29207954169E+03  0.44450855819E+03  0.91037140340E+02 0.  0.
        -11    1    3    3    0    0 -0.50279379065E+02 -0.26611297147E+02  0.15551129328E+02  0.58974695577E+02  0.00000000000E+00 0.  1.
         12    1    3    3    0    0  0.19834915843E+01 -0.17531935022E+02 -0.23665582448E+02  0.29518854603E+02  0.00000000000E+00 0. -1.
        -13    1    4    4    0    0 -0.17880429058E+03 -0.18634336011E+03 -0.26235408759E+03  0.36813650928E+03  0.00000000000E+00 0.  1.
         13    1    4    4    0    0 -0.20231272867E+02 -0.67377910565E+02 -0.29725454099E+02  0.76372048914E+02  0.00000000000E+00 0. -1.
          1    1    1    2  501    0  0.24733145093E+03  0.29786450285E+03 -0.42361051749E+03  0.57388324527E+03  0.00000000000E+00 0. -1.
<scales pt_clust_5="13000.00000" pt_clust_6="13000.00000" pt_clust_7="13000.00000" pt_clust_8="13000.00000" pt_clust_9="355.01589"></scales>
<clustering>
<clus scale="   59.027">  5  6 -1 -1</clus>
<clus scale="   88.121">  1  5  2 -1</clus>
<clus scale="   91.037">  7  8 -1 -1</clus>
<clus scale="  355.016">  2  9  1 -1</clus>
<clus scale="  355.016">  2  5  1 -1</clus>
</clustering>
</event>
<event>
 9    2  0.1488992E-004  0.1253816E+03  0.7546771E-02  0.1243428E+00
         21   -1    0    0  501  502  0.00000000000E+00  0.00000000000E+00  0.32897241903E+03  0.32897241903E+03  0.00000000000E+00 0. -1.
          2   -1    0    0  502    0 -0.00000000000E+00 -0.00000000000E+00 -0.11038151472E+03  0.11038151472E+03  0.00000000000E+00 0. -1.
         23    2    1    2    0    0 -0.19253924005E+02  0.45738553285E+02 -0.25491192313E+02  0.10756405363E+03  0.91964644847E+02 0.  0.
         24    2    1    2    0    0  0.54960395340E+02  0.57240780140E+02  0.12029871123E+03  0.16685952602E+03  0.84102137493E+02 0.  0.
        -13    1    4    4    0    0  0.68304092148E+01  0.50927069041E+02  0.10339388688E+03  0.11545785680E+03  0.00000000000E+00 0.  1.
         14    1    4    4    0    0  0.48129986125E+02  0.63137110996E+01  0.16904824349E+02  0.51401669219E+02  0.00000000000E+00 0. -1.
        -11    1    3    3    0    0  0.11957086675E+02  0.54104006018E+02  0.13394119959E+02  0.57005419378E+02  0.00000000000E+00 0. -1.
         11    1    3    3    0    0 -0.31211010679E+02 -0.83654527334E+01 -0.38885312272E+02  0.50558634253E+02  0.00000000000E+00 0.  1.
          1    1    1    2  501    0 -0.35706471335E+02 -0.10297933342E+03  0.12378338539E+03  0.16493035411E+03  0.00000000000E+00 0. -1.
<scales pt_clust_5="13000.00000" pt_clust_6="13000.00000" pt_clust_7="13000.00000" pt_clust_8="13000.00000" pt_clust_9="92.99134"></scales>
<clustering>
<clus scale="   84.102">  5  6 -1 -1</clus>
<clus scale="   91.965">  7  8 -1 -1</clus>
<clus scale="  104.500">  2  7  1 -1</clus>
<clus scale="   92.991">  1  9  2 -1</clus>
<clus scale="   92.991">  1  5  2 -1</clus>
</clustering>
</event>
<event>
 9    2  0.1488992E-004  0.9749629E+02  0.7546771E-02  0.1291353E+00
         -1   -1    0    0    0  501 -0.00000000000E+00  0.00000000000E+00  0.11765782740E+03  0.11765782740E+03  0.00000000000E+00 0.  1.
         21   -1    0    0  501  502  0.00000000000E+00 -0.00000000000E+00 -0.23148356350E+03  0.23148356350E+03  0.00000000000E+00 0. -1.
         23    2    1    2    0    0  0.32709745620E+02  0.67888120931E+01 -0.14379705154E+02  0.98174192868E+02  0.91188709810E+02 0.  0.
         24    2    1    2    0    0 -0.20677352425E+02 -0.49661707137E+02 -0.15315464162E+03  0.18119988136E+03  0.80518412156E+02 0.  0.
        -11    1    4    4    0    0  0.21080490443E+02  0.96666223389E+00 -0.92577015552E+01  0.23044013350E+02  0.00000000000E+00 0.  1.
         12    1    4    4    0    0 -0.41757842868E+02 -0.50628369371E+02 -0.14389694006E+03  0.15815586801E+03  0.00000000000E+00 0. -1.
        -13    1    3    3    0    0  0.63006406084E+02 -0.55176325838E+01 -0.22219602039E+01  0.63286559269E+02  0.00000000000E+00 0. -1.
         13    1    3    3    0    0 -0.30296660464E+02  0.12306444677E+02 -0.12157744950E+02  0.34887633599E+02  0.00000000000E+00 0.  1.
         -2    1    1    2    0  502 -0.12032393194E+02  0.42872895044E+02  0.53708610673E+02  0.69767316674E+02  0.00000000000E+00 0.  1.
<scales pt_clust_5="13000.00000" pt_clust_6="13000.00000" pt_clust_7="13000.00000" pt_clust_8="13000.00000" pt_clust_9="44.52938"></scales>
<clustering>
<clus scale="   44.529">  2  9  1 -1</clus>
<clus scale="   80.518">  5  6 -1 -1</clus>
<clus scale="   87.598">  2  5  1 -1</clus>
<clus scale="   91.189">  7  8 -1 -1</clus>
<clus scale="   44.529">  2  5  1 -1</clus>
</clustering>
</event>
<event>
 9    2  0.1488992E-004  0.2065829E+03  0.7546771E-02  0.1157904E+00
         21   -1    0    0  501  502  0.00000000000E+00  0.00000000000E+00  0.85988899008E+03  0.85988899008E+03  0.00000000000E+00 0. -1.
          2   -1    0    0  502    0 -0.00000000000E+00 -0.00000000000E+00 -0.21878120010E+03  0.21878120010E+03  0.00000000000E+00 0. -1.
         24    2    1    2    0    0 -0.80321178803E+02 -0.96641579253E+02 -0.13351751027E+03  0.20063232449E+03  0.81457458094E+02 0.  0.
         23    2    1    2    0    0 -0.11768733786E+03  0.14194228393E+03  0.32508986786E+03  0.38474116846E+03  0.91347813707E+02 0.  0.
        -13    1    3    3    0    0 -0.52841620751E+02 -0.49447321517E+01 -0.37016649415E+02  0.64706410760E+02  0.00000000000E+00 0.  1.
         14    1    3    3    0    0 -0.27479558052E+02 -0.91696847101E+02 -0.96500860852E+02  0.13592591373E+03  0.00000000000E+00 0. -1.
        -13    1    4    4    0    0 -0.25126911910E+02 -0.88320352078E+00  0.96672415216E+02  0.99888425827E+02  0.00000000000E+00 0.  1.
         13    1    4    4    0    0 -0.92560425947E+02  0.14282548745E+03  0.22841745264E+03  0.28485274264E+03  0.00000000000E+00 0. -1.
          1    1    1    2  501    0  0.19800851666E+03 -0.45300704675E+02  0.44953543239E+03  0.49329669722E+03  0.00000000000E+00 0. -1.
<scales pt_clust_5="13000.00000" pt_clust_6="13000.00000" pt_clust_7="13000.00000" pt_clust_8="13000.00000" pt_clust_9="185.28912"></scales>
<clustering>
<clus scale="   81.457">  5  6 -1 -1</clus>
<clus scale="   91.348">  7  8 -1 -1</clus>
<clus scale="  149.754">  2  5  1 -1</clus>
<clus scale="  185.289">  1  9  2 -1</clus>
<clus scale="  185.289">  1  5  2 -1</clus>
</clustering>
</event>
<event>
 9    2  0.1488992E-004  0.1241481E+03  0.7546771E-02  0.1253850E+00
          2   -1    0    0  502    0 -0.00000000000E+00  0.00000000000E+00  0.45341227814E+03  0.45341227814E+03  0.00000000000E+00 0. -1.
         21   -1    0    0  501  502  0.00000000000E+00 -0.00000000000E+00 -0.76588826673E+02  0.76588826673E+02  0.00000000000E+00 0.  1.
         24    2    1    2    0    0  0.36097094152E+02  0.20230960725E+02 -0.78028266460E+01  0.87719242832E+02  0.76951214943E+02 0.  0.
         23    2    1    2    0    0 -0.53033581560E+02  0.67286258543E+02  0.17886219901E+03  0.21803876951E+03  0.90604731725E+02 0.  0.
        -13    1    3    3    0    0  0.69983024765E+01  0.22591066082E+02 -0.38609238949E+02  0.45276990144E+02  0.00000000000E+00 0.  1.
         14    1    3    3    0    0  0.29098791675E+02 -0.23601053576E+01  0.30806412303E+02  0.42442252688E+02  0.00000000000E+00 0. -1.
        -11    1    4    4    0    0 -0.57081573073E+02  0.87282342560E+02  0.14892520430E+03  0.18181097267E+03  0.00000000000E+00 0.  1.
         11    1    4    4    0    0  0.40479915125E+01 -0.19996084017E+02  0.29936994717E+02  0.36227796842E+02  0.00000000000E+00 0. -1.
          1    1    1    2  501    0  0.16936487408E+02 -0.87517219267E+02  0.20576407910E+03  0.22424309247E+03  0.00000000000E+00 0. -1.
<scales pt_clust_5="13000.00000" pt_clust_6="13000.00000" pt_clust_7="13000.00000" pt_clust_8="13000.00000" pt_clust_9="84.87368"></scales>
<clustering>
<clus scale="   76.951">  5  6 -1 -1</clus>
<clus scale="   87.372">  1  5  2 -1</clus>
<clus scale="   84.874">  2  9  1 -1</clus>
<clus scale="   90.605">  7  8 -1 -1</clus>
<clus scale="   84.874">  2  5  1 -1</clus>
</clustering>
</event>
<event>
 9    2  0.1488992E-004  0.9300354E+02  0.7546771E-02  0.1300655E+00
         21   -1    0    0  501  502  0.00000000000E+00  0.00000000000E+00  0.15467568108E+03  0.15467568108E+03  0.00000000000E+00 0.  1.
          4   -1    0    0  502    0 -0.00000000000E+00 -0.00000000000E+00 -0.12563795496E+03  0.12563795496E+03  0.00000000000E+00 0. -1.
         23    2    1    2    0    0 -0.45455706655E+01 -0.22373099872E+02 -0.27316917783E+02  0.96787404058E+02  0.90002054290E+02 0.  0.
         24    2    1    2    0    0 -0.42230273316E+02  0.22466244336E+02  0.86243114848E+02  0.12801669270E+03  0.81622733558E+02 0.  0.
        -11    1    4    4    0    0 -0.31802666529E+02 -0.25755133278E+02  0.58567077825E+02  0.71448156684E+02  0.00000000000E+00 0.  1.
         12    1    4    4    0    0 -0.10427606787E+02  0.48221377614E+02  0.27676037023E+02  0.56568536021E+02  0.00000000000E+00 0. -1.
        -13    1    3    3    0    0 -0.36800933166E+01  0.33945179853E+02 -0.21058571211E+02  0.40115854017E+02  0.00000000000E+00 0.  1.
         13    1    3    3    0    0 -0.86547734883E+00 -0.56318279725E+02 -0.62583465722E+01  0.56671550041E+02  0.00000000000E+00 0. -1.
          3    1    1    2  501    0  0.46775843982E+02 -0.93144463822E-01 -0.29888470945E+02  0.55509539284E+02  0.00000000000E+00 0. -1.
<scales pt_clust_5="13000.00000" pt_clust_6="13000.00000" pt_clust_7="13000.00000" pt_clust_8="13000.00000" pt_clust_9="46.77596"></scales>
<clustering>
<clus scale="   46.776">  1  9  2 -1</clus>
<clus scale="   81.623">  5  6 -1 -1</clus>
<clus scale="   84.921">  1  5  2 -1</clus>
<clus scale="   90.002">  7  8 -1 -1</clus>
<clus scale="   46.776">  1  5  2 -1</clus>
</clustering>
</event>
<event>
 9    2  0.1488992E-004  0.2023239E+03  0.7546771E-02  0.1162430E+00
          4   -1    0    0  502    0 -0.00000000000E+00  0.00000000000E+00  0.35785101661E+03  0.35785101661E+03  0.00000000000E+00 0. -1.
         21   -1    0    0  501  502  0.00000000000E+00 -0.00000000000E+00 -0.27329205676E+03  0.27329205676E+03  0.00000000000E+00 0. -1.
         24    2    1    2    0    0 -0.10794862364E+03 -0.26843582620E+02  0.27037037862E+02  0.14600212199E+03  0.90620830586E+02 0.  0.
         23    2    1    2    0    0  0.70139759465E+02  0.20059590296E+03  0.15823569684E+03  0.28078184716E+03  0.92960248471E+02 0.  0.
        -11    1    3    3    0    0 -0.52166921336E+02 -0.19807170823E+02  0.59098381002E+02  0.81279335226E+02  0.00000000000E+00 0.  1.
         12    1    3    3    0    0 -0.55781702306E+02 -0.70364117978E+01 -0.32061343139E+02  0.64722786768E+02  0.00000000000E+00 0. -1.
        -11    1    4    4    0    0  0.35699134088E+02  0.14046012363E+03  0.15382408471E+03  0.21134172220E+03  0.00000000000E+00 0. -1.
         11    1    4    4    0    0  0.34440625377E+02  0.60135779331E+02  0.44116121229E+01  0.69440124954E+02  0.00000000000E+00 0.  1.
          3    1    1    2  501    0  0.37808864177E+02 -0.17375232034E+03 -0.10071377485E+03  0.20435910423E+03  0.00000000000E+00 0. -1.
<scales pt_clust_5="13000.00000" pt_clust_6="13000.00000" pt_clust_7="13000.00000" pt_clust_8="13000.00000" pt_clust_9="179.70348"></scales>
<clustering>
<clus scale="   90.621">  5  6 -1 -1</clus>
<clus scale="   92.960">  7  8 -1 -1</clus>
<clus scale="  143.477">  1  5  2 -1</clus>
<clus scale="  179.703">  2  9  1 -1</clus>
<clus scale="  179.703">  2  5  1 -1</clus>
</clustering>
</event>
<event>
 9    2  0.1488992E-004  0.2126138E+03  0.7546771E-02  0.1140373E+00
          2   -1    0    0  502    0 -0.00000000000E+00  0.00000000000E+00  0.59598627343E+02  0.59598627343E+02  0.00000000000E+00 0. -1.
         21   -1    0    0  501  502  0.00000000000E+00 -0.00000000000E+00 -0.11118620078E+04  0.11118620078E+04  0.00000000000E+00 0.  1.
         24    2    1    2    0    0  0.40482184656E+02  0.21488915538E+03 -0.29881597564E+03  0.37914201105E+03  0.81495526722E+02 0.  0.
         23    2    1    2    0    0 -0.23740176294E+02 -0.14634111934E+03 -0.53043147513E+03  0.55840574932E+03  0.92087522940E+02 0.  0.
        -13    1    3    3    0    0 -0.10027188588E+02  0.15358128708E+03 -0.19936830090E+03  0.25186400230E+03  0.00000000000E+00 0.  1.
         14    1    3    3    0    0  0.50509373244E+02  0.61307868295E+02 -0.99447674741E+02  0.12727800875E+03  0.00000000000E+00 0. -1.
        -11    1    4    4    0    0 -0.56075448551E+02 -0.70715933651E+02 -0.31962577304E+03  0.33212322110E+03  0.00000000000E+00 0.  1.
         11    1    4    4    0    0  0.32335272256E+02 -0.75625185692E+02 -0.21080570209E+03  0.22628252821E+03  0.00000000000E+00 0. -1.
          1    1    1    2  501    0 -0.16742008362E+02 -0.68548036034E+02 -0.22301592964E+03  0.23391287473E+03  0.00000000000E+00 0. -1.
<scales pt_clust_5="13000.00000" pt_clust_6="13000.00000" pt_clust_7="13000.00000" pt_clust_8="13000.00000" pt_clust_9="70.56294"></scales>
<clustering>
<clus scale="   70.563">  2  9  1 -1</clus>
<clus scale="   81.496">  5  6 -1 -1</clus>
<clus scale="   92.088">  7  8 -1 -1</clus>
<clus scale="  208.245">  1  5  2 -1</clus>
<clus scale="   70.563">  2  5  1 -1</clus>
</clustering>
</event>
<event>
 9    2  0.1488992E-004  0.1606085E+03  0.7546771E-02  0.1217832E+00
         21   -1    0    0  501  502  0.00000000000E+00  0.00000000000E+00  0.18639531659E+03  0.18639531659E+03  0.00000000000E+00 0. -1.
          4   -1    0    0  502    0 -0.00000000000E+00 -0.00000000000E+00 -0.45725415126E+03  0.45725415126E+03  0.00000000000E+00 0. -1.
         24    2    1    2    0    0  0.34641780312E+02 -0.37076889956E+01  0.60212242165E+01  0.84517052588E+02  0.76766380247E+02 0.  0.
         23    2    1    2    0    0  0.12313024855E+01  0.13153683825E+03 -0.36585872584E+03  0.39930634529E+03  0.91046659425E+02 0.  0.
        -11    1    3    3    0    0  0.55586933886E+02  0.68381983285E+01 -0.89193164597E+01  0.56711748177E+02  0.00000000000E+00 0.  1.
         12    1    3    3    0    0 -0.20945153574E+02 -0.10545887324E+02  0.14940540676E+02  0.27805304411E+02  0.00000000000E+00 0. -1.
        -11    1    4    4    0    0 -0.19759298914E+02  0.13673962992E+03 -0.32272659574E+03  0.35105642264E+03  0.00000000000E+00 0. -1.
         11    1    4    4    0    0  0.20990601399E+02 -0.52027916634E+01 -0.43132130097E+02  0.48249922642E+02  0.00000000000E+00 0.  1.
          3    1    1    2  501    0 -0.35873082798E+02 -0.12782914926E+03  0.88978666951E+02  0.15982606997E+03  0.00000000000E+00 0. -1.
<scales pt_clust_5="13000.00000" pt_clust_6="13000.00000" pt_clust_7="13000.00000" pt_clust_8="13000.00000" pt_clust_9="132.30870"></scales>
<clustering>
<clus scale="   76.766">  5  6 -1 -1</clus>
<clus scale="   84.302">  2  5  1 -1</clus>
<clus scale="   91.047">  7  8 -1 -1</clus>
<clus scale="  132.309">  1  9  2 -1</clus>
<clus scale="  132.309">  1  5  2 -1</clus>
</clustering>
</event>
<event>
 9    2  0.1488992E-004  0.1457483E+03  0.7546771E-02  0.1207788E+00
         -1   -1    0    0    0  501 -0.00000000000E+00  0.00000000000E+00  0.96429106659E+03  0.96429106659E+03  0.00000000000E+00 0.  1.
         21   -1    0    0  501  502  0.00000000000E+00 -0.00000000000E+00 -0.41990980214E+02  0.41990980214E+02  0.00000000000E+00 0.  1.
         23    2    1    2    0    0  0.33326320776E+02  0.75019573712E+02  0.32678630531E+03  0.34905833102E+03  0.91180310485E+02 0.  0.
         24    2    1    2    0    0 -0.40437061330E+02 -0.16327124706E+03  0.44520706199E+03  0.48277879531E+03  0.81076390599E+02 0.  0.
        -11    1    4    4    0    0 -0.17307218213E+02 -0.12860580763E+03  0.23468502722E+03  0.26817169045E+03  0.00000000000E+00 0.  1.
         12    1    4    4    0    0 -0.23129843117E+02 -0.34665439430E+02  0.21052203477E+03  0.21460710486E+03  0.00000000000E+00 0. -1.
        -13    1    3    3    0    0  0.36081973231E+00  0.86951304970E+02  0.21551992378E+03  0.23239943453E+03  0.00000000000E+00 0.  1.
         13    1    3    3    0    0  0.32965501044E+02 -0.11931731259E+02  0.11126638153E+03  0.11665889649E+03  0.00000000000E+00 0. -1.
         -2    1    1    2    0  502  0.71107405536E+01  0.88251673345E+02  0.15030671908E+03  0.17444492048E+03  0.00000000000E+00 0.  1.
<scales pt_clust_5="13000.00000" pt_clust_6="13000.00000" pt_clust_7="13000.00000" pt_clust_8="13000.00000" pt_clust_9="88.53768"></scales>
<clustering>
<clus scale="   81.076">  5  6 -1 -1</clus>
<clus scale="   88.538">  2  9  1 -1</clus>
<clus scale="   91.180">  7  8 -1 -1</clus>
<clus scale="  139.650">  2  5  1 -1</clus>
<clus scale="   88.538">  2  5  1 -1</clus>
</clustering>
</event>
<event>
 9    2  0.1488992E-004  0.5095114E+03  0.7546771E-02  0.1062042E+00
         21   -1    0    0  501  502  0.00000000000E+00  0.00000000000E+00  0.16331753970E+03  0.16331753970E+03  0.00000000000E+00 0. -1.
          2   -1    0    0  502    0 -0.00000000000E+00 -0.00000000000E+00 -0.24339403698E+04  0.24339403698E+04  0.00000000000E+00 0. -1.
         24    2    1    2    0    0 -0.30582116083E+02 -0.63239626964E+02 -0.62003342335E+03  0.63065860669E+03  0.91401946827E+02 0.  0.
         23    2    1    2    0    0 -0.35351249642E+03 -0.32287622305E+03 -0.52613354010E+03  0.71719339716E+03  0.91267334730E+02 0.  0.
        -11    1    3    3    0    0 -0.12407252363E+02 -0.84229386538E+02 -0.40591561407E+03  0.41474813467E+03  0.00000000000E+00 0.  1.
         12    1    3    3    0    0 -0.18174863720E+02  0.20989759574E+02 -0.21411780928E+03  0.21591047202E+03  0.00000000000E+00 0. -1.
        -11    1    4    4    0    0 -0.34062257816E+03 -0.28078659033E+03 -0.45822951346E+03  0.63626970466E+03  0.00000000000E+00 0. -1.
         11    1    4    4    0    0 -0.12889918253E+02 -0.42089632717E+02 -0.67904026633E+02  0.80923692500E+02  0.00000000000E+00 0.  1.
          1    1    1    2  501    0  0.38409461250E+03  0.38611585001E+03 -0.11244558667E+04  0.12494059056E+04  0.00000000000E+00 0. -1.
<scales pt_clust_5="13000.00000" pt_clust_6="13000.00000" pt_clust_7="13000.00000" pt_clust_8="13000.00000" pt_clust_9="501.27081"></scales>
<clustering>
<clus scale="   91.267">  7  8 -1 -1</clus>
<clus scale="   91.402">  5  6 -1 -1</clus>
<clus scale="  115.277">  2  5  1 -1</clus>
<clus scale="  501.271">  1  9  2 -1</clus>
<clus scale="  501.271">  1  5  2 -1</clus>
</clustering>
</event>
<event>
 9    2  0.1488992E-004  0.1109127E+03  0.7546771E-02  0.1263383E+00
         21   -1    0    0  501  502  0.00000000000E+00  0.00000000000E+00  0.78236549178E+02  0.78236549178E+02  0.00000000000E+00 0. -1.
         -1   -1    0    0    0  501 -0.00000000000E+00 -0.00000000000E+00 -0.71749969110E+03  0.71749969110E+03  0.00000000000E+00 0.  1.
         24    2    1    2    0    0  0.46390406139E+02 -0.44687023610E+02 -0.84617699662E+02  0.13218579909E+03  0.78510703241E+02 0.  0.
         23    2    1    2    0    0  0.19405959528E+02 -0.53070699446E+02 -0.12197702103E+02  0.10845109427E+03  0.91759280220E+02 0.  0.
        -11    1    3    3    0    0  0.53931025380E+02 -0.53974261924E+02 -0.90895973053E+02  0.11867541601E+03  0.00000000000E+00 0.  1.
         12    1    3    3    0    0 -0.75406192406E+01  0.92872383138E+01  0.62782733908E+01  0.13510383074E+02  0.00000000000E+00 0. -1.
        -11    1    4    4    0    0 -0.36827969856E+02 -0.20769350815E+02  0.90206263725E+00  0.42290412791E+02  0.00000000000E+00 0.  1.
         11    1    4    4    0    0  0.56233929384E+02 -0.32301348630E+02 -0.13099764740E+02  0.66160681477E+02  0.00000000000E+00 0. -1.
         -2    1    1    2    0  502 -0.65796365667E+02  0.97757723056E+02 -0.54244774016E+03  0.55509934692E+03  0.00000000000E+00 0.  1.
<scales pt_clust_5="13000.00000" pt_clust_6="13000.00000" pt_clust_7="13000.00000" pt_clust_8="13000.00000" pt_clust_9="62.30462"></scales>
<clustering>
<clus scale="   78.511">  5  6 -1 -1</clus>
<clus scale="   91.759">  7  8 -1 -1</clus>
<clus scale="  101.553">  2  5  1 -1</clus>
<clus scale="   62.305">  1  9  2 -1</clus>
<clus scale="   62.305">  1  5  2 -1</clus>
</clustering>
</event>
<event>
 9    2  0.1488992E-004  0.1318880E+03  0.7546771E-02  0.1232238E+00
          2   -1    0    0  502    0 -0.00000000000E+00  0.00000000000E+00  0.15199305532E+03  0.15199305532E+03  0.00000000000E+00 0. -1.
         21   -1    0    0  501  502  0.00000000000E+00 -0.00000000000E+00 -0.27420558140E+03  0.27420558140E+03  0.00000000000E+00 0. -1.
         24    2    1    2    0    0  0.86336634841E+02 -0.16590067858E+02  0.87446025419E+02  0.14712723499E+03  0.79185674501E+02 0.  0.
         23    2    1    2    0    0 -0.33286321053E+02 -0.13433417339E+02 -0.18004356399E+03  0.21130125386E+03  0.10461404819E+03 0.  0.
        -11    1    3    3    0    0  0.19981251355E+02  0.98082680107E+01 -0.11537569861E+02  0.25071259350E+02  0.00000000000E+00 0.  1.
         12    1    3    3    0    0  0.66355383486E+02 -0.26398335868E+02  0.98983595280E+02  0.12205597564E+03  0.00000000000E+00 0. -1.
        -13    1    4    4    0    0  0.19433629597E+01  0.38812664980E+02 -0.11205127689E+03  0.11859885444E+03  0.00000000000E+00 0.  1.
         13    1    4    4    0    0 -0.35229684013E+02 -0.52246082319E+02 -0.67992287101E+02  0.92702399422E+02  0.00000000000E+00 0. -1.
          1    1    1    2  501    0 -0.53050313788E+02  0.30023485197E+02 -0.29614987509E+02  0.67770147864E+02  0.00000000000E+00 0. -1.
<scales pt_clust_5="13000.00000" pt_clust_6="13000.00000" pt_clust_7="13000.00000" pt_clust_8="13000.00000" pt_clust_9="60.95691"></scales>
<clustering>
<clus scale="   60.957">  2  9  1 -1</clus>
<clus scale="   79.186">  5  6 -1 -1</clus>
<clus scale="  104.614">  7  8 -1 -1</clus>
<clus scale="  112.786">  1  5  2 -1</clus>
<clus scale="   60.957">  2  5  1 -1</clus>
</clustering>
</event>
<event>
 9    2  0.1488992E-004  0.1058218E+03  0.7546771E-02  0.1270438E+00
         21   -1    0    0  501  502  0.00000000000E+00  0.00000000000E+00  0.19515083910E+03  0.19515083910E+03  0.00000000000E+00 0. -1.
         -3   -1    0    0    0  501 -0.00000000000E+00 -0.00000000000E+00 -0.23970022936E+03  0.23970022936E+03  0.00000000000E+00 0.  1.
         23    2    1    2    0    0 -0.51666295129E+02 -0.34679267791E+02 -0.20134372221E+03  0.22755899405E+03  0.85858858774E+02 0.  0.
         24    2    1    2    0    0  0.36264884124E+02  0.50653457782E+02  0.87553310056E+02  0.13458239610E+03  0.81030393260E+02 0.  0.
        -13    1    4    4    0    0  0.77114358764E+01  0.44760016923E+02  0.34285559360E+01  0.45548659190E+02  0.00000000000E+00 0.  1.
         14    1    4    4    0    0  0.28553448247E+02  0.58934408597E+01  0.84124754120E+02  0.89033736908E+02  0.00000000000E+00 0. -1.
        -11    1    3    3    0    0 -0.31745477678E+02 -0.49333444971E+02 -0.19258747667E+03  0.20132436592E+03  0.00000000000E+00 0.  1.
         11    1    3    3    0    0 -0.19920817452E+02  0.14654177180E+02 -0.87562455485E+01  0.26234628125E+02  0.00000000000E+00 0. -1.
         -4    1    1    2    0  502  0.15401411005E+02 -0.15974189991E+02  0.69241021900E+02  0.72709678314E+02  0.00000000000E+00 0.  1.
<scales pt_clust_5="13000.00000" pt_clust_6="13000.00000" pt_clust_7="13000.00000" pt_clust_8="13000.00000" pt_clust_9="22.18960"></scales>
<clustering>
<clus scale="   22.190">  1  9  2 -1</clus>
<clus scale="   81.030">  5  6 -1 -1</clus>
<clus scale="   85.859">  7  8 -1 -1</clus>
<clus scale="  101.943">  1  5  2 -1</clus>
<clus scale="   22.190">  1  5  2 -1</clus>
</clustering>
</event>
<event>
 9    2  0.1488992E-004  0.2121288E+03  0.7546771E-02  0.1140401E+00
         21   -1    0    0  501  502  0.00000000000E+00  0.00000000000E+00  0.35655129355E+03  0.35655129355E+03  0.00000000000E+00 0.  1.
          2   -1    0    0  502    0 -0.00000000000E+00 -0.00000000000E+00 -0.32783293632E+03  0.32783293632E+03  0.00000000000E+00 0. -1.
         24    2    1    2    0    0 -0.89154172848E+02 -0.13911534705E+03  0.90660921831E+02  0.20673595368E+03  0.84963553807E+02 0.  0.
         23    2    1    2    0    0  0.15222929328E+03  0.17055195777E+03  0.12631051349E+03  0.27663595637E+03  0.91166762081E+02 0.  0.
        -11    1    3    3    0    0 -0.69255236852E+02 -0.69958813263E+02  0.10478800964E+02  0.98996609306E+02  0.00000000000E+00 0.  1.
         12    1    3    3    0    0 -0.19898935996E+02 -0.69156533787E+02  0.80182120866E+02  0.10773934437E+03  0.00000000000E+00 0. -1.
        -13    1    4    4    0    0  0.13296856635E+03  0.92156197554E+02  0.10592719542E+03  0.19337521846E+03  0.00000000000E+00 0.  1.
         13    1    4    4    0    0  0.19260726923E+02  0.78395760218E+02  0.20383318071E+02  0.83260737910E+02  0.00000000000E+00 0. -1.
          1    1    1    2  501    0 -0.63075120428E+02 -0.31436610723E+02 -0.18825307809E+03  0.20101231982E+03  0.00000000000E+00 0. -1.
<scales pt_clust_5="13000.00000" pt_clust_6="13000.00000" pt_clust_7="13000.00000" pt_clust_8="13000.00000" pt_clust_9="70.47508"></scales>
<clustering>
<clus scale="   70.475">  1  9  2 -1</clus>
<clus scale="   84.964">  5  6 -1 -1</clus>
<clus scale="   91.167">  7  8 -1 -1</clus>
<clus scale="  209.538">  2  5  1 -1</clus>
<clus scale="   70.475">  1  5  2 -1</clus>
</clustering>
</event>
<event>
 9    2  0.1488992E-004  0.1984939E+03  0.7546771E-02  0.1151910E+00
         -1   -1    0    0    0  501 -0.00000000000E+00  0.00000000000E+00  0.10635124738E+03  0.10635124738E+03  0.00000000000E+00 0.  1.
         21   -1    0    0  501  502  0.00000000000E+00 -0.00000000000E+00 -0.10050576351E+04  0.10050576351E+04  0.00000000000E+00 0.  1.
         23    2    1    2    0    0 -0.19199618495E+03  0.82594533272E+01 -0.34954365750E+02  0.21461231797E+03  0.88915047851E+02 0.  0.
         24    2    1    2    0    0  0.12573120059E+03  0.32840895982E+02 -0.43116753765E+03  0.45724039867E+03  0.79224222332E+02 0.  0.
        -11    1    4    4    0    0  0.37751221795E+01  0.29437098967E+02 -0.70331571358E+02  0.76336912911E+02  0.00000000000E+00 0.  1.
         12    1    4    4    0    0  0.12195607841E+03  0.34037970156E+01 -0.36083596629E+03  0.38090348576E+03  0.00000000000E+00 0. -1.
        -11    1    3    3    0    0 -0.12414275108E+03 -0.35177776406E+02 -0.65889061627E+01  0.12919873174E+03  0.00000000000E+00 0.  1.
         11    1    3    3    0    0 -0.67853433861E+02  0.43437229733E+02 -0.28365459588E+02  0.85413586222E+02  0.00000000000E+00 0. -1.
         -2    1    1    2    0  502  0.66264984356E+02 -0.41100349310E+02 -0.43258448436E+03  0.43955616590E+03  0.00000000000E+00 0.  1.
<scales pt_clust_5="13000.00000" pt_clust_6="13000.00000" pt_clust_7="13000.00000" pt_clust_8="13000.00000" pt_clust_9="77.97619"></scales>
<clustering>
<clus scale="   77.976">  2  9  1 -1</clus>
<clus scale="   79.224">  5  6 -1 -1</clus>
<clus scale="   88.915">  7  8 -1 -1</clus>
<clus scale="  194.346">  2  5  1 -1</clus>
<clus scale="   77.976">  2  5  1 -1</clus>
</clustering>
</event>
<event>
 9    2  0.1488992E-004  0.1208991E+03  0.7546771E-02  0.1244489E+00
         -3   -1    0    0    0  501 -0.00000000000E+00  0.00000000000E+00  0.31515043533E+03  0.31515043533E+03  0.00000000000E+00 0.  1.
         21   -1    0    0  501  502  0.00000000000E+00 -0.00000000000E+00 -0.19049303022E+03  0.19049303022E+03  0.00000000000E+00 0.  1.
         23    2    1    2    0    0  0.47101034043E+02 -0.43146988845E+02  0.16899382190E+03  0.20177479676E+03  0.89855365507E+02 0.  0.
         24    2    1    2    0    0 -0.12795791354E+03  0.97007438956E+02  0.29277140474E+02  0.18197634392E+03  0.80464699969E+02 0.  0.
        -11    1    4    4    0    0 -0.22434021966E+02  0.39201056685E+02 -0.23122945975E+02  0.50741293020E+02  0.00000000000E+00 0.  1.
         12    1    4    4    0    0 -0.10552389158E+03  0.57806382270E+02  0.52400086449E+02  0.13123505090E+03  0.00000000000E+00 0. -1.
        -13    1    3    3    0    0 -0.51333128744E+01 -0.40953593421E+02  0.13044505490E+03  0.13681907785E+03  0.00000000000E+00 0. -1.
         13    1    3    3    0    0  0.52234346917E+02 -0.21933954245E+01  0.38548766999E+02  0.64955718905E+02  0.00000000000E+00 0.  1.
         -4    1    1    2    0  502  0.80856879501E+02 -0.53860450110E+02 -0.73613557268E+02  0.12189232487E+03  0.00000000000E+00 0.  1.
<scales pt_clust_5="13000.00000" pt_clust_6="13000.00000" pt_clust_7="13000.00000" pt_clust_8="13000.00000" pt_clust_9="97.15340"></scales>
<clustering>
<clus scale="   80.465">  5  6 -1 -1</clus>
<clus scale="   89.855">  7  8 -1 -1</clus>
<clus scale="   97.153">  2  9  1 -1</clus>
<clus scale="  114.093">  2  5  1 -1</clus>
<clus scale="   97.153">  2  5  1 -1</clus>
</clustering>
</event>
<event>
 9    2  0.1720273E-004  0.1021827E+03  0.7546771E-02  0.1280454E+00
         21   -1    0    0  501  502  0.00000000000E+00  0.00000000000E+00  0.47674673698E+02  0.47674673698E+02  0.00000000000E+00 0.  1.
          2   -1    0    0  502    0 -0.00000000000E+00 -0.00000000000E+00 -0.11902802598E+04  0.11902802598E+04  0.00000000000E+00 0. -1.
         24    2    1    2    0    0 -0.43146179764E+02 -0.22327792069E+02 -0.99948551427E+03  0.10039096162E+04  0.80641807913E+02 0.  0.
         23    2    1    2    0    0  0.61163520209E+01  0.32712617787E+02 -0.11856290735E+02  0.97263619027E+02  0.90620719660E+02 0.  0.
        -13    1    3    3    0    0  0.10899596000E+02 -0.26916744017E+02 -0.15586260437E+03  0.15854483196E+03  0.00000000000E+00 0.  1.
         14    1    3    3    0    0 -0.54045775765E+02  0.45889519485E+01 -0.84362290991E+03  0.84536478427E+03  0.00000000000E+00 0. -1.
        -13    1    4    4    0    0 -0.34448144687E+02  0.15230906281E+02 -0.31328284968E+02  0.48990985064E+02  0.00000000000E+00 0. -1.
         13    1    4    4    0    0  0.40564496708E+02  0.17481711506E+02  0.19471994233E+02  0.48272633963E+02  0.00000000000E+00 0.  1.
          1    1    1    2  501    0  0.37029827743E+02 -0.10384825719E+02 -0.13126378112E+03  0.13678169827E+03  0.00000000000E+00 0. -1.
<scales pt_clust_5="13000.00000" pt_clust_6="13000.00000" pt_clust_7="13000.00000" pt_clust_8="13000.00000" pt_clust_9="38.45847"></scales>
<clustering>
<clus scale="   38.458">  1  9  2 -1</clus>
<clus scale="   80.642">  5  6 -1 -1</clus>
<clus scale="   90.621">  7  8 -1 -1</clus>
<clus scale="   93.447">  2  5  1 -1</clus>
<clus scale="   38.458">  1  5  2 -1</clus>
</clustering>
</event>
<event>
 9    2  0.1488992E-004  0.1844071E+03  0.7546771E-02  0.1164834E+00
          2   -1    0    0  502    0 -0.00000000000E+00  0.00000000000E+00  0.22422481993E+03  0.22422481993E+03  0.00000000000E+00 0. -1.
         21   -1    0    0  501  502  0.00000000000E+00 -0.00000000000E+00 -0.21587289252E+03  0.21587289252E+03  0.00000000000E+00 0. -1.
         23    2    1    2    0    0  0.30695512298E+01  0.16943223915E+03  0.73167917517E+02  0.20586424727E+03  0.91158314723E+02 0.  0.
         24    2    1    2    0    0 -0.50336385505E+02 -0.14124179175E+03 -0.48110385163E+02  0.17671883935E+03  0.80199398870E+02 0.  0.
        -11    1    4    4    0    0  0.11587969176E+02 -0.27033740919E+02  0.14167799054E+02  0.32647062774E+02  0.00000000000E+00 0.  1.
         12    1    4    4    0    0 -0.61924354681E+02 -0.11420805083E+03 -0.62278184217E+02  0.14407177658E+03  0.00000000000E+00 0. -1.
        -13    1    3    3    0    0  0.40164896575E+02  0.42983112282E+02  0.97886667680E+01  0.59637109718E+02  0.00000000000E+00 0.  1.
         13    1    3    3    0    0 -0.37095345346E+02  0.12644912687E+03  0.63379250749E+02  0.14622713756E+03  0.00000000000E+00 0. -1.
          1    1    1    2  501    0  0.47266834275E+02 -0.28190447402E+02 -0.16705604946E+02  0.57514625824E+02  0.00000000000E+00 0. -1.
<scales pt_clust_5="13000.00000" pt_clust_6="13000.00000" pt_clust_7="13000.00000" pt_clust_8="13000.00000" pt_clust_9="55.03503"></scales>
<clustering>
<clus scale="   55.035">  2  9  1 -1</clus>
<clus scale="   80.199">  5  6 -1 -1</clus>
<clus scale="   91.158">  7  8 -1 -1</clus>
<clus scale="  179.243">  2  5  1 -1</clus>
<clus scale="   55.035">  2  5  1 -1</clus>
</clustering>
</event>
<event>
 9    2  0.1488992E-004  0.1229172E+03  0.7546771E-02  0.1241243E+00
         21   -1    0    0  501  502  0.00000000000E+00  0.00000000000E+00  0.26131478005E+03  0.26131478005E+03  0.00000000000E+00 0.  1.
          2   -1    0    0  502    0 -0.00000000000E+00 -0.00000000000E+00 -0.39662559140E+03  0.39662559140E+03  0.00000000000E+00 0. -1.
         23    2    1    2    0    0  0.57201521031E+02 -0.64592525662E+02 -0.35419092733E+03  0.37577388775E+03  0.91162455744E+02 0.  0.
         24    2    1    2    0    0  0.15932872755E+02  0.40969348698E+02  0.16184722166E+03  0.18646149387E+03  0.81492463264E+02 0.  0.
        -11    1    4    4    0    0 -0.54616881249E+01  0.62207207738E+02  0.10903703073E+03  0.12565285831E+03  0.00000000000E+00 0.  1.
         12    1    4    4    0    0  0.21394560880E+02 -0.21237859040E+02  0.52810190928E+02  0.60808635552E+02  0.00000000000E+00 0. -1.
        -13    1    3    3    0    0 -0.23568458427E+02 -0.80050790099E+01 -0.10181736770E+03  0.10481569486E+03  0.00000000000E+00 0.  1.
         13    1    3    3    0    0  0.80769979458E+02 -0.56587446652E+02 -0.25237355963E+03  0.27095819290E+03  0.00000000000E+00 0. -1.
          1    1    1    2  501    0 -0.73134393786E+02  0.23623176965E+02  0.57032894314E+02  0.95704989829E+02  0.00000000000E+00 0. -1.
<scales pt_clust_5="13000.00000" pt_clust_6="13000.00000" pt_clust_7="13000.00000" pt_clust_8="13000.00000" pt_clust_9="76.85502"></scales>
<clustering>
<clus scale="   76.855">  1  9  2 -1</clus>
<clus scale="   81.492">  5  6 -1 -1</clus>
<clus scale="   91.162">  7  8 -1 -1</clus>
<clus scale="  115.927">  1  5  2 -1</clus>
<clus scale="   76.855">  1  5  2 -1</clus>
</clustering>
</event>
<event>
 9    2  0.1488992E-004  0.1462385E+03  0.7546771E-02  0.1228963E+00
         21   -1    0    0  501  502  0.00000000000E+00  0.00000000000E+00  0.91492135054E+02  0.91492135054E+02  0.00000000000E+00 0. -1.
          2   -1    0    0  502    0 -0.00000000000E+00 -0.00000000000E+00 -0.36772718316E+03  0.36772718316E+03  0.00000000000E+00 0. -1.
         24    2    1    2    0    0 -0.36155054479E+02 -0.31622996352E+01 -0.16500619625E+03  0.18724985233E+03  0.80735830285E+02 0.  0.
         23    2    1    2    0    0  0.46445157611E+02 -0.92348152590E+02 -0.50362864306E+02  0.15824699165E+03  0.10872147126E+03 0.  0.
        -13    1    3    3    0    0  0.26078390138E+02  0.11465509158E+01 -0.46400887258E+02  0.53239452942E+02  0.00000000000E+00 0.  1.
         14    1    3    3    0    0 -0.62233444617E+02 -0.43088505509E+01 -0.11860530900E+03  0.13401039939E+03  0.00000000000E+00 0. -1.
        -11    1    4    4    0    0  0.73712071540E+02 -0.38689341088E+02 -0.59795665058E+01  0.83463104544E+02  0.00000000000E+00 0. -1.
         11    1    4    4    0    0 -0.27266913928E+02 -0.53658811503E+02 -0.44383297800E+02  0.74783887106E+02  0.00000000000E+00 0.  1.
          1    1    1    2  501    0 -0.10290103133E+02  0.95510452226E+02 -0.60865987551E+02  0.11372247424E+03  0.00000000000E+00 0. -1.
<scales pt_clust_5="13000.00000" pt_clust_6="13000.00000" pt_clust_7="13000.00000" pt_clust_8="13000.00000" pt_clust_9="97.80263"></scales>
<clustering>
<clus scale="   80.736">  5  6 -1 -1</clus>
<clus scale="   88.518">  2  5  1 -1</clus>
<clus scale="   97.803">  1  9  2 -1</clus>
<clus scale="  108.721">  7  8 -1 -1</clus>
<clus scale="   97.803">  1  5  2 -1</clus>
</clustering>
</event>
<event>
 9    2  0.1488992E-004  0.1729737E+03  0.7546771E-02  0.1191050E+00
          2   -1    0    0  502    0 -0.00000000000E+00  0.00000000000E+00  0.61034386989E+03  0.61034386989E+03  0.00000000000E+00 0. -1.
         21   -1    0    0  501  502  0.00000000000E+00 -0.00000000000E+00 -0.93288655876E+02  0.93288655876E+02  0.00000000000E+00 0. -1.
         24    2    1    2    0    0 -0.16369593111E+02 -0.87944799796E+02  0.16504453274E+03  0.20418424653E+03  0.80307268382E+02 0.  0.
         23    2    1    2    0    0  0.10656798225E+03 -0.39156389087E+02  0.29830268449E+03  0.33459983205E+03  0.10041214262E+03 0.  0.
        -13    1    3    3    0    0 -0.44705173971E+02 -0.40284261512E+02  0.57728555498E+02  0.83390409672E+02  0.00000000000E+00 0.  1.
         14    1    3    3    0    0  0.28335580860E+02 -0.47660538284E+02  0.10731597724E+03  0.12079383686E+03  0.00000000000E+00 0. -1.
        -13    1    4    4    0    0  0.54550897153E+02 -0.66346007791E+01  0.25151205637E+03  0.25744539772E+03  0.00000000000E+00 0.  1.
         13    1    4    4    0    0  0.52017085099E+02 -0.32521788308E+02  0.46790628122E+02  0.77154434332E+02  0.00000000000E+00 0. -1.
          1    1    1    2  501    0 -0.90198389141E+02  0.12710118888E+03  0.53707996779E+02  0.16484844718E+03  0.00000000000E+00 0. -1.
<scales pt_clust_5="13000.00000" pt_clust_6="13000.00000" pt_clust_7="13000.00000" pt_clust_8="13000.00000" pt_clust_9="140.84501"></scales>
<clustering>
<clus scale="   80.307">  5  6 -1 -1</clus>
<clus scale="  100.412">  7  8 -1 -1</clus>
<clus scale="  120.214">  1  5  2 -1</clus>
<clus scale="  140.845">  2  9  1 -1</clus>
<clus scale="  140.845">  2  5  1 -1</clus>
</clustering>
</event>
<event>
 9    2  0.1488992E-004  0.1081529E+03  0.7546771E-02  0.1267260E+00
          2   -1    0    0  502    0 -0.00000000000E+00  0.00000000000E+00  0.59047701670E+03  0.59047701670E+03  0.00000000000E+00 0. -1.
         21   -1    0    0  501  502  0.00000000000E+00 -0.00000000000E+00 -0.31965535515E+02  0.31965535515E+02  0.00000000000E+00 0.  1.
         23    2    1    2    0    0  0.19866138862E+02  0.36704738818E+02  0.16921979185E+03  0.19684377409E+03  0.91488972671E+02 0.  0.
         24    2    1    2    0    0 -0.41425019752E+01 -0.78485076436E+02  0.19505171122E+03  0.22629499375E+03  0.83589392862E+02 0.  0.
        -13    1    4    4    0    0  0.18110142428E+02 -0.72604131066E+02  0.82359681068E+02  0.11127647627E+03  0.00000000000E+00 0.  1.
         14    1    4    4    0    0 -0.22252644403E+02 -0.58809453703E+01  0.11269203016E+03  0.11501851747E+03  0.00000000000E+00 0. -1.
        -11    1    3    3    0    0  0.53465529840E+02  0.46070469315E+01  0.81586708073E+02  0.97653359884E+02  0.00000000000E+00 0. -1.
         11    1    3    3    0    0 -0.33599390979E+02  0.32097691886E+02  0.87633083777E+02  0.99190414209E+02  0.00000000000E+00 0.  1.
          1    1    1    2  501    0 -0.15723636886E+02  0.41780337618E+02  0.19423997811E+03  0.19930378437E+03  0.00000000000E+00 0. -1.
<scales pt_clust_5="13000.00000" pt_clust_6="13000.00000" pt_clust_7="13000.00000" pt_clust_8="13000.00000" pt_clust_9="44.64114"></scales>
<clustering>
<clus scale="   44.641">  2  9  1 -1</clus>
<clus scale="   83.589">  5  6 -1 -1</clus>
<clus scale="   91.489">  7  8 -1 -1</clus>
<clus scale="  101.558">  2  5  1 -1</clus>
<clus scale="   44.641">  2  5  1 -1</clus>
</clustering>
</event>
<event>
 9    2  0.1488992E-004  0.1066094E+03  0.7546771E-02  0.1271825E+00
         21   -1    0    0  501  502  0.00000000000E+00  0.00000000000E+00  0.46602324877E+02  0.46602324877E+02  0.00000000000E+00 0.  1.
          2   -1    0    0  502    0 -0.00000000000E+00 -0.00000000000E+00 -0.48348400723E+03  0.48348400723E+03  0.00000000000E+00 0. -1.
         24    2    1    2    0    0 -0.56331151424E+02  0.52333066136E+02 -0.22100634560E+03  0.24706052341E+03  0.79266316941E+02 0.  0.
         23    2    1    2    0    0  0.37703443703E+02  0.21367309114E+02 -0.84853050979E+02  0.13154783612E+03  0.90701054904E+02 0.  0.
        -13    1    3    3    0    0 -0.60462648066E+02  0.29838699891E+02 -0.21202859959E+03  0.22249091412E+03  0.00000000000E+00 0.  1.
         14    1    3    3    0    0  0.41314966426E+01  0.22494366246E+02 -0.89777460099E+01  0.24569609291E+02  0.00000000000E+00 0. -1.
        -11    1    4    4    0    0  0.34311213093E+02  0.50139623128E+00  0.88924343558E+01  0.35448358649E+02  0.00000000000E+00 0.  1.
         11    1    4    4    0    0  0.33922306094E+01  0.20865912883E+02 -0.93745485334E+02  0.96099477467E+02  0.00000000000E+00 0. -1.
          1    1    1    2  501    0  0.18627707721E+02 -0.73700375250E+02 -0.13102228578E+03  0.15147797258E+03  0.00000000000E+00 0. -1.
<scales pt_clust_5="13000.00000" pt_clust_6="13000.00000" pt_clust_7="13000.00000" pt_clust_8="13000.00000" pt_clust_9="76.01804"></scales>
<clustering>
<clus scale="   76.018">  1  9  2 -1</clus>
<clus scale="   79.266">  5  6 -1 -1</clus>
<clus scale="   90.701">  7  8 -1 -1</clus>
<clus scale="   97.067">  2  5  1 -1</clus>
<clus scale="   76.018">  1  5  2 -1</clus>
</clustering>
</event>
<event>
 9    2  0.1488992E-004  0.1729452E+03  0.7546771E-02  0.1192016E+00
         -1   -1    0    0    0  501 -0.00000000000E+00  0.00000000000E+00  0.17576445395E+03  0.17576445395E+03  0.00000000000E+00 0.  1.
         21   -1    0    0  501  502  0.00000000000E+00 -0.00000000000E+00 -0.33121407808E+03  0.33121407808E+03  0.00000000000E+00 0.  1.
         24    2    1    2    0    0  0.18225986879E+02  0.89900798493E+02 -0.18747179091E+02  0.11922450386E+03  0.73815211367E+02 0.  0.
         23    2    1    2    0    0  0.68754155311E+02 -0.18808344819E+03 -0.37586499080E+02  0.22334798029E+03  0.91482555879E+02 0.  0.
        -11    1    3    3    0    0  0.39946812513E+02  0.22438198773E+02 -0.15161843840E+02  0.48260771883E+02  0.00000000000E+00 0.  1.
         12    1    3    3    0    0 -0.21720825633E+02  0.67462599720E+02 -0.35853352511E+01  0.70963731976E+02  0.00000000000E+00 0. -1.
        -13    1    4    4    0    0  0.64109268029E+02 -0.54406010965E+02 -0.30353897990E+02  0.89394470744E+02  0.00000000000E+00 0. -1.
         13    1    4    4    0    0  0.46448872819E+01 -0.13367743722E+03 -0.72326010907E+01  0.13395350954E+03  0.00000000000E+00 0.  1.
         -2    1    1    2    0  502 -0.86980142191E+02  0.98182649694E+02 -0.99115945966E+02  0.16440604789E+03  0.00000000000E+00 0.  1.
<scales pt_clust_5="13000.00000" pt_clust_6="13000.00000" pt_clust_7="13000.00000" pt_clust_8="13000.00000" pt_clust_9="146.76842"></scales>
<clustering>
<clus scale="   73.815">  5  6 -1 -1</clus>
<clus scale="   91.483">  7  8 -1 -1</clus>
<clus scale="  117.741">  1  5  2 -1</clus>
<clus scale="  146.768">  2  9  1 -1</clus>
<clus scale="  146.768">  2  5  1 -1</clus>
</clustering>
</event>
<event>
 9    2  0.1488992E-004  0.1117913E+03  0.7546771E-02  0.1260771E+00
         21   -1    0    0  501  502  0.00000000000E+00  0.00000000000E+00  0.57555525271E+02  0.57555525271E+02  0.00000000000E+00 0.  1.
         -1   -1    0    0    0  501 -0.00000000000E+00 -0.00000000000E+00 -0.42819675110E+03  0.42819675110E+03  0.00000000000E+00 0.  1.
         23    2    1    2    0    0  0.52860002644E+02 -0.43903909357E+02 -0.27019244544E+03  0.29343773368E+03  0.91542410071E+02 0.  0.
         24    2    1    2    0    0 -0.67747241659E+02 -0.95873370704E+01 -0.53882644960E+02  0.11984835541E+03  0.82332758252E+02 0.  0.
        -13    1    4    4    0    0 -0.23085095656E+02 -0.14128710611E+02  0.19822331344E+02  0.33547979445E+02  0.00000000000E+00 0.  1.
         14    1    4    4    0    0 -0.44662146003E+02  0.45413735403E+01 -0.73704976303E+02  0.86300375962E+02  0.00000000000E+00 0. -1.
        -11    1    3    3    0    0  0.51305917029E+02 -0.69905122345E+02 -0.22701300028E+03  0.24301013466E+03  0.00000000000E+00 0.  1.
         11    1    3    3    0    0  0.15540856143E+01  0.26001212988E+02 -0.43179445156E+02  0.50427599020E+02  0.00000000000E+00 0. -1.
         -2    1    1    2    0  502  0.14887239015E+02  0.53491246428E+02 -0.46566135428E+02  0.72466187278E+02  0.00000000000E+00 0.  1.
<scales pt_clust_5="13000.00000" pt_clust_6="13000.00000" pt_clust_7="13000.00000" pt_clust_8="13000.00000" pt_clust_9="55.52426"></scales>
<clustering>
<clus scale="   55.524">  1  9  2 -1</clus>
<clus scale="   82.333">  5  6 -1 -1</clus>
<clus scale="   91.542">  7  8 -1 -1</clus>
<clus scale="  104.384">  1  5  2 -1</clus>
<clus scale="   55.524">  1  5  2 -1</clus>
</clustering>
</event>
<event>
 9    2  0.1488992E-004  0.1082114E+03  0.7546771E-02  0.1268667E+00
         21   -1    0    0  501  502  0.00000000000E+00  0.00000000000E+00  0.14911730393E+03  0.14911730393E+03  0.00000000000E+00 0. -1.
         -3   -1    0    0    0  501 -0.00000000000E+00 -0.00000000000E+00 -0.21282160256E+03  0.21282160256E+03  0.00000000000E+00 0.  1.
         23    2    1    2    0    0  0.15430242597E+02  0.51961838517E+02 -0.14664990629E+03  0.18120811338E+03  0.91608189000E+02 0.  0.
         24    2    1    2    0    0 -0.52036047840E+02 -0.57383451022E+02  0.28705923829E+02  0.11507013394E+03  0.80103027003E+02 0.  0.
        -13    1    4    4    0    0  0.45746596761E+01 -0.54452832334E+02  0.16537647291E+02  0.57092313303E+02  0.00000000000E+00 0.  1.
         14    1    4    4    0    0 -0.56610707516E+02 -0.29306186877E+01  0.12168276539E+02  0.57977820633E+02  0.00000000000E+00 0. -1.
        -11    1    3    3    0    0  0.22900086125E+02  0.14369426713E+02 -0.13965493081E+03  0.14224765048E+03  0.00000000000E+00 0.  1.
         11    1    3    3    0    0 -0.74698435273E+01  0.37592411804E+02 -0.69949754852E+01  0.38960462903E+02  0.00000000000E+00 0. -1.
         -4    1    1    2    0  502  0.36605805243E+02  0.54216125047E+01  0.54239683837E+02  0.65660659168E+02  0.00000000000E+00 0.  1.
<scales pt_clust_5="13000.00000" pt_clust_6="13000.00000" pt_clust_7="13000.00000" pt_clust_8="13000.00000" pt_clust_9="37.00512"></scales>
<clustering>
<clus scale="   37.005">  1  9  2 -1</clus>
<clus scale="   80.103">  5  6 -1 -1</clus>
<clus scale="   91.608">  7  8 -1 -1</clus>
<clus scale="   98.662">  1  5  2 -1</clus>
<clus scale="   37.005">  1  5  2 -1</clus>
</clustering>
</event>
<event>
 9    2  0.1488992E-004  0.1154694E+03  0.7546771E-02  0.1254583E+00
          2   -1    0    0  502    0 -0.00000000000E+00  0.00000000000E+00  0.28633279785E+03  0.28633279785E+03  0.00000000000E+00 0. -1.
         21   -1    0    0  501  502  0.00000000000E+00 -0.00000000000E+00 -0.92111566560E+02  0.92111566560E+02  0.00000000000E+00 0. -1.
         24    2    1    2    0    0  0.63579765279E+02  0.40371572704E+02  0.21163374103E+03  0.23843769288E+03  0.79946498424E+02 0.  0.
         23    2    1    2    0    0 -0.37692242528E+02 -0.42405350616E+02  0.26015934852E+01  0.10722154664E+03  0.90943789598E+02 0.  0.
        -13    1    3    3    0    0  0.37569323275E+02  0.39832572412E+02  0.48203651504E+02  0.72949845062E+02  0.00000000000E+00 0.  1.
         14    1    3    3    0    0  0.26010442003E+02  0.53900029253E+00  0.16343008952E+03  0.16548784782E+03  0.00000000000E+00 0. -1.
        -11    1    4    4    0    0  0.18532857099E+02 -0.47215885829E+02  0.26308569634E+01  0.50791023570E+02  0.00000000000E+00 0. -1.
         11    1    4    4    0    0 -0.56225099627E+02  0.48105352130E+01 -0.29263478229E-01  0.56430523066E+02  0.00000000000E+00 0.  1.
          1    1    1    2  501    0 -0.25887522751E+02  0.20337779119E+01 -0.20014103219E+02  0.32785124896E+02  0.00000000000E+00 0. -1.
<scales pt_clust_5="13000.00000" pt_clust_6="13000.00000" pt_clust_7="13000.00000" pt_clust_8="13000.00000" pt_clust_9="25.96729"></scales>
<clustering>
<clus scale="   25.967">  2  9  1 -1</clus>
<clus scale="   79.946">  5  6 -1 -1</clus>
<clus scale="   90.944">  7  8 -1 -1</clus>
<clus scale="  107.023">  1  5  2 -1</clus>
<clus scale="   25.967">  2  5  1 -1</clus>
</clustering>
</event>
<event>
 9    2  0.1488992E-004  0.2206271E+03  0.7546771E-02  0.1160433E+00
          2   -1    0    0  502    0 -0.00000000000E+00  0.00000000000E+00  0.95315859356E+03  0.95315859356E+03  0.00000000000E+00 0. -1.
         21   -1    0    0  501  502  0.00000000000E+00 -0.00000000000E+00 -0.97912406508E+02  0.97912406508E+02  0.00000000000E+00 0.  1.
         23    2    1    2    0    0  0.25322476951E+02  0.66935701078E+02  0.69715598864E+02  0.13525218892E+03  0.91166188718E+02 0.  0.
         24    2    1    2    0    0  0.94014029058E+02 -0.19981018766E+03  0.21609892602E+03  0.31903639792E+03  0.79515587275E+02 0.  0.
        -11    1    4    4    0    0  0.29131050728E+02 -0.89177001706E+02  0.41977334891E+02  0.10277768432E+03  0.00000000000E+00 0.  1.
         12    1    4    4    0    0  0.64882978330E+02 -0.11063318596E+03  0.17412159113E+03  0.21625871360E+03  0.00000000000E+00 0. -1.
        -13    1    3    3    0    0  0.53102983388E+02  0.65407884213E+02  0.36213343711E+02  0.91703459175E+02  0.00000000000E+00 0.  1.
         13    1    3    3    0    0 -0.27780506436E+02  0.15278168652E+01  0.33502255153E+02  0.43548729747E+02  0.00000000000E+00 0. -1.
          1    1    1    2  501    0 -0.11933650601E+03  0.13287448659E+03  0.56943166217E+03  0.59678241323E+03  0.00000000000E+00 0. -1.
<scales pt_clust_5="13000.00000" pt_clust_6="13000.00000" pt_clust_7="13000.00000" pt_clust_8="13000.00000" pt_clust_9="205.79995"></scales>
<clustering>
<clus scale="   79.516">  5  6 -1 -1</clus>
<clus scale="   91.166">  7  8 -1 -1</clus>
<clus scale="  115.900">  1  7  2 -1</clus>
<clus scale="  205.800">  2  9  1 -1</clus>
<clus scale="  205.800">  2  5  1 -1</clus>
</clustering>
</event>
<event>
 9    2  0.1488992E-004  0.1452698E+03  0.7546771E-02  0.1224845E+00
         21   -1    0    0  501  502  0.00000000000E+00  0.00000000000E+00  0.94285239015E+03  0.94285239015E+03  0.00000000000E+00 0. -1.
          2   -1    0    0  502    0 -0.00000000000E+00 -0.00000000000E+00 -0.20557953836E+03  0.20557953836E+03  0.00000000000E+00 0. -1.
         24    2    1    2    0    0 -0.45683035006E+02 -0.25771226594E+02 -0.15797684317E+03  0.18609355979E+03  0.83204772766E+02 0.  0.
         23    2    1    2    0    0 -0.60370602016E+02  0.73085533771E+02  0.12046525046E+03  0.17889918598E+03  0.92233059922E+02 0.  0.
        -13    1    3    3    0    0 -0.12345857716E+02 -0.37630940640E+02 -0.21417724136E+02  0.45024735462E+02  0.00000000000E+00 0.  1.
         14    1    3    3    0    0 -0.33337177290E+02  0.11859714046E+02 -0.13655911904E+03  0.14106882433E+03  0.00000000000E+00 0. -1.
        -11    1    4    4    0    0 -0.15558629247E+02  0.17541562640E+02 -0.13539122482E+02  0.27075546190E+02  0.00000000000E+00 0. -1.
         11    1    4    4    0    0 -0.44811972768E+02  0.55543971132E+02  0.13400437294E+03  0.15182363979E+03  0.00000000000E+00 0.  1.
          1    1    1    2  501    0  0.10605363702E+03 -0.47314307178E+02  0.77478444451E+03  0.78343918273E+03  0.00000000000E+00 0. -1.
<scales pt_clust_5="13000.00000" pt_clust_6="13000.00000" pt_clust_7="13000.00000" pt_clust_8="13000.00000" pt_clust_9="112.23364"></scales>
<clustering>
<clus scale="   83.205">  5  6 -1 -1</clus>
<clus scale="   92.233">  7  8 -1 -1</clus>
<clus scale="   98.357">  2  5  1 -1</clus>
<clus scale="  112.234">  1  9  2 -1</clus>
<clus scale="  112.234">  1  5  2 -1</clus>
</clustering>
</event>
<event>
 9    2  0.1488992E-004  0.1386782E+03  0.7546771E-02  0.1233134E+00
         21   -1    0    0  501  502  0.00000000000E+00  0.00000000000E+00  0.13606256270E+03  0.13606256270E+03  0.00000000000E+00 0. -1.
          2   -1    0    0  502    0 -0.00000000000E+00 -0.00000000000E+00 -0.38648862935E+03  0.38648862935E+03  0.00000000000E+00 0. -1.
         23    2    1    2    0    0  0.17004311218E+02 -0.11858338647E+01 -0.12696620823E+03  0.15872098519E+03  0.93709019338E+02 0.  0.
         24    2    1    2    0    0 -0.61160709214E+02 -0.96311387632E+02  0.59366943672E+02  0.15197852467E+03  0.80972354669E+02 0.  0.
        -11    1    4    4    0    0  0.20084457152E+02 -0.17162014154E+02  0.94919870668E+01  0.28071657724E+02  0.00000000000E+00 0.  1.
         12    1    4    4    0    0 -0.81245166366E+02 -0.79149373478E+02  0.49874956605E+02  0.12390686694E+03  0.00000000000E+00 0. -1.
        -13    1    3    3    0    0  0.40574118489E+02  0.17048541050E+02 -0.21225422905E+02  0.48861338711E+02  0.00000000000E+00 0.  1.
         13    1    3    3    0    0 -0.23569807271E+02 -0.18234374915E+02 -0.10574078532E+03  0.10985964648E+03  0.00000000000E+00 0. -1.
          1    1    1    2  501    0  0.44156397995E+02  0.97497221496E+02 -0.18282680209E+03  0.21185168219E+03  0.00000000000E+00 0. -1.
<scales pt_clust_5="13000.00000" pt_clust_6="13000.00000" pt_clust_7="13000.00000" pt_clust_8="13000.00000" pt_clust_9="112.58385"></scales>
<clustering>
<clus scale="   80.972">  5  6 -1 -1</clus>
<clus scale="   93.709">  7  8 -1 -1</clus>
<clus scale="   95.247">  2  7  1 -1</clus>
<clus scale="  112.584">  1  9  2 -1</clus>
<clus scale="  112.584">  1  5  2 -1</clus>
</clustering>
</event>
<event>
 9    2  0.1488992E-004  0.1236970E+03  0.7546771E-02  0.1239918E+00
          4   -1    0    0  502    0 -0.00000000000E+00  0.00000000000E+00  0.78264876363E+03  0.78264876363E+03  0.00000000000E+00 0. -1.
         21   -1    0    0  501  502  0.00000000000E+00 -0.00000000000E+00 -0.44942668229E+02  0.44942668229E+02  0.00000000000E+00 0.  1.
         24    2    1    2    0    0 -0.28824519752E+02  0.11126397140E+03  0.24452140802E+03  0.28201602033E+03  0.80819505510E+02 0.  0.
         23    2    1    2    0    0  0.42068412346E+02 -0.35638793069E+02  0.10241963090E+03  0.14733942916E+03  0.90439215514E+02 0.  0.
        -11    1    3    3    0    0 -0.35355517362E+02  0.11330246295E+03  0.17087341343E+03  0.20805091717E+03  0.00000000000E+00 0.  1.
         12    1    3    3    0    0  0.65309976093E+01 -0.20384915548E+01  0.73647994589E+02  0.73965103154E+02  0.00000000000E+00 0. -1.
        -11    1    4    4    0    0  0.24264142268E+02 -0.64895365577E+02  0.82448806240E+02  0.10769383791E+03  0.00000000000E+00 0.  1.
         11    1    4    4    0    0  0.17804270078E+02  0.29256572508E+02  0.19970824656E+02  0.39645591248E+02  0.00000000000E+00 0. -1.
          3    1    1    2  501    0 -0.13243892593E+02 -0.75625178329E+02  0.39076505649E+03  0.39823598237E+03  0.00000000000E+00 0. -1.
<scales pt_clust_5="13000.00000" pt_clust_6="13000.00000" pt_clust_7="13000.00000" pt_clust_8="13000.00000" pt_clust_9="76.77613"></scales>
<clustering>
<clus scale="   76.776">  2  9  1 -1</clus>
<clus scale="   80.820">  5  6 -1 -1</clus>
<clus scale="   90.439">  7  8 -1 -1</clus>
<clus scale="  116.848">  1  5  2 -1</clus>
<clus scale="   76.776">  2  5  1 -1</clus>
</clustering>
</event>
<event>
 9    2  0.1488992E-004  0.1816489E+03  0.7546771E-02  0.1188489E+00
         21   -1    0    0  501  502  0.00000000000E+00  0.00000000000E+00  0.16038181944E+04  0.16038181944E+04  0.00000000000E+00 0. -1.
         -1   -1    0    0    0  501 -0.00000000000E+00 -0.00000000000E+00 -0.32702864225E+02  0.32702864225E+02  0.00000000000E+00 0.  1.
         24    2    1    2    0    0 -0.26571803297E+02 -0.68795147652E+02  0.39507998020E+03  0.41006627648E+03  0.81408398113E+02 0.  0.
         23    2    1    2    0    0  0.57002123227E+01  0.18951178629E+03  0.90142541796E+03  0.92575768386E+03  0.92262102246E+02 0.  0.
        -11    1    3    3    0    0 -0.46019187716E+02 -0.18482498771E+02  0.25862633975E+03  0.26333809449E+03  0.00000000000E+00 0.  1.
         12    1    3    3    0    0  0.19447384419E+02 -0.50312648881E+02  0.13645364045E+03  0.14672818199E+03  0.00000000000E+00 0. -1.
        -13    1    4    4    0    0  0.44007051234E+02  0.10065480126E+03  0.57028659920E+03  0.58077087978E+03  0.00000000000E+00 0.  1.
         13    1    4    4    0    0 -0.38306838911E+02  0.88856985029E+02  0.33113881877E+03  0.34498680408E+03  0.00000000000E+00 0. -1.
         -2    1    1    2    0  502  0.20871590975E+02 -0.12071663864E+03  0.27460993197E+03  0.30069709824E+03  0.00000000000E+00 0.  1.
<scales pt_clust_5="13000.00000" pt_clust_6="13000.00000" pt_clust_7="13000.00000" pt_clust_8="13000.00000" pt_clust_9="156.47376"></scales>
<clustering>
<clus scale="   81.408">  5  6 -1 -1</clus>
<clus scale="   92.262">  7  8 -1 -1</clus>
<clus scale="  109.846">  2  5  1 -1</clus>
<clus scale="  156.474">  1  9  2 -1</clus>
<clus scale="  156.474">  1  5  2 -1</clus>
</clustering>
</event>
<event>
 9    2  0.1488992E-004  0.1269881E+03  0.7546771E-02  0.1236531E+00
         21   -1    0    0  501  502  0.00000000000E+00  0.00000000000E+00  0.15516654387E+03  0.15516654387E+03  0.00000000000E+00 0.  1.
          4   -1    0    0  502    0 -0.00000000000E+00 -0.00000000000E+00 -0.23059935430E+03  0.23059935430E+03  0.00000000000E+00 0. -1.
         23    2    1    2    0    0 -0.19907617158E+02  0.69692316643E+02 -0.20826035972E+02  0.11939770946E+03  0.92567580874E+02 0.  0.
         24    2    1    2    0    0  0.11943779073E+03 -0.31904342086E+02 -0.65423735704E+02  0.15935794097E+03  0.76363703810E+02 0.  0.
        -13    1    4    4    0    0  0.47264427802E+02 -0.49888175201E+02 -0.17635406963E+02  0.70949022115E+02  0.00000000000E+00 0.  1.
         14    1    4    4    0    0  0.72173362926E+02  0.17983833116E+02 -0.47788328741E+02  0.88408918857E+02  0.00000000000E+00 0. -1.
        -11    1    3    3    0    0  0.21587843794E+02  0.11300893228E+02  0.24559383638E+02  0.34596365591E+02  0.00000000000E+00 0.  1.
         11    1    3    3    0    0 -0.41495460952E+02  0.58391423416E+02 -0.45385419610E+02  0.84801343865E+02  0.00000000000E+00 0. -1.
          3    1    1    2  501    0 -0.99530173569E+02 -0.37787974558E+02  0.10816961246E+02  0.10701024775E+03  0.00000000000E+00 0. -1.
<scales pt_clust_5="13000.00000" pt_clust_6="13000.00000" pt_clust_7="13000.00000" pt_clust_8="13000.00000" pt_clust_9="106.46214"></scales>
<clustering>
<clus scale="   76.364">  5  6 -1 -1</clus>
<clus scale="   92.568">  7  8 -1 -1</clus>
<clus scale="  106.462">  1  9  2 -1</clus>
<clus scale="  115.709">  1  5  2 -1</clus>
<clus scale="  106.462">  1  5  2 -1</clus>
</clustering>
</event>
<event>
 9    2  0.1488992E-004  0.1309166E+03  0.7546771E-02  0.1229163E+00
         -1   -1    0    0    0  501 -0.00000000000E+00  0.00000000000E+00  0.24349379342E+03  0.24349379342E+03  0.00000000000E+00 0.  1.
         21   -1    0    0  501  502  0.00000000000E+00 -0.00000000000E+00 -0.29604022042E+03  0.29604022042E+03  0.00000000000E+00 0. -1.
         24    2    1    2    0    0 -0.87109431613E+02  0.42301664773E+02  0.18785900702E+03  0.22639094711E+03  0.81144134072E+02 0.  0.
         23    2    1    2    0    0  0.75238500827E+02  0.31575696553E+02 -0.12669064635E+03  0.17701872487E+03  0.92883004160E+02 0.  0.
        -13    1    3    3    0    0 -0.71910774161E+02  0.52102149775E+02  0.18842017218E+03  0.20829775499E+03  0.00000000000E+00 0.  1.
         14    1    3    3    0    0 -0.15198657452E+02 -0.98004850022E+01 -0.56116515379E+00  0.18093192116E+02  0.00000000000E+00 0. -1.
        -13    1    4    4    0    0 -0.14220918290E+02  0.29240768947E+02 -0.21833999747E+02  0.39166064783E+02  0.00000000000E+00 0.  1.
         13    1    4    4    0    0  0.89459419117E+02  0.23349276055E+01 -0.10485664660E+03  0.13785266008E+03  0.00000000000E+00 0. -1.
         -2    1    1    2    0  502  0.11870930786E+02 -0.73877361326E+02 -0.11371478767E+03  0.13612434186E+03  0.00000000000E+00 0.  1.
<scales pt_clust_5="13000.00000" pt_clust_6="13000.00000" pt_clust_7="13000.00000" pt_clust_8="13000.00000" pt_clust_9="74.82502"></scales>
<clustering>
<clus scale="   74.825">  2  9  1 -1</clus>
<clus scale="   81.144">  5  6 -1 -1</clus>
<clus scale="   92.883">  7  8 -1 -1</clus>
<clus scale="  122.867">  1  5  2 -1</clus>
<clus scale="   74.825">  2  5  1 -1</clus>
</clustering>
</event>
<event>
 9    2  0.1488992E-004  0.1249759E+03  0.7546771E-02  0.1240606E+00
          4   -1    0    0  502    0 -0.00000000000E+00  0.00000000000E+00  0.83831190400E+02  0.83831190400E+02  0.00000000000E+00 0. -1.
         21   -1    0    0  501  502  0.00000000000E+00 -0.00000000000E+00 -0.52406037435E+03  0.52406037435E+03  0.00000000000E+00 0. -1.
         24    2    1    2    0    0  0.35089154711E+02  0.62075405553E+02 -0.73731485724E+02  0.15034084530E+03  0.10991557226E+03 0.  0.
         23    2    1    2    0    0  0.61130046034E+02 -0.46994837942E+02 -0.33284290783E+03  0.35450605424E+03  0.94576656117E+02 0.  0.
        -13    1    3    3    0    0 -0.16112256478E+02 -0.22871489813E+02 -0.22203539560E+01  0.28064921642E+02  0.00000000000E+00 0.  1.
         14    1    3    3    0    0  0.51201411189E+02  0.84946895365E+02 -0.71511131768E+02  0.12227592366E+03  0.00000000000E+00 0. -1.
        -13    1    4    4    0    0  0.70375702529E+02  0.22753578011E+01 -0.22090993036E+03  0.23186011751E+03  0.00000000000E+00 0.  1.
         13    1    4    4    0    0 -0.92456564951E+01 -0.49270195743E+02 -0.11193297747E+03  0.12264593673E+03  0.00000000000E+00 0. -1.
          3    1    1    2  501    0 -0.96219200745E+02 -0.15080567611E+02 -0.33654790405E+02  0.10304466521E+03  0.00000000000E+00 0. -1.
<scales pt_clust_5="13000.00000" pt_clust_6="13000.00000" pt_clust_7="13000.00000" pt_clust_8="13000.00000" pt_clust_9="97.39388"></scales>
<clustering>
<clus scale="   94.577">  7  8 -1 -1</clus>
<clus scale="   97.394">  2  9  1 -1</clus>
<clus scale="  109.916">  5  6 -1 -1</clus>
<clus scale="  111.724">  2  7  1 -1</clus>
<clus scale="   97.394">  2  5  1 -1</clus>
</clustering>
</event>
<event>
 9    2  0.1488992E-004  0.1454574E+03  0.7546771E-02  0.1207512E+00
          2   -1    0    0  502    0 -0.00000000000E+00  0.00000000000E+00  0.10166625548E+04  0.10166625548E+04  0.00000000000E+00 0. -1.
         21   -1    0    0  501  502  0.00000000000E+00 -0.00000000000E+00 -0.10962600719E+03  0.10962600719E+03  0.00000000000E+00 0. -1.
         24    2    1    2    0    0  0.10850416808E+03  0.28403207817E+02  0.80328382928E+03  0.81507002150E+03  0.80587423758E+02 0.  0.
         23    2    1    2    0    0 -0.12703908033E+03 -0.60950345830E+02  0.16845639333E+03  0.23645608519E+03  0.87635901215E+02 0.  0.
        -11    1    3    3    0    0  0.69761769057E+02 -0.13585178975E+02  0.28849041389E+03  0.29711610595E+03  0.00000000000E+00 0.  1.
         12    1    3    3    0    0  0.38742399025E+02  0.41988386792E+02  0.51479341539E+03  0.51795391555E+03  0.00000000000E+00 0. -1.
        -13    1    4    4    0    0 -0.10282593280E+03 -0.11269708530E+02  0.14063738112E+03  0.17458250701E+03  0.00000000000E+00 0.  1.
         13    1    4    4    0    0 -0.24213147532E+02 -0.49680637300E+02  0.27819012201E+02  0.61873578172E+02  0.00000000000E+00 0. -1.
          1    1    1    2  501    0  0.18534912246E+02  0.32547138013E+02 -0.64703674991E+02  0.74762455298E+02  0.00000000000E+00 0. -1.
<scales pt_clust_5="13000.00000" pt_clust_6="13000.00000" pt_clust_7="13000.00000" pt_clust_8="13000.00000" pt_clust_9="37.45476"></scales>
<clustering>
<clus scale="   37.455">  2  9  1 -1</clus>
<clus scale="   80.587">  5  6 -1 -1</clus>
<clus scale="   87.636">  7  8 -1 -1</clus>
<clus scale="  141.323">  1  5  2 -1</clus>
<clus scale="   37.455">  2  5  1 -1</clus>
</clustering>
</event>
<event>
 9    2  0.1488992E-004  0.1738486E+03  0.7546771E-02  0.1187673E+00
         21   -1    0    0  501  502  0.00000000000E+00  0.00000000000E+00  0.77436524146E+03  0.77436524146E+03  0.00000000000E+00 0.  1.
          2   -1    0    0  502    0 -0.00000000000E+00 -0.00000000000E+00 -0.10419138007E+03  0.10419138007E+03  0.00000000000E+00 0. -1.
         24    2    1    2    0    0 -0.71535070674E+02  0.74878313791E+02  0.16592914962E+03  0.20931239514E+03  0.74532998416E+02 0.  0.
         23    2    1    2    0    0 -0.64180604817E+02 -0.14376355069E+03  0.47315725582E+02  0.18763440625E+03  0.90447686411E+02 0.  0.
        -13    1    3    3    0    0 -0.73717925842E+02  0.78198815992E+02  0.11193983914E+03  0.15517704405E+03  0.00000000000E+00 0.  1.
         14    1    3    3    0    0  0.21828551674E+01 -0.33205022016E+01  0.53989310482E+02  0.54135351092E+02  0.00000000000E+00 0. -1.
        -11    1    4    4    0    0 -0.64343243061E+02 -0.12148682639E+03  0.23970081401E+01  0.13749490013E+03  0.00000000000E+00 0. -1.
         11    1    4    4    0    0  0.16263824430E+00 -0.22276724305E+02  0.44918717442E+02  0.50139506117E+02  0.00000000000E+00 0.  1.
          1    1    1    2  501    0  0.13571567549E+03  0.68885236904E+02  0.45692898619E+03  0.48160982014E+03  0.00000000000E+00 0. -1.
<scales pt_clust_5="13000.00000" pt_clust_6="13000.00000" pt_clust_7="13000.00000" pt_clust_8="13000.00000" pt_clust_9="148.46734"></scales>
<clustering>
<clus scale="   74.533">  5  6 -1 -1</clus>
<clus scale="   90.448">  7  8 -1 -1</clus>
<clus scale="  127.590">  2  5  1 -1</clus>
<clus scale="  148.467">  1  9  2 -1</clus>
<clus scale="  148.467">  1  5  2 -1</clus>
</clustering>
</event>
<event>
 9    2  0.1488992E-004  0.1110475E+03  0.7546771E-02  0.1262836E+00
         21   -1    0    0  501  502  0.00000000000E+00  0.00000000000E+00  0.30512019548E+02  0.30512019548E+02  0.00000000000E+00 0.  1.
          2   -1    0    0  502    0 -0.00000000000E+00 -0.00000000000E+00 -0.14311760269E+04  0.14311760269E+04  0.00000000000E+00 0. -1.
         24    2    1    2    0    0 -0.60803500354E+02  0.17600143325E+02 -0.12783376925E+04  0.12824623975E+04  0.80967364765E+02 0.  0.
         23    2    1    2    0    0  0.55931750090E+02  0.45307265736E+01 -0.93395873840E+02  0.14247677457E+03  0.91803888202E+02 0.  0.
        -13    1    3    3    0    0 -0.30002493198E+02  0.26993734451E+02 -0.22229886769E+03  0.22593272865E+03  0.00000000000E+00 0.  1.
         14    1    3    3    0    0 -0.30801007157E+02 -0.93935911264E+01 -0.10560388248E+04  0.10565296688E+04  0.00000000000E+00 0. -1.
        -11    1    4    4    0    0  0.47974636615E+02 -0.24263357757E+02 -0.98456120914E+02  0.11217791241E+03  0.00000000000E+00 0.  1.
         11    1    4    4    0    0  0.79571134754E+01  0.28794084331E+02  0.50602470741E+01  0.30298862153E+02  0.00000000000E+00 0. -1.
          1    1    1    2  501    0  0.48717502640E+01 -0.22130869898E+02 -0.28930440994E+02  0.36748874394E+02  0.00000000000E+00 0. -1.
<scales pt_clust_5="13000.00000" pt_clust_6="13000.00000" pt_clust_7="13000.00000" pt_clust_8="13000.00000" pt_clust_9="22.66074"></scales>
<clustering>
<clus scale="   22.661">  1  9  2 -1</clus>
<clus scale="   80.967">  5  6 -1 -1</clus>
<clus scale="   91.804">  7  8 -1 -1</clus>
<clus scale="  102.271">  2  5  1 -1</clus>
<clus scale="   22.661">  1  5  2 -1</clus>
</clustering>
</event>
<event>
 9    2  0.1488992E-004  0.1997131E+03  0.7546771E-02  0.1171131E+00
         21   -1    0    0  501  502  0.00000000000E+00  0.00000000000E+00  0.57728895653E+03  0.57728895653E+03  0.00000000000E+00 0.  1.
         -1   -1    0    0    0  501 -0.00000000000E+00 -0.00000000000E+00 -0.13672651234E+03  0.13672651234E+03  0.00000000000E+00 0.  1.
         23    2    1    2    0    0  0.72725348851E+02  0.14436168924E+02  0.19406402998E+03  0.22929017005E+03  0.97034813388E+02 0.  0.
         24    2    1    2    0    0  0.12224775304E+03  0.53254323002E+02 -0.11134042742E+02  0.15461774660E+03  0.77473509120E+02 0.  0.
        -13    1    4    4    0    0  0.11422725826E+03  0.39293810366E+02 -0.35057391937E+02  0.12578112256E+03  0.00000000000E+00 0.  1.
         14    1    4    4    0    0  0.80204947779E+01  0.13960512636E+02  0.23923349195E+02  0.28836624044E+02  0.00000000000E+00 0. -1.
        -13    1    3    3    0    0  0.92482535997E+02  0.25667923575E+02  0.17514731553E+03  0.19972091503E+03  0.00000000000E+00 0.  1.
         13    1    3    3    0    0 -0.19757187146E+02 -0.11231754651E+02  0.18916714458E+02  0.29569255018E+02  0.00000000000E+00 0. -1.
         -2    1    1    2    0  502 -0.19497310189E+03 -0.67690491926E+02  0.25763245695E+03  0.33010755222E+03  0.00000000000E+00 0.  1.
<scales pt_clust_5="13000.00000" pt_clust_6="13000.00000" pt_clust_7="13000.00000" pt_clust_8="13000.00000" pt_clust_9="184.07382"></scales>
<clustering>
<clus scale="   77.474">  5  6 -1 -1</clus>
<clus scale="   97.035">  7  8 -1 -1</clus>
<clus scale="  122.119">  2  7  1 -1</clus>
<clus scale="  184.074">  1  9  2 -1</clus>
<clus scale="  184.074">  1  5  2 -1</clus>
</clustering>
</event>
<event>
 9    2  0.1488992E-004  0.1002682E+03  0.7546771E-02  0.1283450E+00
          2   -1    0    0  502    0 -0.00000000000E+00  0.00000000000E+00  0.10906962350E+04  0.10906962350E+04  0.00000000000E+00 0. -1.
         21   -1    0    0  501  502  0.00000000000E+00 -0.00000000000E+00 -0.19735774870E+02  0.19735774870E+02  0.00000000000E+00 0. -1.
         24    2    1    2    0    0 -0.23792937564E+02  0.38323832644E+02  0.85926272303E+03  0.86450270007E+03  0.83652084281E+02 0.  0.
         23    2    1    2    0    0  0.13986874962E+02 -0.16181860942E+02  0.12688907310E+03  0.15773103736E+03  0.91218188850E+02 0.  0.
        -13    1    3    3    0    0 -0.31647967852E+02 -0.15557843038E+02  0.20806580217E+03  0.21103321630E+03  0.00000000000E+00 0.  1.
         14    1    3    3    0    0  0.78550302875E+01  0.53881675682E+02  0.65119692086E+03  0.65346948377E+03  0.00000000000E+00 0. -1.
        -11    1    4    4    0    0 -0.80331178827E+01  0.35715214119E+02  0.59628387797E+02  0.69968936920E+02  0.00000000000E+00 0. -1.
         11    1    4    4    0    0  0.22019992845E+02 -0.51897075061E+02  0.67260685308E+02  0.87762100436E+02  0.00000000000E+00 0.  1.
          1    1    1    2  501    0  0.98060626023E+01 -0.22141971701E+02  0.84808664029E+02  0.88198272483E+02  0.00000000000E+00 0. -1.
<scales pt_clust_5="13000.00000" pt_clust_6="13000.00000" pt_clust_7="13000.00000" pt_clust_8="13000.00000" pt_clust_9="24.21623"></scales>
<clustering>
<clus scale="   24.216">  2  9  1 -1</clus>
<clus scale="   83.652">  5  6 -1 -1</clus>
<clus scale="   91.218">  7  8 -1 -1</clus>
<clus scale="   93.438">  1  5  2 -1</clus>
<clus scale="   24.216">  2  5  1 -1</clus>
</clustering>
</event>
<event>
 9    2  0.1488992E-004  0.1396197E+03  0.7546771E-02  0.1217633E+00
          2   -1    0    0  502    0 -0.00000000000E+00  0.00000000000E+00  0.81767089902E+02  0.81767089902E+02  0.00000000000E+00 0. -1.
         21   -1    0    0  501  502  0.00000000000E+00 -0.00000000000E+00 -0.33808985102E+03  0.33808985102E+03  0.00000000000E+00 0. -1.
         23    2    1    2    0    0 -0.70998297316E+02 -0.88892784093E+02 -0.28517876693E+02  0.14881733917E+03  0.91600468680E+02 0.  0.
         24    2    1    2    0    0  0.42984873465E+02  0.74810449267E+02 -0.19420170151E+03  0.22508051154E+03  0.74179735393E+02 0.  0.
        -13    1    4    4    0    0 -0.13489533325E+02  0.24995260786E+02 -0.18435096547E+02  0.33861236773E+02  0.00000000000E+00 0.  1.
         14    1    4    4    0    0  0.56474406789E+02  0.49815188482E+02 -0.17576660496E+03  0.19121927477E+03  0.00000000000E+00 0. -1.
        -13    1    3    3    0    0 -0.46379474788E+02 -0.19318619300E+02 -0.51076208969E+02  0.71645264016E+02  0.00000000000E+00 0.  1.
         13    1    3    3    0    0 -0.24618822528E+02 -0.69574164793E+02  0.22558332275E+02  0.77172075159E+02  0.00000000000E+00 0. -1.
          1    1    1    2  501    0  0.28013423852E+02  0.14082334825E+02 -0.33603182922E+02  0.45959090205E+02  0.00000000000E+00 0. -1.
<scales pt_clust_5="13000.00000" pt_clust_6="13000.00000" pt_clust_7="13000.00000" pt_clust_8="13000.00000" pt_clust_9="31.35385"></scales>
<clustering>
<clus scale="   31.354">  2  9  1 -1</clus>
<clus scale="   74.180">  5  6 -1 -1</clus>
<clus scale="   91.600">  7  8 -1 -1</clus>
<clus scale="  128.863">  2  5  1 -1</clus>
<clus scale="   31.354">  2  5  1 -1</clus>
</clustering>
</event>
<event>
 9    2  0.1488992E-004  0.1062821E+03  0.7546771E-02  0.1272072E+00
          2   -1    0    0  502    0 -0.00000000000E+00  0.00000000000E+00  0.47602111996E+03  0.47602111996E+03  0.00000000000E+00 0. -1.
         21   -1    0    0  501  502  0.00000000000E+00 -0.00000000000E+00 -0.51709521122E+02  0.51709521122E+02  0.00000000000E+00 0. -1.
         23    2    1    2    0    0 -0.23244858781E+02  0.25923715856E+02  0.20243751458E+03  0.22493669808E+03  0.91669015115E+02 0.  0.
         24    2    1    2    0    0  0.13618960564E+02 -0.10048600320E+03  0.15379909778E+03  0.20137206965E+03  0.81324258554E+02 0.  0.
        -11    1    4    4    0    0  0.25099282795E+02  0.28447949160E+01  0.39262594947E+02  0.46686381493E+02  0.00000000000E+00 0.  1.
         12    1    4    4    0    0 -0.11480322232E+02 -0.10333079812E+03  0.11453650283E+03  0.15468568815E+03  0.00000000000E+00 0. -1.
        -11    1    3    3    0    0  0.34890731379E+02  0.14053810265E+02  0.95501926405E+02  0.10264253829E+03  0.00000000000E+00 0.  1.
         11    1    3    3    0    0 -0.58135590160E+02  0.11869905591E+02  0.10693558817E+03  0.12229415979E+03  0.00000000000E+00 0. -1.
          1    1    1    2  501    0  0.96258982173E+01  0.74562287344E+02  0.68074986484E+02  0.10142187336E+03  0.00000000000E+00 0. -1.
<scales pt_clust_5="13000.00000" pt_clust_6="13000.00000" pt_clust_7="13000.00000" pt_clust_8="13000.00000" pt_clust_9="75.18107"></scales>
<clustering>
<clus scale="   75.181">  2  9  1 -1</clus>
<clus scale="   81.324">  5  6 -1 -1</clus>
<clus scale="   91.669">  7  8 -1 -1</clus>
<clus scale="   97.500">  2  5  1 -1</clus>
<clus scale="   75.181">  2  5  1 -1</clus>
</clustering>
</event>
<event>
 9    2  0.1488992E-004  0.2855931E+03  0.7546771E-02  0.1098880E+00
          2   -1    0    0  502    0 -0.00000000000E+00  0.00000000000E+00  0.30780405475E+03  0.30780405475E+03  0.00000000000E+00 0. -1.
         21   -1    0    0  501  502  0.00000000000E+00 -0.00000000000E+00 -0.73487918898E+03  0.73487918898E+03  0.00000000000E+00 0.  1.
         23    2    1    2    0    0 -0.18554104293E+03 -0.12823100472E+03  0.64375079453E+02  0.25118766374E+03  0.89902293499E+02 0.  0.
         24    2    1    2    0    0  0.75920350785E+02 -0.22478946519E+03 -0.21338236640E+03  0.32893544767E+03  0.79826631652E+02 0.  0.
        -13    1    4    4    0    0  0.38211765400E+02 -0.19689227357E+03 -0.19100459947E+03  0.27696473318E+03  0.00000000000E+00 0.  1.
         14    1    4    4    0    0  0.37708585385E+02 -0.27897191617E+02 -0.22377766931E+02  0.51970714491E+02  0.00000000000E+00 0. -1.
        -13    1    3    3    0    0 -0.14387083626E+03 -0.72741351290E+02  0.73717981599E+01  0.16138297656E+03  0.00000000000E+00 0.  1.
         13    1    3    3    0    0 -0.41670206669E+02 -0.55489653425E+02  0.57003281294E+02  0.89804687179E+02  0.00000000000E+00 0. -1.
          1    1    1    2  501    0  0.10962069215E+03  0.35302046990E+03 -0.27806784728E+03  0.46256013232E+03  0.00000000000E+00 0. -1.
<scales pt_clust_5="13000.00000" pt_clust_6="13000.00000" pt_clust_7="13000.00000" pt_clust_8="13000.00000" pt_clust_9="274.21012"></scales>
<clustering>
<clus scale="   79.827">  5  6 -1 -1</clus>
<clus scale="   89.902">  7  8 -1 -1</clus>
<clus scale="  242.798">  1  7  2 -1</clus>
<clus scale="  274.210">  2  9  1 -1</clus>
<clus scale="  274.210">  2  5  1 -1</clus>
</clustering>
</event>
<event>
 9    2  0.1488992E-004  0.1053198E+03  0.7546771E-02  0.1274111E+00
         21   -1    0    0  501  502  0.00000000000E+00  0.00000000000E+00  0.30593900544E+02  0.30593900544E+02  0.00000000000E+00 0.  1.
          2   -1    0    0  502    0 -0.00000000000E+00 -0.00000000000E+00 -0.80618196876E+03  0.80618196876E+03  0.00000000000E+00 0. -1.
         24    2    1    2    0    0 -0.47561482082E+02  0.30256321466E+02 -0.60861216738E+03  0.61650779253E+03  0.80594965122E+02 0.  0.
         23    2    1    2    0    0  0.45335306373E+02  0.43190770362E+00 -0.15846935318E+03  0.18834497196E+03  0.91136249749E+02 0.  0.
        -11    1    3    3    0    0  0.13466852111E+02  0.33122441856E+02 -0.17526449211E+03  0.17887452154E+03  0.00000000000E+00 0.  1.
         12    1    3    3    0    0 -0.61028334193E+02 -0.28661203892E+01 -0.43334767527E+03  0.43763327099E+03  0.00000000000E+00 0. -1.
        -13    1    4    4    0    0  0.69375668911E+02 -0.43993053063E+01 -0.14392890957E+03  0.15983700552E+03  0.00000000000E+00 0. -1.
         13    1    4    4    0    0 -0.24040362538E+02  0.48312130099E+01 -0.14540443602E+02  0.28507966435E+02  0.00000000000E+00 0.  1.
          1    1    1    2  501    0  0.22261757091E+01 -0.30688229170E+02 -0.85065476623E+01  0.31923104815E+02  0.00000000000E+00 0. -1.
<scales pt_clust_5="13000.00000" pt_clust_6="13000.00000" pt_clust_7="13000.00000" pt_clust_8="13000.00000" pt_clust_9="30.76887"></scales>
<clustering>
<clus scale="   30.769">  1  9  2 -1</clus>
<clus scale="   80.595">  5  6 -1 -1</clus>
<clus scale="   91.136">  7  8 -1 -1</clus>
<clus scale="   96.343">  2  5  1 -1</clus>
<clus scale="   30.769">  1  5  2 -1</clus>
</clustering>
</event>
<event>
 9    2  0.1488992E-004  0.9878431E+02  0.7546771E-02  0.1288990E+00
          2   -1    0    0  502    0 -0.00000000000E+00  0.00000000000E+00  0.37815570956E+03  0.37815570956E+03  0.00000000000E+00 0. -1.
         21   -1    0    0  501  502  0.00000000000E+00 -0.00000000000E+00 -0.10194958015E+03  0.10194958015E+03  0.00000000000E+00 0. -1.
         23    2    1    2    0    0  0.42803837010E+02 -0.95146846808E+01  0.32462861301E+03  0.33969559933E+03  0.89925892464E+02 0.  0.
         24    2    1    2    0    0 -0.47602123555E+01  0.24323480659E+02 -0.55671500035E+02  0.98946862991E+02  0.77954309994E+02 0.  0.
        -13    1    4    4    0    0 -0.31047537189E+02 -0.10715150291E+01  0.14866501345E+01  0.31101572928E+02  0.00000000000E+00 0.  1.
         14    1    4    4    0    0  0.26287324834E+02  0.25394995688E+02 -0.57158150169E+02  0.67845290063E+02  0.00000000000E+00 0. -1.
        -11    1    3    3    0    0 -0.22118081440E+02  0.17510101664E+02  0.12173370445E+03  0.12495962543E+03  0.00000000000E+00 0.  1.
         11    1    3    3    0    0  0.64921918449E+02 -0.27024786345E+02  0.20289490855E+03  0.21473597391E+03  0.00000000000E+00 0. -1.
          1    1    1    2  501    0 -0.38043624654E+02 -0.14808795978E+02  0.72490164340E+01  0.41462827381E+02  0.00000000000E+00 0. -1.
<scales pt_clust_5="13000.00000" pt_clust_6="13000.00000" pt_clust_7="13000.00000" pt_clust_8="13000.00000" pt_clust_9="40.82423"></scales>
<clustering>
<clus scale="   40.824">  2  9  1 -1</clus>
<clus scale="   77.954">  5  6 -1 -1</clus>
<clus scale="   88.026">  2  5  1 -1</clus>
<clus scale="   89.926">  7  8 -1 -1</clus>
<clus scale="   40.824">  2  5  1 -1</clus>
</clustering>
</event>
<event>
 9    2  0.1488992E-004  0.1306482E+03  0.7546771E-02  0.1230286E+00
          2   -1    0    0  502    0 -0.00000000000E+00  0.00000000000E+00  0.95115850310E+03  0.95115850310E+03  0.00000000000E+00 0. -1.
         21   -1    0    0  501  502  0.00000000000E+00 -0.00000000000E+00 -0.31236542576E+02  0.31236542576E+02  0.00000000000E+00 0.  1.
         23    2    1    2    0    0  0.10445763103E+03 -0.40493383398E+02  0.34438998146E+03  0.37435863929E+03  0.94809391416E+02 0.  0.
         24    2    1    2    0    0 -0.73762574550E+02 -0.86102324850E+01  0.20021948004E+03  0.22828277111E+03  0.80685375935E+02 0.  0.
        -11    1    4    4    0    0 -0.21012450107E+02 -0.21245269671E+02  0.11658375180E+02  0.32074947463E+02  0.00000000000E+00 0.  1.
         12    1    4    4    0    0 -0.52750124443E+02  0.12635037186E+02  0.18856110487E+03  0.19620782365E+03  0.00000000000E+00 0. -1.
        -11    1    3    3    0    0  0.11660498701E+03 -0.23587165726E+02  0.32428156281E+03  0.34541512613E+03  0.00000000000E+00 0.  1.
         11    1    3    3    0    0 -0.12147355981E+02 -0.16906217672E+02  0.20108418655E+02  0.28943513160E+02  0.00000000000E+00 0. -1.
          1    1    1    2  501    0 -0.30695056478E+02  0.49103615883E+02  0.37531249902E+03  0.37975363527E+03  0.00000000000E+00 0. -1.
<scales pt_clust_5="13000.00000" pt_clust_6="13000.00000" pt_clust_7="13000.00000" pt_clust_8="13000.00000" pt_clust_9="57.90816"></scales>
<clustering>
<clus scale="   57.908">  2  9  1 -1</clus>
<clus scale="   80.685">  5  6 -1 -1</clus>
<clus scale="   94.809">  7  8 -1 -1</clus>
<clus scale="  120.790">  2  5  1 -1</clus>
<clus scale="   57.908">  2  5  1 -1</clus>
</clustering>
</event>
<event>
 9    2  0.1488992E-004  0.2235669E+03  0.7546771E-02  0.1131951E+00
         21   -1    0    0  501  502  0.00000000000E+00  0.00000000000E+00  0.11024711015E+03  0.11024711015E+03  0.00000000000E+00 0. -1.
          2   -1    0    0  502    0 -0.00000000000E+00 -0.00000000000E+00 -0.61918042528E+03  0.61918042528E+03  0.00000000000E+00 0. -1.
         24    2    1    2    0    0  0.19750101717E+03 -0.83558516309E+02 -0.34655513835E+03  0.41551829018E+03  0.81032759553E+02 0.  0.
         23    2    1    2    0    0 -0.18321115784E+03  0.36605668334E+02 -0.89860751040E+02  0.22634471448E+03  0.90833209170E+02 0.  0.
        -13    1    3    3    0    0  0.66891325838E+02 -0.67061666550E+02 -0.11330432885E+03  0.14768069450E+03  0.00000000000E+00 0.  1.
         14    1    3    3    0    0  0.13060969133E+03 -0.16496849760E+02 -0.23325080951E+03  0.26783759567E+03  0.00000000000E+00 0. -1.
        -13    1    4    4    0    0 -0.94797258188E+02  0.22910753149E+02 -0.95762953863E+02  0.13668198895E+03  0.00000000000E+00 0.  1.
         13    1    4    4    0    0 -0.88413899647E+02  0.13694915186E+02  0.59022028227E+01  0.89662725538E+02  0.00000000000E+00 0. -1.
          1    1    1    2  501    0 -0.14289859332E+02  0.46952847975E+02 -0.72517425738E+02  0.87564530766E+02  0.00000000000E+00 0. -1.
<scales pt_clust_5="13000.00000" pt_clust_6="13000.00000" pt_clust_7="13000.00000" pt_clust_8="13000.00000" pt_clust_9="49.07925"></scales>
<clustering>
<clus scale="   49.079">  1  9  2 -1</clus>
<clus scale="   81.033">  5  6 -1 -1</clus>
<clus scale="   90.833">  7  8 -1 -1</clus>
<clus scale="  219.768">  2  5  1 -1</clus>
<clus scale="   49.079">  1  5  2 -1</clus>
</clustering>
</event>
<event>
 9    2  0.1488992E-004  0.1168227E+03  0.7546771E-02  0.1251623E+00
         21   -1    0    0  501  502  0.00000000000E+00  0.00000000000E+00  0.72635565041E+02  0.72635565041E+02  0.00000000000E+00 0.  1.
          2   -1    0    0  502    0 -0.00000000000E+00 -0.00000000000E+00 -0.36400004131E+03  0.36400004131E+03  0.00000000000E+00 0. -1.
         24    2    1    2    0    0  0.63480687592E+02  0.45880338902E+02 -0.26996030988E+03  0.29246783065E+03  0.80771652548E+02 0.  0.
         23    2    1    2    0    0 -0.41721901785E+02 -0.32432796982E+02  0.82973972230E+01  0.10497002036E+03  0.90317523020E+02 0.  0.
        -13    1    3    3    0    0  0.23179298342E+02  0.90196708808E+01 -0.99589754738E+01  0.26792079556E+02  0.00000000000E+00 0.  1.
         14    1    3    3    0    0  0.40301389250E+02  0.36860668021E+02 -0.26000133441E+03  0.26567575109E+03  0.00000000000E+00 0. -1.
        -11    1    4    4    0    0  0.26676303411E+02 -0.21629372291E+02  0.97780278388E+01  0.35708048641E+02  0.00000000000E+00 0.  1.
         11    1    4    4    0    0 -0.68398205195E+02 -0.10803424691E+02 -0.14806306158E+01  0.69261971716E+02  0.00000000000E+00 0. -1.
          1    1    1    2  501    0 -0.21758785808E+02 -0.13447541920E+02 -0.29701563605E+02  0.39197755346E+02  0.00000000000E+00 0. -1.
<scales pt_clust_5="13000.00000" pt_clust_6="13000.00000" pt_clust_7="13000.00000" pt_clust_8="13000.00000" pt_clust_9="25.57893"></scales>
<clustering>
<clus scale="   25.579">  1  9  2 -1</clus>
<clus scale="   80.772">  5  6 -1 -1</clus>
<clus scale="   90.318">  7  8 -1 -1</clus>
<clus scale="  109.610">  2  5  1 -1</clus>
<clus scale="   25.579">  1  5  2 -1</clus>
</clustering>
</event>
<event>
 9    2  0.1488992E-004  0.1699614E+03  0.7546771E-02  0.1204841E+00
          2   -1    0    0  502    0 -0.00000000000E+00  0.00000000000E+00  0.16960667021E+04  0.16960667021E+04  0.00000000000E+00 0. -1.
         21   -1    0    0  501  502  0.00000000000E+00 -0.00000000000E+00 -0.49083395255E+02  0.49083395255E+02  0.00000000000E+00 0. -1.
         23    2    1    2    0    0  0.18850132596E+02  0.13778223056E+02  0.11637437788E+03  0.14948312422E+03  0.90868265481E+02 0.  0.
         24    2    1    2    0    0 -0.79265269261E+02  0.12147775998E+03  0.13574780882E+04  0.13678107516E+04  0.84378095565E+02 0.  0.
        -13    1    4    4    0    0 -0.15672807503E+02  0.54907953180E+02  0.24661055331E+03  0.25313491506E+03  0.00000000000E+00 0.  1.
         14    1    4    4    0    0 -0.63592461758E+02  0.66569806798E+02  0.11108675349E+04  0.11146758365E+04  0.00000000000E+00 0. -1.
        -13    1    3    3    0    0  0.19905718916E+02  0.51950234589E+02  0.68864445973E+02  0.88528958192E+02  0.00000000000E+00 0. -1.
         13    1    3    3    0    0 -0.10555863204E+01 -0.38172011533E+02  0.47509931904E+02  0.60954166030E+02  0.00000000000E+00 0.  1.
          1    1    1    2  501    0  0.60415136665E+02 -0.13525598303E+03  0.17313084070E+03  0.22785622152E+03  0.00000000000E+00 0. -1.
<scales pt_clust_5="13000.00000" pt_clust_6="13000.00000" pt_clust_7="13000.00000" pt_clust_8="13000.00000" pt_clust_9="147.53718"></scales>
<clustering>
<clus scale="   84.378">  5  6 -1 -1</clus>
<clus scale="   90.868">  7  8 -1 -1</clus>
<clus scale="   93.820">  1  7  2 -1</clus>
<clus scale="  147.537">  2  9  1 -1</clus>
<clus scale="  147.537">  2  5  1 -1</clus>
</clustering>
</event>
<event>
 9    2  0.1488992E-004  0.1098797E+03  0.7546771E-02  0.1265691E+00
         21   -1    0    0  501  502  0.00000000000E+00  0.00000000000E+00  0.70190973002E+03  0.70190973002E+03  0.00000000000E+00 0.  1.
          4   -1    0    0  502    0 -0.00000000000E+00 -0.00000000000E+00 -0.25771489797E+02  0.25771489797E+02  0.00000000000E+00 0. -1.
         23    2    1    2    0    0 -0.45186856314E+02  0.15900663559E+02  0.19978372036E+03  0.22520266897E+03  0.92238951136E+02 0.  0.
         24    2    1    2    0    0  0.81220746810E+02 -0.19884725489E+02  0.41844987040E+03  0.43416118524E+03  0.80021426574E+02 0.  0.
        -11    1    4    4    0    0  0.39393186951E+02  0.28943110754E+02  0.22700818850E+03  0.23221163727E+03  0.00000000000E+00 0.  1.
         12    1    4    4    0    0  0.41827559858E+02 -0.48827836243E+02  0.19144168190E+03  0.20194954797E+03  0.00000000000E+00 0. -1.
        -13    1    3    3    0    0  0.16408750906E+02 -0.16656592703E+02  0.15148077947E+02  0.27859530726E+02  0.00000000000E+00 0.  1.
         13    1    3    3    0    0 -0.61595607221E+02  0.32557256263E+02  0.18463564241E+03  0.19734313824E+03  0.00000000000E+00 0. -1.
          3    1    1    2  501    0 -0.36033890495E+02  0.39840619298E+01  0.57904649473E+02  0.68317365613E+02  0.00000000000E+00 0. -1.
<scales pt_clust_5="13000.00000" pt_clust_6="13000.00000" pt_clust_7="13000.00000" pt_clust_8="13000.00000" pt_clust_9="36.25349"></scales>
<clustering>
<clus scale="   36.253">  1  9  2 -1</clus>
<clus scale="   80.021">  5  6 -1 -1</clus>
<clus scale="   92.239">  7  8 -1 -1</clus>
<clus scale="   99.845">  1  5  2 -1</clus>
<clus scale="   36.253">  1  5  2 -1</clus>
</clustering>
</event>
<event>
 9    2  0.1488992E-004  0.1304637E+03  0.7546771E-02  0.1248505E+00
         21   -1    0    0  501  502  0.00000000000E+00  0.00000000000E+00  0.34625454919E+02  0.34625454919E+02  0.00000000000E+00 0. -1.
          2   -1    0    0  502    0 -0.00000000000E+00 -0.00000000000E+00 -0.84561827501E+03  0.84561827501E+03  0.00000000000E+00 0. -1.
         24    2    1    2    0    0 -0.21887014453E+02  0.14122801250E+02 -0.37153396349E+03  0.38085755018E+03  0.79602089052E+02 0.  0.
         23    2    1    2    0    0 -0.73151787722E+02  0.13766578250E+02 -0.33565607943E+03  0.35591071859E+03  0.92014853280E+02 0.  0.
        -11    1    3    3    0    0  0.19257203588E+02 -0.15987095099E+02 -0.57490904575E+02  0.62702720902E+02  0.00000000000E+00 0.  1.
         12    1    3    3    0    0 -0.41144218041E+02  0.30109896349E+02 -0.31404305892E+03  0.31815482928E+03  0.00000000000E+00 0. -1.
        -13    1    4    4    0    0 -0.45643914599E+02 -0.26659347388E+02 -0.81830705356E+02  0.97418438101E+02  0.00000000000E+00 0. -1.
         13    1    4    4    0    0 -0.27507873123E+02  0.40425925638E+02 -0.25382537407E+03  0.25849228048E+03  0.00000000000E+00 0.  1.
          1    1    1    2  501    0  0.95038802175E+02 -0.27889379500E+02 -0.10380277717E+03  0.14347546116E+03  0.00000000000E+00 0. -1.
<scales pt_clust_5="13000.00000" pt_clust_6="13000.00000" pt_clust_7="13000.00000" pt_clust_8="13000.00000" pt_clust_9="92.48801"></scales>
<clustering>
<clus scale="   79.602">  5  6 -1 -1</clus>
<clus scale="   83.756">  2  5  1 -1</clus>
<clus scale="   92.015">  7  8 -1 -1</clus>
<clus scale="   92.488">  1  9  2 -1</clus>
<clus scale="   92.488">  1  5  2 -1</clus>
</clustering>
</event>
<event>
 9    2  0.1488992E-004  0.9359467E+02  0.7546771E-02  0.1300116E+00
         21   -1    0    0  501  502  0.00000000000E+00  0.00000000000E+00  0.37567491538E+03  0.37567491538E+03  0.00000000000E+00 0. -1.
          2   -1    0    0  502    0 -0.00000000000E+00 -0.00000000000E+00 -0.59049063826E+02  0.59049063826E+02  0.00000000000E+00 0. -1.
         24    2    1    2    0    0 -0.24521685974E+02  0.64984336307E+00  0.27606506014E+02  0.88770089581E+02  0.80723443005E+02 0.  0.
         23    2    1    2    0    0 -0.15146693543E+01 -0.50752062783E+02  0.84665704847E+02  0.13394319495E+03  0.90523100905E+02 0.  0.
        -11    1    3    3    0    0  0.27518211510E+02  0.95044327579E+01 -0.18386197827E+00  0.29113914405E+02  0.00000000000E+00 0.  1.
         12    1    3    3    0    0 -0.52039897484E+02 -0.88545893948E+01  0.27790367992E+02  0.59656175176E+02  0.00000000000E+00 0. -1.
        -11    1    4    4    0    0  0.41109134982E+02 -0.44087108262E+02  0.43731161873E+02  0.74471797432E+02  0.00000000000E+00 0.  1.
         11    1    4    4    0    0 -0.42623804336E+02 -0.66649545208E+01  0.40934542973E+02  0.59471397523E+02  0.00000000000E+00 0. -1.
          1    1    1    2  501    0  0.26036355328E+02  0.50102219420E+02  0.20435364070E+03  0.21201069467E+03  0.00000000000E+00 0. -1.
<scales pt_clust_5="13000.00000" pt_clust_6="13000.00000" pt_clust_7="13000.00000" pt_clust_8="13000.00000" pt_clust_9="56.46348"></scales>
<clustering>
<clus scale="   56.463">  1  9  2 -1</clus>
<clus scale="   80.723">  5  6 -1 -1</clus>
<clus scale="   84.153">  2  5  1 -1</clus>
<clus scale="   90.523">  7  8 -1 -1</clus>
<clus scale="   56.463">  1  5  2 -1</clus>
</clustering>
</event>
<event>
 9    2  0.1488992E-004  0.1462700E+03  0.7546771E-02  0.1207975E+00
          2   -1    0    0  502    0 -0.00000000000E+00  0.00000000000E+00  0.13748721024E+04  0.13748721024E+04  0.00000000000E+00 0. -1.
         21   -1    0    0  501  502  0.00000000000E+00 -0.00000000000E+00 -0.28286243962E+02  0.28286243962E+02  0.00000000000E+00 0.  1.
         24    2    1    2    0    0  0.93234269156E+02 -0.74462241672E+02  0.10112959103E+04  0.10213743332E+04  0.79049705472E+02 0.  0.
         23    2    1    2    0    0 -0.85274094842E+02  0.30404726949E+02  0.19373697966E+03  0.23331963406E+03  0.93316213382E+02 0.  0.
        -11    1    3    3    0    0  0.60688384923E+02 -0.21240765688E+01  0.33685410921E+03  0.34228392112E+03  0.00000000000E+00 0.  1.
         12    1    3    3    0    0  0.32545884233E+02 -0.72338165104E+02  0.67444180108E+03  0.67909041207E+03  0.00000000000E+00 0. -1.
        -13    1    4    4    0    0 -0.12719186488E+02  0.17286986065E+02 -0.44003349412E+01  0.21908458178E+02  0.00000000000E+00 0.  1.
         13    1    4    4    0    0 -0.72554908354E+02  0.13117740883E+02  0.19813731460E+03  0.21141117588E+03  0.00000000000E+00 0. -1.
          1    1    1    2  501    0 -0.79601743134E+01  0.44057514724E+02  0.14155296850E+03  0.14846437913E+03  0.00000000000E+00 0. -1.
<scales pt_clust_5="13000.00000" pt_clust_6="13000.00000" pt_clust_7="13000.00000" pt_clust_8="13000.00000" pt_clust_9="44.77085"></scales>
<clustering>
<clus scale="   44.771">  2  9  1 -1</clus>
<clus scale="   79.050">  5  6 -1 -1</clus>
<clus scale="   93.316">  7  8 -1 -1</clus>
<clus scale="  137.608">  1  5  2 -1</clus>
<clus scale="   44.771">  2  5  1 -1</clus>
</clustering>
</event>
<event>
 9    2  0.1488992E-004  0.9925726E+02  0.7546771E-02  0.1286802E+00
         21   -1    0    0  501  502  0.00000000000E+00  0.00000000000E+00  0.64283424788E+02  0.64283424788E+02  0.00000000000E+00 0.  1.
          2   -1    0    0  502    0 -0.00000000000E+00 -0.00000000000E+00 -0.66095287260E+03  0.66095287260E+03  0.00000000000E+00 0. -1.
         24    2    1    2    0    0 -0.49072456590E+02  0.54945892031E+01 -0.33895429651E+03  0.35216570784E+03  0.81806932138E+02 0.  0.
         23    2    1    2    0    0 -0.45344738503E+02 -0.19114869441E+02 -0.61898811618E+01  0.10406300549E+03  0.91483719534E+02 0.  0.
        -13    1    3    3    0    0 -0.43095346306E+01  0.38250816292E+02 -0.17138884961E+03  0.17565828989E+03  0.00000000000E+00 0.  1.
         14    1    3    3    0    0 -0.44762921959E+02 -0.32756227089E+02 -0.16756544690E+03  0.17650741795E+03  0.00000000000E+00 0. -1.
        -11    1    4    4    0    0  0.14852664378E+02  0.19435188045E+02  0.15983521923E+02  0.29219875881E+02  0.00000000000E+00 0.  1.
         11    1    4    4    0    0 -0.60197402880E+02 -0.38550057486E+02 -0.22173403085E+02  0.74843129612E+02  0.00000000000E+00 0. -1.
          1    1    1    2  501    0  0.94417195093E+02  0.13620280238E+02 -0.25152527014E+03  0.26900758406E+03  0.00000000000E+00 0. -1.
<scales pt_clust_5="13000.00000" pt_clust_6="13000.00000" pt_clust_7="13000.00000" pt_clust_8="13000.00000" pt_clust_9="95.39459"></scales>
<clustering>
<clus scale="   81.807">  5  6 -1 -1</clus>
<clus scale="   91.484">  7  8 -1 -1</clus>
<clus scale="   95.395">  1  9  2 -1</clus>
<clus scale="   90.416">  2  5  1 -1</clus>
<clus scale="   95.395">  1  5  2 -1</clus>
</clustering>
</event>
<event>
 9    2  0.1488992E-004  0.1541232E+03  0.7546771E-02  0.1198007E+00
         21   -1    0    0  501  502  0.00000000000E+00  0.00000000000E+00  0.11366612070E+03  0.11366612070E+03  0.00000000000E+00 0.  1.
          2   -1    0    0  502    0 -0.00000000000E+00 -0.00000000000E+00 -0.49226956220E+03  0.49226956220E+03  0.00000000000E+00 0. -1.
         24    2    1    2    0    0  0.12438285129E+03  0.15246902398E+02 -0.23243991651E+03  0.27655063213E+03  0.82148497368E+02 0.  0.
         23    2    1    2    0    0 -0.10657358326E+03  0.68159044399E+02  0.15535530321E+01  0.15881524943E+03  0.96001489268E+02 0.  0.
        -11    1    3    3    0    0  0.57401451580E+02  0.47509856896E+02 -0.10055368587E+03  0.12515253449E+03  0.00000000000E+00 0.  1.
         12    1    3    3    0    0  0.66981399713E+02 -0.32262954499E+02 -0.13188623063E+03  0.15139809765E+03  0.00000000000E+00 0. -1.
        -13    1    4    4    0    0 -0.68908685842E+02  0.37923499181E+02  0.47721554856E+02  0.91999704198E+02  0.00000000000E+00 0.  1.
         13    1    4    4    0    0 -0.37664897418E+02  0.30235545217E+02 -0.46168001824E+02  0.66815545231E+02  0.00000000000E+00 0. -1.
          1    1    1    2  501    0 -0.17809268034E+02 -0.83405946796E+02 -0.14771707803E+03  0.17056980134E+03  0.00000000000E+00 0. -1.
<scales pt_clust_5="13000.00000" pt_clust_6="13000.00000" pt_clust_7="13000.00000" pt_clust_8="13000.00000" pt_clust_9="85.28616"></scales>
<clustering>
<clus scale="   82.148">  5  6 -1 -1</clus>
<clus scale="   85.286">  1  9  2 -1</clus>
<clus scale="   96.001">  7  8 -1 -1</clus>
<clus scale="  145.897">  2  5  1 -1</clus>
<clus scale="   85.286">  1  5  2 -1</clus>
</clustering>
</event>
<event>
 9    2  0.1488992E-004  0.1660407E+03  0.7546771E-02  0.1209660E+00
          2   -1    0    0  502    0 -0.00000000000E+00  0.00000000000E+00  0.15515764906E+03  0.15515764906E+03  0.00000000000E+00 0. -1.
         21   -1    0    0  501  502  0.00000000000E+00 -0.00000000000E+00 -0.28337653061E+03  0.28337653061E+03  0.00000000000E+00 0. -1.
         24    2    1    2    0    0  0.36263031238E+02  0.24225979808E+02  0.42502587204E+01  0.90841971809E+02  0.79575709929E+02 0.  0.
         23    2    1    2    0    0 -0.13347559585E+03  0.70327150600E+02 -0.31856574395E+02  0.17883290074E+03  0.90579921917E+02 0.  0.
        -13    1    3    3    0    0  0.29585407116E+02  0.52967814177E+02 -0.19018511548E+01  0.60700104536E+02  0.00000000000E+00 0.  1.
         14    1    3    3    0    0  0.66776241222E+01 -0.28741834368E+02  0.61521098753E+01  0.30141867273E+02  0.00000000000E+00 0. -1.
        -13    1    4    4    0    0 -0.24804443776E+02  0.17256067514E+01 -0.43174549712E+02  0.49822483805E+02  0.00000000000E+00 0.  1.
         13    1    4    4    0    0 -0.10867115207E+03  0.68601543849E+02  0.11317975316E+02  0.12901041693E+03  0.00000000000E+00 0. -1.
          1    1    1    2  501    0  0.97212564612E+02 -0.94553130408E+02 -0.10061256588E+03  0.16885930712E+03  0.00000000000E+00 0. -1.
<scales pt_clust_5="13000.00000" pt_clust_6="13000.00000" pt_clust_7="13000.00000" pt_clust_8="13000.00000" pt_clust_9="139.15740"></scales>
<clustering>
<clus scale="   79.576">  5  6 -1 -1</clus>
<clus scale="   90.580">  7  8 -1 -1</clus>
<clus scale="   90.742">  1  5  2 -1</clus>
<clus scale="  139.157">  2  9  1 -1</clus>
<clus scale="  139.157">  2  5  1 -1</clus>
</clustering>
</event>
<event>
 9    2  0.1488992E-004  0.1921600E+03  0.7546771E-02  0.1193859E+00
         -1   -1    0    0    0  501 -0.00000000000E+00  0.00000000000E+00  0.47946838346E+03  0.47946838346E+03  0.00000000000E+00 0.  1.
         21   -1    0    0  501  502  0.00000000000E+00 -0.00000000000E+00 -0.12235208914E+03  0.12235208914E+03  0.00000000000E+00 0.  1.
         24    2    1    2    0    0 -0.70551408057E+01 -0.11089356437E+02  0.16186865712E+03  0.18164645806E+03  0.81370908370E+02 0.  0.
         23    2    1    2    0    0  0.16304889164E+03 -0.50278672143E+02  0.15366527840E+03  0.24746275898E+03  0.92260031210E+02 0.  0.
        -13    1    3    3    0    0 -0.25306700701E+02  0.28221665290E+02  0.60408134612E+02  0.71316437232E+02  0.00000000000E+00 0.  1.
         14    1    3    3    0    0  0.18251559895E+02 -0.39311021727E+02  0.10146052251E+03  0.11033002083E+03  0.00000000000E+00 0. -1.
        -13    1    4    4    0    0  0.28145263366E+02  0.21506224957E+02  0.55484476844E+02  0.65827051677E+02  0.00000000000E+00 0. -1.
         13    1    4    4    0    0  0.13490362828E+03 -0.71784897100E+02  0.98180801557E+02  0.18163570731E+03  0.00000000000E+00 0.  1.
         -2    1    1    2    0  502 -0.15599375084E+03  0.61368028580E+02  0.41582358800E+02  0.17271125555E+03  0.00000000000E+00 0.  1.
<scales pt_clust_5="13000.00000" pt_clust_6="13000.00000" pt_clust_7="13000.00000" pt_clust_8="13000.00000" pt_clust_9="168.56317"></scales>
<clustering>
<clus scale="   81.371">  5  6 -1 -1</clus>
<clus scale="   82.426">  1  5  2 -1</clus>
<clus scale="   92.260">  7  8 -1 -1</clus>
<clus scale="  168.563">  2  9  1 -1</clus>
<clus scale="  168.563">  2  5  1 -1</clus>
</clustering>
</event>
<event>
 9    2  0.1488992E-004  0.1743700E+03  0.7546771E-02  0.1198819E+00
          2   -1    0    0  502    0 -0.00000000000E+00  0.00000000000E+00  0.11566182176E+04  0.11566182176E+04  0.00000000000E+00 0. -1.
         21   -1    0    0  501  502  0.00000000000E+00 -0.00000000000E+00 -0.51046511177E+02  0.51046511177E+02  0.00000000000E+00 0. -1.
         23    2    1    2    0    0  0.15586707416E+02  0.25119586638E+02  0.13102355042E+03  0.16421009997E+03  0.94466116070E+02 0.  0.
         24    2    1    2    0    0  0.14427323328E+03 -0.49840509837E+02  0.26860561776E+03  0.31921627579E+03  0.80319428390E+02 0.  0.
        -11    1    4    4    0    0  0.29595848925E+02 -0.91624527557E+01  0.86089738902E+01  0.32155547663E+02  0.00000000000E+00 0.  1.
         12    1    4    4    0    0  0.11467738435E+03 -0.40678057082E+02  0.25999664387E+03  0.28706072813E+03  0.00000000000E+00 0. -1.
        -11    1    3    3    0    0  0.31771366525E+02  0.50106019413E+02  0.11725382810E+03  0.13140963860E+03  0.00000000000E+00 0. -1.
         11    1    3    3    0    0 -0.16184659108E+02 -0.24986432775E+02  0.13769722322E+02  0.32800461370E+02  0.00000000000E+00 0.  1.
          1    1    1    2  501    0 -0.15985994069E+03  0.24720923199E+02  0.70594253821E+03  0.72423835298E+03  0.00000000000E+00 0. -1.
<scales pt_clust_5="13000.00000" pt_clust_6="13000.00000" pt_clust_7="13000.00000" pt_clust_8="13000.00000" pt_clust_9="154.76988"></scales>
<clustering>
<clus scale="   80.319">  5  6 -1 -1</clus>
<clus scale="   94.466">  7  8 -1 -1</clus>
<clus scale="   98.984">  1  7  2 -1</clus>
<clus scale="  154.770">  2  9  1 -1</clus>
<clus scale="  154.770">  2  5  1 -1</clus>
</clustering>
</event>
<event>
 9    2  0.1488992E-004  0.1917614E+03  0.7546771E-02  0.1181587E+00
          2   -1    0    0  502    0 -0.00000000000E+00  0.00000000000E+00  0.81512018029E+03  0.81512018029E+03  0.00000000000E+00 0. -1.
         21   -1    0    0  501  502  0.00000000000E+00 -0.00000000000E+00 -0.76105630764E+02  0.76105630764E+02  0.00000000000E+00 0.  1.
         24    2    1    2    0    0 -0.63152551996E+02  0.37062142724E+02  0.27520786083E+03  0.29596698836E+03  0.80593078433E+02 0.  0.
         23    2    1    2    0    0  0.13894163663E+03  0.11326686694E+03  0.29434501994E+03  0.35638635950E+03  0.90763896654E+02 0.  0.
        -11    1    3    3    0    0 -0.51994370719E+02  0.40877858704E+02  0.97194977402E+02  0.11756392963E+03  0.00000000000E+00 0.  1.
         12    1    3    3    0    0 -0.11158181277E+02 -0.38157159798E+01  0.17801288343E+03  0.17840305873E+03  0.00000000000E+00 0. -1.
        -13    1    4    4    0    0  0.23112279767E+02 -0.12958427507E+02  0.21076213974E+02  0.33857127979E+02  0.00000000000E+00 0. -1.
         13    1    4    4    0    0  0.11582935686E+03  0.12622529445E+03  0.27326880597E+03  0.32252923152E+03  0.00000000000E+00 0.  1.
          1    1    1    2  501    0 -0.75789084631E+02 -0.15032900966E+03  0.16946166876E+03  0.23887246320E+03  0.00000000000E+00 0. -1.
<scales pt_clust_5="13000.00000" pt_clust_6="13000.00000" pt_clust_7="13000.00000" pt_clust_8="13000.00000" pt_clust_9="168.92116"></scales>
<clustering>
<clus scale="   80.593">  5  6 -1 -1</clus>
<clus scale="   90.764">  7  8 -1 -1</clus>
<clus scale="  108.890">  1  5  2 -1</clus>
<clus scale="  168.921">  2  9  1 -1</clus>
<clus scale="  168.921">  2  5  1 -1</clus>
</clustering>
</event>
<event>
 9    2  0.1488992E-004  0.4015141E+03  0.7546771E-02  0.1043496E+00
         21   -1    0    0  501  502  0.00000000000E+00  0.00000000000E+00  0.23290650963E+03  0.23290650963E+03  0.00000000000E+00 0. -1.
          2   -1    0    0  502    0 -0.00000000000E+00 -0.00000000000E+00 -0.11358680198E+04  0.11358680198E+04  0.00000000000E+00 0. -1.
         23    2    1    2    0    0  0.54209144021E+02 -0.37823988172E+03 -0.52786103203E+03  0.65809405430E+03  0.91904710196E+02 0.  0.
         24    2    1    2    0    0 -0.20089154442E+03  0.36815662084E+03 -0.36794237003E+03  0.56347776714E+03  0.78923357226E+02 0.  0.
        -11    1    4    4    0    0 -0.58894726242E+01  0.70035040454E+02 -0.53671604285E+02  0.88432086290E+02  0.00000000000E+00 0.  1.
         12    1    4    4    0    0 -0.19500207180E+03  0.29812158039E+03 -0.31427076574E+03  0.47504568085E+03  0.00000000000E+00 0. -1.
        -13    1    3    3    0    0 -0.25604221156E+02 -0.89942668338E+02 -0.13769972551E+03  0.16645261829E+03  0.00000000000E+00 0.  1.
         13    1    3    3    0    0  0.79813365177E+02 -0.28829721339E+03 -0.39016130652E+03  0.49164143602E+03  0.00000000000E+00 0. -1.
          1    1    1    2  501    0  0.14668240040E+03  0.10083260884E+02 -0.71581081556E+01  0.14720270803E+03  0.00000000000E+00 0. -1.
<scales pt_clust_5="13000.00000" pt_clust_6="13000.00000" pt_clust_7="13000.00000" pt_clust_8="13000.00000" pt_clust_9="147.02856"></scales>
<clustering>
<clus scale="   78.923">  5  6 -1 -1</clus>
<clus scale="   91.905">  7  8 -1 -1</clus>
<clus scale="  147.029">  1  9  2 -1</clus>
<clus scale="  398.743">  1  5  2 -1</clus>
<clus scale="  147.029">  1  5  2 -1</clus>
</clustering>
</event>
<event>
 9    2  0.1488992E-004  0.2879296E+03  0.7546771E-02  0.1104612E+00
         21   -1    0    0  501  502  0.00000000000E+00  0.00000000000E+00  0.69316982621E+02  0.69316982621E+02  0.00000000000E+00 0. -1.
          2   -1    0    0  502    0 -0.00000000000E+00 -0.00000000000E+00 -0.24970466427E+04  0.24970466427E+04  0.00000000000E+00 0. -1.
         23    2    1    2    0    0  0.79007530124E+02  0.16563946041E+03 -0.45643088057E+03  0.50006392526E+03  0.89756113695E+02 0.  0.
         24    2    1    2    0    0 -0.32407699949E+03 -0.61968199474E+02 -0.13117672956E+04  0.13551115721E+04  0.82024237578E+02 0.  0.
        -13    1    4    4    0    0 -0.41116486807E+02 -0.12107303203E+02 -0.85603641860E+02  0.95734715636E+02  0.00000000000E+00 0.  1.
         14    1    4    4    0    0 -0.28296051268E+03 -0.49860896271E+02 -0.12261636538E+04  0.12593768564E+04  0.00000000000E+00 0. -1.
        -11    1    3    3    0    0  0.92474928230E+02  0.96503572693E+02 -0.30921863705E+03  0.33686899144E+03  0.00000000000E+00 0. -1.
         11    1    3    3    0    0 -0.13467398107E+02  0.69135887720E+02 -0.14721224352E+03  0.16319493382E+03  0.00000000000E+00 0.  1.
          1    1    1    2  501    0  0.24506946936E+03 -0.10367126094E+03 -0.65953148388E+03  0.71118812799E+03  0.00000000000E+00 0. -1.
<scales pt_clust_5="13000.00000" pt_clust_6="13000.00000" pt_clust_7="13000.00000" pt_clust_8="13000.00000" pt_clust_9="275.99906"></scales>
<clustering>
<clus scale="   82.024">  5  6 -1 -1</clus>
<clus scale="   89.756">  7  8 -1 -1</clus>
<clus scale="  204.291">  2  7  1 -1</clus>
<clus scale="  275.999">  1  9  2 -1</clus>
<clus scale="  275.999">  1  5  2 -1</clus>
</clustering>
</event>
<event>
 9    2  0.1488992E-004  0.2577963E+03  0.7546771E-02  0.1135388E+00
         21   -1    0    0  501  502  0.00000000000E+00  0.00000000000E+00  0.48876958303E+03  0.48876958303E+03  0.00000000000E+00 0.  1.
         -3   -1    0    0    0  501 -0.00000000000E+00 -0.00000000000E+00 -0.39605432077E+03  0.39605432077E+03  0.00000000000E+00 0.  1.
         24    2    1    2    0    0  0.46283072173E+02 -0.87682732621E+02 -0.15616958609E+02  0.13273001401E+03  0.86850347450E+02 0.  0.
         23    2    1    2    0    0  0.19136419496E+03  0.10427001412E+02 -0.24196461950E+03  0.32180032958E+03  0.90992293925E+02 0.  0.
        -13    1    3    3    0    0  0.21885765085E+02 -0.92679842883E+02 -0.34701560915E+02  0.10135451801E+03  0.00000000000E+00 0.  1.
         14    1    3    3    0    0  0.24397307088E+02  0.49971102621E+01  0.19084602306E+02  0.31375496001E+02  0.00000000000E+00 0. -1.
        -13    1    4    4    0    0  0.10116108985E+03 -0.19301936400E+02 -0.18306066667E+03  0.21004127816E+03  0.00000000000E+00 0. -1.
         13    1    4    4    0    0  0.90203105108E+02  0.29728937812E+02 -0.58903952833E+02  0.11175905142E+03  0.00000000000E+00 0.  1.
         -4    1    1    2    0  502 -0.23764726713E+03  0.77255731209E+02  0.35029684037E+03  0.43029356021E+03  0.00000000000E+00 0.  1.
<scales pt_clust_5="13000.00000" pt_clust_6="13000.00000" pt_clust_7="13000.00000" pt_clust_8="13000.00000" pt_clust_9="241.20397"></scales>
<clustering>
<clus scale="   86.850">  5  6 -1 -1</clus>
<clus scale="   90.992">  7  8 -1 -1</clus>
<clus scale="  131.808">  2  5  1 -1</clus>
<clus scale="  241.204">  1  9  2 -1</clus>
<clus scale="  241.204">  1  5  2 -1</clus>
</clustering>
</event>
<event>
 9    2  0.1488992E-004  0.2283772E+03  0.7546771E-02  0.1130577E+00
         21   -1    0    0  501  502  0.00000000000E+00  0.00000000000E+00  0.17485679750E+03  0.17485679750E+03  0.00000000000E+00 0.  1.
          2   -1    0    0  502    0 -0.00000000000E+00 -0.00000000000E+00 -0.72411785805E+03  0.72411785805E+03  0.00000000000E+00 0. -1.
         23    2    1    2    0    0  0.33476815707E+02 -0.20035522014E+03 -0.46983770003E+03  0.52453183769E+03  0.11455685469E+03 0.  0.
         24    2    1    2    0    0  0.36277831607E+02  0.17595058035E+03  0.69115869307E+02  0.20853561470E+03  0.80221016060E+02 0.  0.
        -11    1    4    4    0    0  0.55012098609E+02  0.16315089682E+03  0.69921326060E+02  0.18583201545E+03  0.00000000000E+00 0.  1.
         12    1    4    4    0    0 -0.18734267002E+02  0.12799683524E+02 -0.80545675306E+00  0.22703599252E+02  0.00000000000E+00 0. -1.
        -11    1    3    3    0    0  0.51390698512E+02 -0.93208604879E+02 -0.33427913450E+03  0.35081531848E+03  0.00000000000E+00 0.  1.
         11    1    3    3    0    0 -0.17913882806E+02 -0.10714661526E+03 -0.13555856553E+03  0.17371651921E+03  0.00000000000E+00 0. -1.
          1    1    1    2  501    0 -0.69754647313E+02  0.24404639791E+02 -0.14853922982E+03  0.16590720317E+03  0.00000000000E+00 0. -1.
<scales pt_clust_5="13000.00000" pt_clust_6="13000.00000" pt_clust_7="13000.00000" pt_clust_8="13000.00000" pt_clust_9="73.90063"></scales>
<clustering>
<clus scale="   73.901">  1  9  2 -1</clus>
<clus scale="   80.221">  5  6 -1 -1</clus>
<clus scale="  114.557">  7  8 -1 -1</clus>
<clus scale="  213.233">  1  5  2 -1</clus>
<clus scale="   73.901">  1  5  2 -1</clus>
</clustering>
</event>
<event>
 9    2  0.1488992E-004  0.9089488E+02  0.7546771E-02  0.1305160E+00
         21   -1    0    0  501  502  0.00000000000E+00  0.00000000000E+00  0.69882826317E+02  0.69882826317E+02  0.00000000000E+00 0. -1.
          2   -1    0    0  502    0 -0.00000000000E+00 -0.00000000000E+00 -0.19224862325E+03  0.19224862325E+03  0.00000000000E+00 0. -1.
         24    2    1    2    0    0 -0.13474005194E+02 -0.28120828453E+01 -0.94527218267E+02  0.12642321948E+03  0.82812914472E+02 0.  0.
         23    2    1    2    0    0  0.61640202155E+00  0.20015847125E+02  0.94104273247E+01  0.92710835844E+02  0.90031821334E+02 0.  0.
        -13    1    3    3    0    0 -0.45753832859E+02  0.13571532849E+02 -0.52215627967E+02  0.70739462319E+02  0.00000000000E+00 0.  1.
         14    1    3    3    0    0  0.32279827666E+02 -0.16383615694E+02 -0.42311590300E+02  0.55683757156E+02  0.00000000000E+00 0. -1.
        -13    1    4    4    0    0  0.20254258670E+02 -0.49484614290E+01 -0.33418528883E+02  0.39389342943E+02  0.00000000000E+00 0.  1.
         13    1    4    4    0    0 -0.19637856649E+02  0.24964308554E+02  0.42828956207E+02  0.53321492901E+02  0.00000000000E+00 0. -1.
          1    1    1    2  501    0  0.12857603172E+02 -0.17203764280E+02 -0.37249005990E+02  0.42997394246E+02  0.00000000000E+00 0. -1.
<scales pt_clust_5="13000.00000" pt_clust_6="13000.00000" pt_clust_7="13000.00000" pt_clust_8="13000.00000" pt_clust_9="21.47761"></scales>
<clustering>
<clus scale="   21.478">  1  9  2 -1</clus>
<clus scale="   82.813">  5  6 -1 -1</clus>
<clus scale="   83.750">  2  5  1 -1</clus>
<clus scale="   90.032">  7  8 -1 -1</clus>
<clus scale="   21.478">  1  5  2 -1</clus>
</clustering>
</event>
<event>
 9    2  0.1488992E-004  0.1354273E+03  0.7546771E-02  0.1222262E+00
         21   -1    0    0  501  502  0.00000000000E+00  0.00000000000E+00  0.10283328652E+03  0.10283328652E+03  0.00000000000E+00 0. -1.
          2   -1    0    0  502    0 -0.00000000000E+00 -0.00000000000E+00 -0.47958638093E+03  0.47958638093E+03  0.00000000000E+00 0. -1.
         23    2    1    2    0    0 -0.47180611129E+02  0.10468799690E+03 -0.35997200679E+03  0.38869432322E+03  0.91202217485E+02 0.  0.
         24    2    1    2    0    0  0.64372763795E+02 -0.36983645859E+02 -0.45476945650E+02  0.11820778646E+03  0.79958022822E+02 0.  0.
        -11    1    4    4    0    0  0.40870450110E+01  0.23390656365E+02 -0.11314858518E+02  0.26303094217E+02  0.00000000000E+00 0.  1.
         12    1    4    4    0    0  0.60285718784E+02 -0.60374302224E+02 -0.34162087133E+02  0.91904692239E+02  0.00000000000E+00 0. -1.
        -13    1    3    3    0    0 -0.54650806813E+02  0.17130706970E+02 -0.11575970369E+03  0.12915293572E+03  0.00000000000E+00 0.  1.
         13    1    3    3    0    0  0.74701956841E+01  0.87557289930E+02 -0.24421230309E+03  0.25954138750E+03  0.00000000000E+00 0. -1.
          1    1    1    2  501    0 -0.17192152666E+02 -0.67704351041E+02  0.28695858036E+02  0.75517557771E+02  0.00000000000E+00 0. -1.
<scales pt_clust_5="13000.00000" pt_clust_6="13000.00000" pt_clust_7="13000.00000" pt_clust_8="13000.00000" pt_clust_9="69.85305"></scales>
<clustering>
<clus scale="   69.853">  1  9  2 -1</clus>
<clus scale="   79.958">  5  6 -1 -1</clus>
<clus scale="   91.202">  7  8 -1 -1</clus>
<clus scale="  128.125">  1  5  2 -1</clus>
<clus scale="   69.853">  1  5  2 -1</clus>
</clustering>
</event>
<event>
 9    2  0.1488992E-004  0.1184880E+03  0.7546771E-02  0.1247306E+00
         -1   -1    0    0    0  501 -0.00000000000E+00  0.00000000000E+00  0.25839876788E+03  0.25839876788E+03  0.00000000000E+00 0.  1.
         21   -1    0    0  501  502  0.00000000000E+00 -0.00000000000E+00 -0.22740595210E+03  0.22740595210E+03  0.00000000000E+00 0. -1.
         23    2    1    2    0    0  0.65955241423E+02 -0.29970593855E+02  0.89899937808E+02  0.14668731106E+03  0.90481147426E+02 0.  0.
         24    2    1    2    0    0 -0.12361934481E+03 -0.43473543480E+02 -0.14418570415E+03  0.21265940524E+03  0.85222144786E+02 0.  0.
        -13    1    4    4    0    0 -0.80898957994E+02  0.14902959244E+00 -0.36246585188E+02  0.88648060058E+02  0.00000000000E+00 0.  1.
         14    1    4    4    0    0 -0.42720386811E+02 -0.43622573072E+02 -0.10793911896E+03  0.12401134518E+03  0.00000000000E+00 0. -1.
        -11    1    3    3    0    0  0.72866128311E+02 -0.52713098744E+02  0.81814988198E+02  0.12158057299E+03  0.00000000000E+00 0.  1.
         11    1    3    3    0    0 -0.69108868876E+01  0.22742504889E+02  0.80849496102E+01  0.25106738068E+02  0.00000000000E+00 0. -1.
         -2    1    1    2    0  502  0.57664103382E+02  0.73444137335E+02  0.85278582121E+02  0.12645800369E+03  0.00000000000E+00 0.  1.
<scales pt_clust_5="13000.00000" pt_clust_6="13000.00000" pt_clust_7="13000.00000" pt_clust_8="13000.00000" pt_clust_9="93.37665"></scales>
<clustering>
<clus scale="   85.222">  5  6 -1 -1</clus>
<clus scale="   90.481">  7  8 -1 -1</clus>
<clus scale="   93.377">  2  9  1 -1</clus>
<clus scale="  114.522">  2  5  1 -1</clus>
<clus scale="   93.377">  2  5  1 -1</clus>
</clustering>
</event>
<event>
 9    2  0.1488992E-004  0.2013329E+03  0.7546771E-02  0.1173483E+00
          2   -1    0    0  502    0 -0.00000000000E+00  0.00000000000E+00  0.27819366195E+03  0.27819366195E+03  0.00000000000E+00 0. -1.
         21   -1    0    0  501  502  0.00000000000E+00 -0.00000000000E+00 -0.33016190967E+03  0.33016190967E+03  0.00000000000E+00 0. -1.
         24    2    1    2    0    0 -0.23523161131E+02 -0.72173639139E+02 -0.16856510074E+03  0.20292257515E+03  0.83672008595E+02 0.  0.
         23    2    1    2    0    0  0.18036436613E+03  0.10001298118E+03  0.41617537852E+02  0.22937593113E+03  0.91364092238E+02 0.  0.
        -11    1    3    3    0    0 -0.36213238381E+02 -0.14855382432E+02 -0.12159209747E+03  0.12773691396E+03  0.00000000000E+00 0.  1.
         12    1    3    3    0    0  0.12690077251E+02 -0.57318256707E+02 -0.46973003276E+02  0.75185661195E+02  0.00000000000E+00 0. -1.
        -13    1    4    4    0    0  0.43199972891E+02  0.62837128908E+02 -0.12568022915E+02  0.77283229922E+02  0.00000000000E+00 0. -1.
         13    1    4    4    0    0  0.13716439324E+03  0.37175852272E+02  0.54185560768E+02  0.15209270121E+03  0.00000000000E+00 0.  1.
          1    1    1    2  501    0 -0.15684120500E+03 -0.27839342042E+02  0.74979315168E+02  0.17605706533E+03  0.00000000000E+00 0. -1.
<scales pt_clust_5="13000.00000" pt_clust_6="13000.00000" pt_clust_7="13000.00000" pt_clust_8="13000.00000" pt_clust_9="179.40899"></scales>
<clustering>
<clus scale="   83.672">  5  6 -1 -1</clus>
<clus scale="   91.364">  7  8 -1 -1</clus>
<clus scale="  112.975">  1  5  2 -1</clus>
<clus scale="  179.409">  2  9  1 -1</clus>
<clus scale="  179.409">  2  5  1 -1</clus>
</clustering>
</event>
<event>
 9    2  0.1488992E-004  0.9628710E+02  0.7546771E-02  0.1293026E+00
          2   -1    0    0  502    0 -0.00000000000E+00  0.00000000000E+00  0.56905408430E+02  0.56905408430E+02  0.00000000000E+00 0. -1.
         21   -1    0    0  501  502  0.00000000000E+00 -0.00000000000E+00 -0.26876564376E+03  0.26876564376E+03  0.00000000000E+00 0.  1.
         24    2    1    2    0    0 -0.20018165781E+02 -0.18935312930E+02 -0.23549085012E+02  0.89445036141E+02  0.81771523457E+02 0.  0.
         23    2    1    2    0    0  0.42321897414E+02  0.30030901852E+02 -0.18316888848E+03  0.21078959737E+03  0.90489859034E+02 0.  0.
        -11    1    3    3    0    0 -0.34592409009E+02  0.14794925376E+02  0.10803217216E+02  0.39143761702E+02  0.00000000000E+00 0.  1.
         12    1    3    3    0    0  0.14574243228E+02 -0.33730238307E+02 -0.34352302228E+02  0.50301274440E+02  0.00000000000E+00 0. -1.
        -11    1    4    4    0    0 -0.17756782896E+02  0.25492067749E+02 -0.20242095484E+02  0.37079526514E+02  0.00000000000E+00 0. -1.
         11    1    4    4    0    0  0.60078680310E+02  0.45388341038E+01 -0.16292679299E+03  0.17371007086E+03  0.00000000000E+00 0.  1.
          1    1    1    2  501    0 -0.22303731633E+02 -0.11095588922E+02 -0.51422618440E+01  0.25436418678E+02  0.00000000000E+00 0. -1.
<scales pt_clust_5="13000.00000" pt_clust_6="13000.00000" pt_clust_7="13000.00000" pt_clust_8="13000.00000" pt_clust_9="24.91123"></scales>
<clustering>
<clus scale="   24.911">  2  9  1 -1</clus>
<clus scale="   81.772">  5  6 -1 -1</clus>
<clus scale="   88.144">  1  5  2 -1</clus>
<clus scale="   90.490">  7  8 -1 -1</clus>
<clus scale="   24.911">  2  5  1 -1</clus>
</clustering>
</event>
<event>
 9    2  0.1488992E-004  0.1795791E+03  0.7546771E-02  0.1189274E+00
          2   -1    0    0  502    0 -0.00000000000E+00  0.00000000000E+00  0.84946394913E+03  0.84946394913E+03  0.00000000000E+00 0. -1.
         21   -1    0    0  501  502  0.00000000000E+00 -0.00000000000E+00 -0.18632509416E+03  0.18632509416E+03  0.00000000000E+00 0. -1.
         23    2    1    2    0    0 -0.58844903417E+02 -0.27087608471E+02 -0.28790080376E+01  0.11176582028E+03  0.91032130073E+02 0.  0.
         24    2    1    2    0    0 -0.56340081859E+02 -0.76430254918E+02  0.74002518403E+03  0.75238228255E+03  0.97087781971E+02 0.  0.
        -11    1    4    4    0    0  0.95926771755E+01 -0.26998828127E+02  0.51420666815E+02  0.58864600154E+02  0.00000000000E+00 0.  1.
         12    1    4    4    0    0 -0.65932759034E+02 -0.49431426791E+02  0.68860451722E+03  0.69351768240E+03  0.00000000000E+00 0. -1.
        -13    1    3    3    0    0  0.10141525762E+02 -0.38893016428E+02 -0.99896064692E+01  0.41416295212E+02  0.00000000000E+00 0.  1.
         13    1    3    3    0    0 -0.68986429179E+02  0.11805407957E+02  0.71105984316E+01  0.70349525072E+02  0.00000000000E+00 0. -1.
          1    1    1    2  501    0  0.11518498528E+03  0.10351786339E+03 -0.74007321022E+02  0.17164094045E+03  0.00000000000E+00 0. -1.
<scales pt_clust_5="13000.00000" pt_clust_6="13000.00000" pt_clust_7="13000.00000" pt_clust_8="13000.00000" pt_clust_9="151.07153"></scales>
<clustering>
<clus scale="   91.032">  7  8 -1 -1</clus>
<clus scale="   97.088">  5  6 -1 -1</clus>
<clus scale="  111.729">  1  7  2 -1</clus>
<clus scale="  151.072">  2  9  1 -1</clus>
<clus scale="  151.072">  2  5  1 -1</clus>
</clustering>
</event>
<event>
 9    2  0.1488992E-004  0.1262855E+03  0.7546771E-02  0.1244805E+00
         21   -1    0    0  501  502  0.00000000000E+00  0.00000000000E+00  0.54004153226E+02  0.54004153226E+02  0.00000000000E+00 0.  1.
         -1   -1    0    0    0  501 -0.00000000000E+00 -0.00000000000E+00 -0.53962299241E+03  0.53962299241E+03  0.00000000000E+00 0.  1.
         24    2    1    2    0    0 -0.37882317798E+02  0.48866191182E+02 -0.22230849734E+03  0.24354822874E+03  0.77921095291E+02 0.  0.
         23    2    1    2    0    0  0.60662664502E+02  0.58369957028E+02 -0.12483326611E+03  0.17345944973E+03  0.86126799687E+02 0.  0.
        -13    1    3    3    0    0 -0.11314577126E+02 -0.16648351325E+02 -0.16797561035E+02  0.26217271294E+02  0.00000000000E+00 0.  1.
         14    1    3    3    0    0 -0.26567740672E+02  0.65514542506E+02 -0.20551093630E+03  0.21733095745E+03  0.00000000000E+00 0. -1.
        -13    1    4    4    0    0  0.87820453528E+01  0.66996056407E+02 -0.75961941678E+02  0.10166519797E+03  0.00000000000E+00 0. -1.
         13    1    4    4    0    0  0.51880619150E+02 -0.86260993795E+01 -0.48871324433E+02  0.71794251760E+02  0.00000000000E+00 0.  1.
         -2    1    1    2    0  502 -0.22780346705E+02 -0.10723614821E+03 -0.13847707574E+03  0.17661946717E+03  0.00000000000E+00 0.  1.
<scales pt_clust_5="13000.00000" pt_clust_6="13000.00000" pt_clust_7="13000.00000" pt_clust_8="13000.00000" pt_clust_9="92.35911"></scales>
<clustering>
<clus scale="   77.921">  5  6 -1 -1</clus>
<clus scale="   86.127">  7  8 -1 -1</clus>
<clus scale="   99.472">  2  5  1 -1</clus>
<clus scale="   92.359">  1  9  2 -1</clus>
<clus scale="   92.359">  1  5  2 -1</clus>
</clustering>
</event>
<event>
 9    2  0.1488992E-004  0.1063872E+03  0.7546771E-02  0.1271154E+00
          4   -1    0    0  502    0 -0.00000000000E+00  0.00000000000E+00  0.21726748845E+03  0.21726748845E+03  0.00000000000E+00 0. -1.
         21   -1    0    0  501  502  0.00000000000E+00 -0.00000000000E+00 -0.31163926168E+03  0.31163926168E+03  0.00000000000E+00 0. -1.
         24    2    1    2    0    0  0.28124302576E+02  0.54371837984E+02  0.16035739836E+03  0.19035350016E+03  0.82296334395E+02 0.  0.
         23    2    1    2    0    0 -0.47982990224E+01 -0.32146595816E+02 -0.16463834555E+02  0.98119403227E+02  0.91103963390E+02 0.  0.
        -13    1    3    3    0    0 -0.17024561587E+02  0.51378594316E+02  0.63427257645E+02  0.83382328245E+02  0.00000000000E+00 0.  1.
         14    1    3    3    0    0  0.45148864163E+02  0.29932436681E+01  0.96930140710E+02  0.10697117192E+03  0.00000000000E+00 0. -1.
        -13    1    4    4    0    0 -0.27041375744E+02 -0.47854411295E+02  0.14538522713E+02  0.56856392123E+02  0.00000000000E+00 0.  1.
         13    1    4    4    0    0  0.22243076721E+02  0.15707815480E+02 -0.31002357269E+02  0.41263011104E+02  0.00000000000E+00 0. -1.
          3    1    1    2  501    0 -0.23326003554E+02 -0.22225242169E+02 -0.23826533703E+03  0.24043384675E+03  0.00000000000E+00 0. -1.
<scales pt_clust_5="13000.00000" pt_clust_6="13000.00000" pt_clust_7="13000.00000" pt_clust_8="13000.00000" pt_clust_9="32.21900"></scales>
<clustering>
<clus scale="   32.219">  2  9  1 -1</clus>
<clus scale="   82.296">  5  6 -1 -1</clus>
<clus scale="   91.104">  7  8 -1 -1</clus>
<clus scale="   98.949">  1  5  2 -1</clus>
<clus scale="   32.219">  2  5  1 -1</clus>
</clustering>
</event>
<event>
 9    2  0.1488992E-004  0.5825469E+03  0.7546771E-02  0.9943188E-01
         21   -1    0    0  501  502  0.00000000000E+00  0.00000000000E+00  0.44713978643E+03  0.44713978643E+03  0.00000000000E+00 0. -1.
          2   -1    0    0  502    0 -0.00000000000E+00 -0.00000000000E+00 -0.89929234368E+03  0.89929234368E+03  0.00000000000E+00 0. -1.
         23    2    1    2    0    0 -0.53498992834E+03 -0.21513170551E+03 -0.26481920372E+03  0.64106336110E+03  0.91307985097E+02 0.  0.
         24    2    1    2    0    0  0.56379573165E+03  0.12688893731E+03 -0.13507509166E+03  0.59884418792E+03  0.80016570596E+02 0.  0.
        -13    1    4    4    0    0  0.66314026753E+02  0.27420266999E+01 -0.39618196241E+02  0.77295991669E+02  0.00000000000E+00 0.  1.
         14    1    4    4    0    0  0.49748170490E+03  0.12414691061E+03 -0.95456895421E+02  0.52154819625E+03  0.00000000000E+00 0. -1.
        -13    1    3    3    0    0 -0.41958127995E+02 -0.92408167666E+01 -0.48084762111E+02  0.64482722853E+02  0.00000000000E+00 0.  1.
         13    1    3    3    0    0 -0.49303180035E+03 -0.20589088874E+03 -0.21673444161E+03  0.57658063825E+03  0.00000000000E+00 0. -1.
          1    1    1    2  501    0 -0.28805803311E+02  0.88242768196E+02 -0.52258261872E+02  0.10652458109E+03  0.00000000000E+00 0. -1.
<scales pt_clust_5="13000.00000" pt_clust_6="13000.00000" pt_clust_7="13000.00000" pt_clust_8="13000.00000" pt_clust_9="92.82548"></scales>
<clustering>
<clus scale="   80.017">  5  6 -1 -1</clus>
<clus scale="   91.308">  7  8 -1 -1</clus>
<clus scale="   92.825">  1  9  2 -1</clus>
<clus scale="  580.884">  1  5  2 -1</clus>
<clus scale="   92.825">  1  5  2 -1</clus>
</clustering>
</event>
<event>
 9    2  0.1488992E-004  0.9286188E+02  0.7546771E-02  0.1301880E+00
         21   -1    0    0  501  502  0.00000000000E+00  0.00000000000E+00  0.45898469607E+03  0.45898469607E+03  0.00000000000E+00 0.  1.
          2   -1    0    0  502    0 -0.00000000000E+00 -0.00000000000E+00 -0.93954598903E+02  0.93954598903E+02  0.00000000000E+00 0. -1.
         24    2    1    2    0    0 -0.90044332068E+01 -0.12612230872E+02 -0.42920382272E+02  0.92239448593E+02  0.80161140695E+02 0.  0.
         23    2    1    2    0    0  0.11066680566E+02  0.87310157035E+02  0.17148940155E+03  0.21271219670E+03  0.89957372351E+02 0.  0.
        -13    1    3    3    0    0 -0.38278773585E+02 -0.28625981928E+02 -0.30138855958E+02  0.56507185268E+02  0.00000000000E+00 0.  1.
         14    1    3    3    0    0  0.29274340378E+02  0.16013751056E+02 -0.12781526315E+02  0.35732263326E+02  0.00000000000E+00 0. -1.
        -11    1    4    4    0    0  0.36095320327E+01  0.59554830580E+02  0.17392049272E+03  0.18386991150E+03  0.00000000000E+00 0.  1.
         11    1    4    4    0    0  0.74571485337E+01  0.27755326456E+02 -0.24310911759E+01  0.28842285194E+02  0.00000000000E+00 0. -1.
          1    1    1    2  501    0 -0.20622473596E+01 -0.74697926163E+02  0.23646107789E+03  0.24798764968E+03  0.00000000000E+00 0. -1.
<scales pt_clust_5="13000.00000" pt_clust_6="13000.00000" pt_clust_7="13000.00000" pt_clust_8="13000.00000" pt_clust_9="74.72639"></scales>
<clustering>
<clus scale="   74.726">  1  9  2 -1</clus>
<clus scale="   80.161">  5  6 -1 -1</clus>
<clus scale="   83.407">  2  5  1 -1</clus>
<clus scale="   89.957">  7  8 -1 -1</clus>
<clus scale="   74.726">  1  5  2 -1</clus>
</clustering>
</event>
<event>
 9    2  0.1488992E-004  0.2728952E+03  0.7546771E-02  0.1137589E+00
          2   -1    0    0  502    0 -0.00000000000E+00  0.00000000000E+00  0.81270108895E+03  0.81270108895E+03  0.00000000000E+00 0. -1.
         21   -1    0    0  501  502  0.00000000000E+00 -0.00000000000E+00 -0.16638723571E+03  0.16638723571E+03  0.00000000000E+00 0. -1.
         24    2    1    2    0    0 -0.68743533633E+02 -0.11178842902E+02  0.40011614861E+02  0.11268122045E+03  0.79028401050E+02 0.  0.
         23    2    1    2    0    0  0.12881209680E+03 -0.23705515143E+03  0.52689132889E+03  0.59894787225E+03  0.91303779265E+02 0.  0.
        -13    1    3    3    0    0 -0.68930179267E+02 -0.37805411938E+02  0.27800970208E+02  0.83387725296E+02  0.00000000000E+00 0.  1.
         14    1    3    3    0    0  0.18664563406E+00  0.26626569037E+02  0.12210644653E+02  0.29293495150E+02  0.00000000000E+00 0. -1.
        -13    1    4    4    0    0  0.31756263567E+02 -0.98339745529E+01  0.10379548583E+03  0.10898931237E+03  0.00000000000E+00 0.  1.
         13    1    4    4    0    0  0.97055833231E+02 -0.22722117688E+03  0.42309584306E+03  0.48995855988E+03  0.00000000000E+00 0. -1.
          1    1    1    2  501    0 -0.60068563165E+02  0.24823399433E+03  0.79410909488E+02  0.26745923197E+03  0.00000000000E+00 0. -1.
<scales pt_clust_5="13000.00000" pt_clust_6="13000.00000" pt_clust_7="13000.00000" pt_clust_8="13000.00000" pt_clust_9="257.16809"></scales>
<clustering>
<clus scale="   79.028">  5  6 -1 -1</clus>
<clus scale="   91.304">  7  8 -1 -1</clus>
<clus scale="  105.338">  1  5  2 -1</clus>
<clus scale="  257.168">  2  9  1 -1</clus>
<clus scale="  257.168">  2  5  1 -1</clus>
</clustering>
</event>
<event>
 9    2  0.1488992E-004  0.1030776E+03  0.7546771E-02  0.1280691E+00
          2   -1    0    0  502    0 -0.00000000000E+00  0.00000000000E+00  0.42463799500E+02  0.42463799500E+02  0.00000000000E+00 0. -1.
         21   -1    0    0  501  502  0.00000000000E+00 -0.00000000000E+00 -0.60615205550E+03  0.60615205550E+03  0.00000000000E+00 0. -1.
         23    2    1    2    0    0 -0.47617829091E+02  0.66636138617E+01 -0.54596744905E+02  0.11844988526E+03  0.93475715382E+02 0.  0.
         24    2    1    2    0    0  0.14121359816E+02 -0.25856431694E+02 -0.45979347115E+03  0.46755068045E+03  0.79533859575E+02 0.  0.
        -13    1    4    4    0    0  0.34274640874E+02  0.12170663523E+02 -0.13110484770E+03  0.13605644839E+03  0.00000000000E+00 0.  1.
         14    1    4    4    0    0 -0.20153281058E+02 -0.38027095217E+02 -0.32868862345E+03  0.33149423206E+03  0.00000000000E+00 0. -1.
        -11    1    3    3    0    0 -0.42139475482E+02 -0.34570382387E+02 -0.65482049036E+01  0.54897410866E+02  0.00000000000E+00 0. -1.
         11    1    3    3    0    0 -0.54783536085E+01  0.41233996249E+02 -0.48048540001E+02  0.63552474391E+02  0.00000000000E+00 0.  1.
          1    1    1    2  501    0  0.33496469275E+02  0.19192817833E+02 -0.49298039952E+02  0.62615289294E+02  0.00000000000E+00 0. -1.
<scales pt_clust_5="13000.00000" pt_clust_6="13000.00000" pt_clust_7="13000.00000" pt_clust_8="13000.00000" pt_clust_9="38.60543"></scales>
<clustering>
<clus scale="   38.605">  2  9  1 -1</clus>
<clus scale="   79.534">  5  6 -1 -1</clus>
<clus scale="   90.625">  2  5  1 -1</clus>
<clus scale="   93.476">  7  8 -1 -1</clus>
<clus scale="   38.605">  2  5  1 -1</clus>
</clustering>
</event>
<event>
 9    2  0.1488992E-004  0.1214749E+03  0.7546771E-02  0.1256774E+00
         21   -1    0    0  501  502  0.00000000000E+00  0.00000000000E+00  0.70041832135E+02  0.70041832135E+02  0.00000000000E+00 0.  1.
          2   -1    0    0  502    0 -0.00000000000E+00 -0.00000000000E+00 -0.29570458770E+03  0.29570458770E+03  0.00000000000E+00 0. -1.
         23    2    1    2    0    0  0.21817867717E+02  0.24217983772E+02 -0.21649186579E+03  0.24816304263E+03  0.11684878127E+03 0.  0.
         24    2    1    2    0    0 -0.40033126884E+02 -0.78582169189E+01  0.76886950527E+00  0.91159213022E+02  0.81516919331E+02 0.  0.
        -13    1    4    4    0    0 -0.62829699127E+02  0.80294317019E+01  0.15851181476E+01  0.63360519769E+02  0.00000000000E+00 0.  1.
         14    1    4    4    0    0  0.22796572243E+02 -0.15887648621E+02 -0.81624864231E+00  0.27798693253E+02  0.00000000000E+00 0. -1.
        -13    1    3    3    0    0  0.31008627694E+02 -0.37782726875E+02 -0.48491058020E+02  0.68850941530E+02  0.00000000000E+00 0.  1.
         13    1    3    3    0    0 -0.91907599766E+01  0.62000710647E+02 -0.16800080777E+03  0.17931210110E+03  0.00000000000E+00 0. -1.
          1    1    1    2  501    0  0.18215259167E+02 -0.16359766853E+02 -0.99397592733E+01  0.26424164177E+02  0.00000000000E+00 0. -1.
<scales pt_clust_5="13000.00000" pt_clust_6="13000.00000" pt_clust_7="13000.00000" pt_clust_8="13000.00000" pt_clust_9="24.48342"></scales>
<clustering>
<clus scale="   24.483">  1  9  2 -1</clus>
<clus scale="   81.517">  5  6 -1 -1</clus>
<clus scale="   88.020">  1  5  2 -1</clus>
<clus scale="  116.849">  7  8 -1 -1</clus>
<clus scale="   24.483">  1  5  2 -1</clus>
</clustering>
</event>
<event>
 9    2  0.1488992E-004  0.9494127E+02  0.7546771E-02  0.1295303E+00
         21   -1    0    0  501  502  0.00000000000E+00  0.00000000000E+00  0.10421762140E+02  0.10421762140E+02  0.00000000000E+00 0.  1.
          2   -1    0    0  502    0 -0.00000000000E+00 -0.00000000000E+00 -0.15512405850E+04  0.15512405850E+04  0.00000000000E+00 0. -1.
         24    2    1    2    0    0 -0.32763495021E+01  0.18470049463E+02 -0.99633124426E+03  0.10001389655E+04  0.85147664919E+02 0.  0.
         23    2    1    2    0    0  0.35498596209E+02 -0.22905655366E+02 -0.45877447476E+03  0.46984631824E+03  0.92177680009E+02 0.  0.
        -13    1    3    3    0    0  0.23637637164E+02  0.18823835712E+02 -0.13304878841E+03  0.13643699930E+03  0.00000000000E+00 0.  1.
         14    1    3    3    0    0 -0.26913986666E+02 -0.35378624861E+00 -0.86328245585E+03  0.86370196620E+03  0.00000000000E+00 0. -1.
        -13    1    4    4    0    0 -0.18831477042E+02  0.22737100367E+02 -0.10772476851E+03  0.11169702776E+03  0.00000000000E+00 0. -1.
         13    1    4    4    0    0  0.54330073251E+02 -0.45642755734E+02 -0.35104970625E+03  0.35814929048E+03  0.00000000000E+00 0.  1.
          1    1    1    2  501    0 -0.32222246707E+02  0.44356059033E+01 -0.85713103840E+02  0.91677063394E+02  0.00000000000E+00 0. -1.
<scales pt_clust_5="13000.00000" pt_clust_6="13000.00000" pt_clust_7="13000.00000" pt_clust_8="13000.00000" pt_clust_9="32.52611"></scales>
<clustering>
<clus scale="   32.526">  1  9  2 -1</clus>
<clus scale="   85.148">  5  6 -1 -1</clus>
<clus scale="   88.132">  2  5  1 -1</clus>
<clus scale="   92.178">  7  8 -1 -1</clus>
<clus scale="   32.526">  1  5  2 -1</clus>
</clustering>
</event>
<event>
 9    2  0.1488992E-004  0.9960716E+02  0.7546771E-02  0.1286054E+00
         21   -1    0    0  501  502  0.00000000000E+00  0.00000000000E+00  0.70049301556E+02  0.70049301556E+02  0.00000000000E+00 0. -1.
          2   -1    0    0  502    0 -0.00000000000E+00 -0.00000000000E+00 -0.28632847088E+03  0.28632847088E+03  0.00000000000E+00 0. -1.
         23    2    1    2    0    0  0.41602864859E+02 -0.22005481366E+02 -0.10919479978E+03  0.15019475551E+03  0.91760125927E+02 0.  0.
         24    2    1    2    0    0 -0.29830189811E+02 -0.22458184068E+02 -0.55051554660E+00  0.90143905116E+02  0.82045172353E+02 0.  0.
        -13    1    4    4    0    0  0.20335181260E+02  0.15969325549E+02 -0.65347372133E+01  0.26669115955E+02  0.00000000000E+00 0.  1.
         14    1    4    4    0    0 -0.50165371071E+02 -0.38427509617E+02  0.59842216667E+01  0.63474789161E+02  0.00000000000E+00 0. -1.
        -11    1    3    3    0    0  0.52988845314E+02  0.20532095370E+02 -0.45695645452E+02  0.72921030446E+02  0.00000000000E+00 0. -1.
         11    1    3    3    0    0 -0.11385980455E+02 -0.42537576736E+02 -0.63499154326E+02  0.77273725066E+02  0.00000000000E+00 0.  1.
          1    1    1    2  501    0 -0.11772675048E+02  0.44463665433E+02 -0.10653385400E+03  0.11603911181E+03  0.00000000000E+00 0. -1.
<scales pt_clust_5="13000.00000" pt_clust_6="13000.00000" pt_clust_7="13000.00000" pt_clust_8="13000.00000" pt_clust_9="45.99582"></scales>
<clustering>
<clus scale="   45.996">  1  9  2 -1</clus>
<clus scale="   82.045">  5  6 -1 -1</clus>
<clus scale="   90.736">  1  5  2 -1</clus>
<clus scale="   91.760">  7  8 -1 -1</clus>
<clus scale="   45.996">  1  5  2 -1</clus>
</clustering>
</event>
<event>
 9    2  0.1488992E-004  0.1063231E+03  0.7546771E-02  0.1270414E+00
          2   -1    0    0  502    0 -0.00000000000E+00  0.00000000000E+00  0.76642926138E+03  0.76642926138E+03  0.00000000000E+00 0. -1.
         21   -1    0    0  501  502  0.00000000000E+00 -0.00000000000E+00 -0.52566842203E+02  0.52566842203E+02  0.00000000000E+00 0. -1.
         23    2    1    2    0    0 -0.93429529488E+01 -0.58648077503E+02  0.39179153487E+03  0.40641986477E+03  0.90275201056E+02 0.  0.
         24    2    1    2    0    0  0.77307005298E+02  0.19223809222E+02  0.43712352728E+02  0.12334128683E+03  0.83404888026E+02 0.  0.
        -11    1    4    4    0    0 -0.79896773715E+01  0.28405601356E+02  0.12581714506E+02  0.32078227395E+02  0.00000000000E+00 0.  1.
         12    1    4    4    0    0  0.85296682670E+02 -0.91817921339E+01  0.31130638222E+02  0.91263059435E+02  0.00000000000E+00 0. -1.
        -13    1    3    3    0    0 -0.35538017939E+00  0.24461315328E+02  0.88620959519E+02  0.91935611755E+02  0.00000000000E+00 0.  1.
         13    1    3    3    0    0 -0.89875727695E+01 -0.83109392831E+02  0.30317057535E+03  0.31448425302E+03  0.00000000000E+00 0. -1.
          1    1    1    2  501    0 -0.67964052349E+02  0.39424268281E+02  0.27835853159E+03  0.28923495198E+03  0.00000000000E+00 0. -1.
<scales pt_clust_5="13000.00000" pt_clust_6="13000.00000" pt_clust_7="13000.00000" pt_clust_8="13000.00000" pt_clust_9="78.57093"></scales>
<clustering>
<clus scale="   78.571">  2  9  1 -1</clus>
<clus scale="   83.405">  5  6 -1 -1</clus>
<clus scale="   90.275">  7  8 -1 -1</clus>
<clus scale="  100.555">  2  5  1 -1</clus>
<clus scale="   78.571">  2  5  1 -1</clus>
</clustering>
</event>
<event>
 9    2  0.1488992E-004  0.1069181E+03  0.7546771E-02  0.1270855E+00
         21   -1    0    0  501  502  0.00000000000E+00  0.00000000000E+00  0.45818752226E+02  0.45818752226E+02  0.00000000000E+00 0. -1.
          2   -1    0    0  502    0 -0.00000000000E+00 -0.00000000000E+00 -0.61972993117E+03  0.61972993117E+03  0.00000000000E+00 0. -1.
         24    2    1    2    0    0  0.50288119411E+02 -0.27670612371E+02 -0.22453973023E+03  0.24541097921E+03  0.80708738818E+02 0.  0.
         23    2    1    2    0    0 -0.20625099621E+02  0.58743541862E+02 -0.56438881681E+02  0.12407198425E+03  0.91281495751E+02 0.  0.
        -13    1    3    3    0    0  0.71676570723E+02 -0.29385675984E+02 -0.18054606163E+03  0.19646355670E+03  0.00000000000E+00 0.  1.
         14    1    3    3    0    0 -0.21388451312E+02  0.17150636131E+01 -0.43993668603E+02  0.48947422505E+02  0.00000000000E+00 0. -1.
        -13    1    4    4    0    0  0.96494332118E+01 -0.17587793441E+02  0.59715866938E+01  0.20930883571E+02  0.00000000000E+00 0.  1.
         13    1    4    4    0    0 -0.30274532833E+02  0.76331335303E+02 -0.62410468375E+02  0.10314110068E+03  0.00000000000E+00 0. -1.
          1    1    1    2  501    0 -0.29663019790E+02 -0.31072929491E+02 -0.29293256704E+03  0.29606571994E+03  0.00000000000E+00 0. -1.
<scales pt_clust_5="13000.00000" pt_clust_6="13000.00000" pt_clust_7="13000.00000" pt_clust_8="13000.00000" pt_clust_9="42.95839"></scales>
<clustering>
<clus scale="   42.958">  1  9  2 -1</clus>
<clus scale="   80.709">  5  6 -1 -1</clus>
<clus scale="   91.281">  7  8 -1 -1</clus>
<clus scale="   98.046">  2  5  1 -1</clus>
<clus scale="   42.958">  1  5  2 -1</clus>
</clustering>
</event>
<event>
 9    2  0.1512622E-004  0.1454864E+03  0.7546771E-02  0.1208262E+00
         -1   -1    0    0    0  501 -0.00000000000E+00  0.00000000000E+00  0.66303670718E+03  0.66303670718E+03  0.00000000000E+00 0.  1.
         21   -1    0    0  501  502  0.00000000000E+00 -0.00000000000E+00 -0.48354839114E+03  0.48354839114E+03  0.00000000000E+00 0.  1.
         23    2    1    2    0    0 -0.10950071995E+03  0.13790202443E+02  0.61620964519E+03  0.63292906122E+03  0.93296797155E+02 0.  0.
         24    2    1    2    0    0  0.13445065177E+03 -0.44825918188E+02 -0.14434398126E+03  0.21857938890E+03  0.82797485621E+02 0.  0.
        -13    1    4    4    0    0  0.67877461475E+02 -0.65309302690E+02 -0.76505740471E+02  0.12134983774E+03  0.00000000000E+00 0.  1.
         14    1    4    4    0    0  0.66573190294E+02  0.20483384502E+02 -0.67838240787E+02  0.97229551165E+02  0.00000000000E+00 0. -1.
        -11    1    3    3    0    0 -0.11149457040E+03 -0.12946421781E+02  0.55286865233E+03  0.56414749472E+03  0.00000000000E+00 0.  1.
         11    1    3    3    0    0  0.19938504418E+01  0.26736624224E+02  0.63340992860E+02  0.68781566506E+02  0.00000000000E+00 0. -1.
         -2    1    1    2    0  502 -0.24949931814E+02  0.31035715745E+02 -0.29237734789E+03  0.29507664820E+03  0.00000000000E+00 0.  1.
<scales pt_clust_5="13000.00000" pt_clust_6="13000.00000" pt_clust_7="13000.00000" pt_clust_8="13000.00000" pt_clust_9="39.82103"></scales>
<clustering>
<clus scale="   39.821">  2  9  1 -1</clus>
<clus scale="   82.797">  5  6 -1 -1</clus>
<clus scale="   93.297">  7  8 -1 -1</clus>
<clus scale="  138.987">  2  5  1 -1</clus>
<clus scale="   39.821">  2  5  1 -1</clus>
</clustering>
</event>
<event>
 9    2  0.1488992E-004  0.1246058E+03  0.7546771E-02  0.1239973E+00
         21   -1    0    0  501  502  0.00000000000E+00  0.00000000000E+00  0.16289513771E+03  0.16289513771E+03  0.00000000000E+00 0. -1.
          2   -1    0    0  502    0 -0.00000000000E+00 -0.00000000000E+00 -0.21761816272E+03  0.21761816272E+03  0.00000000000E+00 0. -1.
         23    2    1    2    0    0  0.13723670189E+02 -0.88653201605E+02 -0.13294839193E+03  0.18620695128E+03  0.94604569194E+02 0.  0.
         24    2    1    2    0    0 -0.89269918752E+01  0.65050367053E+02 -0.86564908296E+01  0.10414782695E+03  0.80377817750E+02 0.  0.
        -11    1    4    4    0    0  0.66230344153E+01  0.73811406032E+02 -0.26697250493E+02  0.78770117615E+02  0.00000000000E+00 0.  1.
         12    1    4    4    0    0 -0.15550026291E+02 -0.87610389789E+01  0.18040759663E+02  0.25377709330E+02  0.00000000000E+00 0. -1.
        -11    1    3    3    0    0 -0.15080772253E+02 -0.86298290498E+02 -0.55911688166E+02  0.10392757819E+03  0.00000000000E+00 0.  1.
         11    1    3    3    0    0  0.28804442442E+02 -0.23549111071E+01 -0.77036703759E+02  0.82279373095E+02  0.00000000000E+00 0. -1.
          1    1    1    2  501    0 -0.47966783139E+01  0.23602834552E+02  0.86881857738E+02  0.90158522202E+02  0.00000000000E+00 0. -1.
<scales pt_clust_5="13000.00000" pt_clust_6="13000.00000" pt_clust_7="13000.00000" pt_clust_8="13000.00000" pt_clust_9="24.08531"></scales>
<clustering>
<clus scale="   24.085">  1  9  2 -1</clus>
<clus scale="   80.378">  5  6 -1 -1</clus>
<clus scale="   94.605">  7  8 -1 -1</clus>
<clus scale="  114.180">  1  5  2 -1</clus>
<clus scale="   24.085">  1  5  2 -1</clus>
</clustering>
</event>
<event>
 9    2  0.1488992E-004  0.1796580E+03  0.7546771E-02  0.1169719E+00
         21   -1    0    0  501  502  0.00000000000E+00  0.00000000000E+00  0.55154085543E+02  0.55154085543E+02  0.00000000000E+00 0. -1.
          2   -1    0    0  502    0 -0.00000000000E+00 -0.00000000000E+00 -0.10012911626E+04  0.10012911626E+04  0.00000000000E+00 0. -1.
         24    2    1    2    0    0 -0.15570173795E+03 -0.88997801232E+02 -0.52869134992E+03  0.56401013459E+03  0.80182595419E+02 0.  0.
         23    2    1    2    0    0  0.69292572068E+02  0.13087067942E+03 -0.22066487266E+03  0.27347715740E+03  0.64561399599E+02 0.  0.
        -13    1    3    3    0    0 -0.63948351017E+02  0.58796752025E+01 -0.16002239531E+03  0.17242717065E+03  0.00000000000E+00 0.  1.
         14    1    3    3    0    0 -0.91753386931E+02 -0.94877476434E+02 -0.36866895461E+03  0.39158296393E+03  0.00000000000E+00 0. -1.
        -11    1    4    4    0    0  0.50205613791E+02  0.11862336528E+03 -0.21411020783E+03  0.24987054157E+03  0.00000000000E+00 0. -1.
         11    1    4    4    0    0  0.19086958276E+02  0.12247314131E+02 -0.65546648237E+01  0.23606615823E+02  0.00000000000E+00 0.  1.
          1    1    1    2  501    0  0.86409165881E+02 -0.41872878184E+02 -0.19678085444E+03  0.21895795613E+03  0.00000000000E+00 0. -1.
<scales pt_clust_5="13000.00000" pt_clust_6="13000.00000" pt_clust_7="13000.00000" pt_clust_8="13000.00000" pt_clust_9="96.02026"></scales>
<clustering>
<clus scale="   64.561">  7  8 -1 -1</clus>
<clus scale="   80.183">  5  6 -1 -1</clus>
<clus scale="   96.020">  1  9  2 -1</clus>
<clus scale="  173.251">  1  7  2 -1</clus>
<clus scale="   96.020">  1  5  2 -1</clus>
</clustering>
</event>
<event>
 9    2  0.1488992E-004  0.1356128E+03  0.7546771E-02  0.1222547E+00
         21   -1    0    0  501  502  0.00000000000E+00  0.00000000000E+00  0.82360113712E+02  0.82360113712E+02  0.00000000000E+00 0. -1.
          2   -1    0    0  502    0 -0.00000000000E+00 -0.00000000000E+00 -0.36403874315E+03  0.36403874315E+03  0.00000000000E+00 0. -1.
         23    2    1    2    0    0  0.38006812975E+02  0.11389382234E+03 -0.16292083074E+03  0.22285242477E+03  0.93293544986E+02 0.  0.
         24    2    1    2    0    0 -0.93590526806E+01 -0.65785206853E+02 -0.14236997830E+02  0.10497269610E+03  0.80008059043E+02 0.  0.
        -13    1    4    4    0    0  0.89583557712E+01 -0.74326679723E+02 -0.28638843305E+02  0.80155416552E+02  0.00000000000E+00 0.  1.
         14    1    4    4    0    0 -0.18317408452E+02  0.85414728693E+01  0.14401845475E+02  0.24817279550E+02  0.00000000000E+00 0. -1.
        -11    1    3    3    0    0 -0.54060819456E+01  0.73499686998E+02 -0.14197385116E+03  0.15996250850E+03  0.00000000000E+00 0.  1.
         11    1    3    3    0    0  0.43412894921E+02  0.40394135340E+02 -0.20946979583E+02  0.62889916274E+02  0.00000000000E+00 0. -1.
          1    1    1    2  501    0 -0.28647760295E+02 -0.48108615485E+02 -0.10452080087E+03  0.11857373600E+03  0.00000000000E+00 0. -1.
<scales pt_clust_5="13000.00000" pt_clust_6="13000.00000" pt_clust_7="13000.00000" pt_clust_8="13000.00000" pt_clust_9="55.99229"></scales>
<clustering>
<clus scale="   55.992">  1  9  2 -1</clus>
<clus scale="   80.008">  5  6 -1 -1</clus>
<clus scale="   93.294">  7  8 -1 -1</clus>
<clus scale="  126.840">  1  5  2 -1</clus>
<clus scale="   55.992">  1  5  2 -1</clus>
</clustering>
</event>
<event>
 9    2  0.1488992E-004  0.1204978E+03  0.7546771E-02  0.1246186E+00
         21   -1    0    0  501  502  0.00000000000E+00  0.00000000000E+00  0.12463222741E+03  0.12463222741E+03  0.00000000000E+00 0. -1.
         -1   -1    0    0    0  501 -0.00000000000E+00 -0.00000000000E+00 -0.34267441577E+03  0.34267441577E+03  0.00000000000E+00 0.  1.
         23    2    1    2    0    0 -0.38068655401E+02 -0.57316147074E+02 -0.20458110594E+03  0.23440820835E+03  0.91429841926E+02 0.  0.
         24    2    1    2    0    0  0.10765376135E+02  0.12129829318E+03 -0.50993970517E+02  0.15385476483E+03  0.79004647835E+02 0.  0.
        -13    1    4    4    0    0  0.12138367438E+02  0.27768880517E+02 -0.52140523066E+02  0.60308248480E+02  0.00000000000E+00 0.  1.
         14    1    4    4    0    0 -0.13729913028E+01  0.93529412660E+02  0.11465525483E+01  0.93546516345E+02  0.00000000000E+00 0. -1.
        -11    1    3    3    0    0 -0.46061596259E+02 -0.30756969680E+02 -0.19840802745E+03  0.20599370667E+03  0.00000000000E+00 0.  1.
         11    1    3    3    0    0  0.79929408579E+01 -0.26559177394E+02 -0.61730784923E+01  0.28414501675E+02  0.00000000000E+00 0. -1.
         -2    1    1    2    0  502  0.27303279266E+02 -0.63982146103E+02  0.37532888097E+02  0.79043670003E+02  0.00000000000E+00 0.  1.
<scales pt_clust_5="13000.00000" pt_clust_6="13000.00000" pt_clust_7="13000.00000" pt_clust_8="13000.00000" pt_clust_9="69.56424"></scales>
<clustering>
<clus scale="   69.564">  1  9  2 -1</clus>
<clus scale="   79.005">  5  6 -1 -1</clus>
<clus scale="   91.430">  7  8 -1 -1</clus>
<clus scale="  111.364">  1  5  2 -1</clus>
<clus scale="   69.564">  1  5  2 -1</clus>
</clustering>
</event>
<event>
 9    2  0.1488992E-004  0.1094882E+03  0.7546771E-02  0.1263188E+00
         21   -1    0    0  501  502  0.00000000000E+00  0.00000000000E+00  0.81420727813E+02  0.81420727813E+02  0.00000000000E+00 0.  1.
          2   -1    0    0  502    0 -0.00000000000E+00 -0.00000000000E+00 -0.43954252365E+03  0.43954252365E+03  0.00000000000E+00 0. -1.
         24    2    1    2    0    0  0.68617295304E+02 -0.16507341299E+02 -0.37085090540E+03  0.38625256822E+03  0.81730207927E+02 0.  0.
         23    2    1    2    0    0 -0.47243479081E+02  0.16616474796E+02 -0.13761546127E+02  0.10067236999E+03  0.86240897362E+02 0.  0.
        -11    1    3    3    0    0  0.56970136235E+02  0.24177020211E+02 -0.26765113282E+03  0.27471303870E+03  0.00000000000E+00 0.  1.
         12    1    3    3    0    0  0.11647159069E+02 -0.40684361510E+02 -0.10319977258E+03  0.11153952952E+03  0.00000000000E+00 0. -1.
        -13    1    4    4    0    0  0.61165009032E+01  0.19442295572E+02 -0.37126061630E+02  0.42352790847E+02  0.00000000000E+00 0. -1.
         13    1    4    4    0    0 -0.53359979985E+02 -0.28258207765E+01  0.23364515503E+02  0.58319579145E+02  0.00000000000E+00 0.  1.
          1    1    1    2  501    0 -0.21373816223E+02 -0.10913349615E+00  0.26490655691E+02  0.34038313251E+02  0.00000000000E+00 0. -1.
<scales pt_clust_5="13000.00000" pt_clust_6="13000.00000" pt_clust_7="13000.00000" pt_clust_8="13000.00000" pt_clust_9="21.37409"></scales>
<clustering>
<clus scale="   21.374">  1  9  2 -1</clus>
<clus scale="   81.730">  5  6 -1 -1</clus>
<clus scale="   86.241">  7  8 -1 -1</clus>
<clus scale="  105.972">  2  5  1 -1</clus>
<clus scale="   21.374">  1  5  2 -1</clus>
</clustering>
</event>
<event>
 9    2  0.1488992E-004  0.1068698E+03  0.7546771E-02  0.1272390E+00
         21   -1    0    0  501  502  0.00000000000E+00  0.00000000000E+00  0.27219004730E+02  0.27219004730E+02  0.00000000000E+00 0.  1.
          2   -1    0    0  502    0 -0.00000000000E+00 -0.00000000000E+00 -0.49607121996E+03  0.49607121996E+03  0.00000000000E+00 0. -1.
         24    2    1    2    0    0  0.11026349086E+02 -0.61923707599E+02 -0.28169958108E+03  0.29848478584E+03  0.76042011176E+02 0.  0.
         23    2    1    2    0    0  0.50823685340E+01  0.47961742629E+02 -0.14289108589E+03  0.17567793225E+03  0.90103907957E+02 0.  0.
        -13    1    3    3    0    0  0.41995673514E+01 -0.68343631861E+02 -0.28084843611E+03  0.28907495991E+03  0.00000000000E+00 0.  1.
         14    1    3    3    0    0  0.68267817343E+01  0.64199242624E+01 -0.85114497111E+00  0.94098259360E+01  0.00000000000E+00 0. -1.
        -11    1    4    4    0    0  0.47458959269E+02  0.21763892622E+02 -0.78149429252E+02  0.93985919847E+02  0.00000000000E+00 0.  1.
         11    1    4    4    0    0 -0.42376590735E+02  0.26197850007E+02 -0.64741656634E+02  0.81692012407E+02  0.00000000000E+00 0. -1.
          1    1    1    2  501    0 -0.16108717620E+02  0.13961964970E+02 -0.44261548269E+02  0.49127506596E+02  0.00000000000E+00 0. -1.
<scales pt_clust_5="13000.00000" pt_clust_6="13000.00000" pt_clust_7="13000.00000" pt_clust_8="13000.00000" pt_clust_9="21.31731"></scales>
<clustering>
<clus scale="   21.317">  1  9  2 -1</clus>
<clus scale="   76.042">  5  6 -1 -1</clus>
<clus scale="   90.104">  7  8 -1 -1</clus>
<clus scale="   95.314">  2  5  1 -1</clus>
<clus scale="   21.317">  1  5  2 -1</clus>
</clustering>
</event>
<event>
 9    2  0.1488992E-004  0.1621490E+03  0.7546771E-02  0.1220296E+00
         21   -1    0    0  501  502  0.00000000000E+00  0.00000000000E+00  0.17381556681E+03  0.17381556681E+03  0.00000000000E+00 0. -1.
          2   -1    0    0  502    0 -0.00000000000E+00 -0.00000000000E+00 -0.22486278894E+03  0.22486278894E+03  0.00000000000E+00 0. -1.
         24    2    1    2    0    0  0.29626801956E+01 -0.38862502632E+01 -0.67461408031E+02  0.10296348211E+03  0.77630900162E+02 0.  0.
         23    2    1    2    0    0 -0.44753883102E+02  0.12732966483E+03  0.19965162611E+02  0.16534083223E+03  0.93398230642E+02 0.  0.
        -13    1    3    3    0    0  0.23597386418E+02 -0.45227771603E+01 -0.76678566400E+02  0.80354805110E+02  0.00000000000E+00 0.  1.
         14    1    3    3    0    0 -0.20634706223E+02  0.63652689707E+00  0.92171583692E+01  0.22608677002E+02  0.00000000000E+00 0. -1.
        -13    1    4    4    0    0 -0.19212928352E+02  0.68484864403E+01  0.35765358309E+02  0.41172797298E+02  0.00000000000E+00 0.  1.
         13    1    4    4    0    0 -0.25540954750E+02  0.12048117839E+03 -0.15800195698E+02  0.12416803493E+03  0.00000000000E+00 0. -1.
          1    1    1    2  501    0  0.41791202906E+02 -0.12344341456E+03 -0.35509767086E+01  0.13037404142E+03  0.00000000000E+00 0. -1.
<scales pt_clust_5="13000.00000" pt_clust_6="13000.00000" pt_clust_7="13000.00000" pt_clust_8="13000.00000" pt_clust_9="132.54845"></scales>
<clustering>
<clus scale="   77.631">  5  6 -1 -1</clus>
<clus scale="   77.785">  2  5  1 -1</clus>
<clus scale="   93.398">  7  8 -1 -1</clus>
<clus scale="  132.548">  1  9  2 -1</clus>
<clus scale="  132.548">  1  5  2 -1</clus>
</clustering>
</event>
<event>
 9    2  0.1488992E-004  0.1787105E+03  0.7546771E-02  0.1170436E+00
          2   -1    0    0  502    0 -0.00000000000E+00  0.00000000000E+00  0.62142926277E+03  0.62142926277E+03  0.00000000000E+00 0. -1.
         21   -1    0    0  501  502  0.00000000000E+00 -0.00000000000E+00 -0.17852217829E+03  0.17852217829E+03  0.00000000000E+00 0.  1.
         24    2    1    2    0    0  0.51051247114E+02 -0.12919050653E+03  0.75013904486E+02  0.17617580780E+03  0.78194709410E+02 0.  0.
         23    2    1    2    0    0  0.43719629666E+02  0.20800313705E+03 -0.52442727208E+01  0.23080679425E+03  0.89819612759E+02 0.  0.
        -13    1    3    3    0    0  0.63673127731E+02 -0.12932293984E+03  0.58926291165E+02  0.15572731858E+03  0.00000000000E+00 0.  1.
         14    1    3    3    0    0 -0.12621880617E+02  0.13243330976E+00  0.16087613322E+02  0.20448489218E+02  0.00000000000E+00 0. -1.
        -13    1    4    4    0    0  0.48207580697E+02  0.69770036119E+02  0.26607059682E+02  0.88880618819E+02  0.00000000000E+00 0. -1.
         13    1    4    4    0    0 -0.44879510312E+01  0.13823310093E+03 -0.31851332403E+02  0.14192617543E+03  0.00000000000E+00 0.  1.
          1    1    1    2  501    0 -0.94770876780E+02 -0.78812630522E+02  0.37313745271E+03  0.39296883901E+03  0.00000000000E+00 0. -1.
<scales pt_clust_5="13000.00000" pt_clust_6="13000.00000" pt_clust_7="13000.00000" pt_clust_8="13000.00000" pt_clust_9="123.25975"></scales>
<clustering>
<clus scale="   78.195">  5  6 -1 -1</clus>
<clus scale="   89.820">  7  8 -1 -1</clus>
<clus scale="  123.260">  2  9  1 -1</clus>
<clus scale="  173.160">  1  5  2 -1</clus>
<clus scale="  123.260">  2  5  1 -1</clus>
</clustering>
</event>
<event>
 9    2  0.1488992E-004  0.9255310E+02  0.7546771E-02  0.1302896E+00
          2   -1    0    0  502    0 -0.00000000000E+00  0.00000000000E+00  0.52383881947E+03  0.52383881947E+03  0.00000000000E+00 0. -1.
         21   -1    0    0  501  502  0.00000000000E+00 -0.00000000000E+00 -0.33375149689E+02  0.33375149689E+02  0.00000000000E+00 0. -1.
         24    2    1    2    0    0  0.15049227273E+02 -0.35286105406E+01  0.32274476292E+03  0.33302332071E+03  0.80631382314E+02 0.  0.
         23    2    1    2    0    0 -0.34696403331E+02 -0.33209751759E+01  0.59419428707E+02  0.11391052639E+03  0.90719734537E+02 0.  0.
        -13    1    3    3    0    0 -0.23977859926E+02 -0.24528954856E+02  0.19012135705E+03  0.19319093612E+03  0.00000000000E+00 0.  1.
         14    1    3    3    0    0  0.39027087198E+02  0.21000344316E+02  0.13262340587E+03  0.13983238459E+03  0.00000000000E+00 0. -1.
        -11    1    4    4    0    0  0.13587983251E+01  0.25410840991E+02 -0.12602220618E+02  0.28396709973E+02  0.00000000000E+00 0. -1.
         11    1    4    4    0    0 -0.36055201657E+02 -0.28731816167E+02  0.72021649325E+02  0.85513816418E+02  0.00000000000E+00 0.  1.
          1    1    1    2  501    0  0.19647176058E+02  0.68495857165E+01  0.10829947815E+03  0.11028012205E+03  0.00000000000E+00 0. -1.
<scales pt_clust_5="13000.00000" pt_clust_6="13000.00000" pt_clust_7="13000.00000" pt_clust_8="13000.00000" pt_clust_9="20.80694"></scales>
<clustering>
<clus scale="   20.807">  2  9  1 -1</clus>
<clus scale="   80.631">  5  6 -1 -1</clus>
<clus scale="   82.689">  1  5  2 -1</clus>
<clus scale="   90.720">  7  8 -1 -1</clus>
<clus scale="   20.807">  2  5  1 -1</clus>
</clustering>
</event>
<event>
 9    2  0.1488992E-004  0.1708282E+03  0.7546771E-02  0.1178519E+00
         21   -1    0    0  501  502  0.00000000000E+00  0.00000000000E+00  0.18708281546E+03  0.18708281546E+03  0.00000000000E+00 0. -1.
          2   -1    0    0  502    0 -0.00000000000E+00 -0.00000000000E+00 -0.27304834011E+03  0.27304834011E+03  0.00000000000E+00 0. -1.
         23    2    1    2    0    0  0.11127692144E+03 -0.44105426918E+02 -0.23516831860E+02  0.15268938889E+03  0.91832271932E+02 0.  0.
         24    2    1    2    0    0 -0.18143728655E+03  0.41801522479E+02  0.14389012033E+02  0.20336574789E+03  0.80521596578E+02 0.  0.
        -13    1    4    4    0    0 -0.55892109021E+02  0.39749911496E+02  0.33547452324E+02  0.76350604923E+02  0.00000000000E+00 0.  1.
         14    1    4    4    0    0 -0.12554517753E+03  0.20516109823E+01 -0.19158440291E+02  0.12701514297E+03  0.00000000000E+00 0. -1.
        -11    1    3    3    0    0  0.13144965645E+02 -0.42899521535E+02 -0.30576806878E+02  0.54296410458E+02  0.00000000000E+00 0.  1.
         11    1    3    3    0    0  0.98131955799E+02 -0.12059053825E+01  0.70599750183E+01  0.98392978429E+02  0.00000000000E+00 0. -1.
          1    1    1    2  501    0  0.70160365104E+02  0.23039044391E+01 -0.76837704818E+02  0.10407601880E+03  0.00000000000E+00 0. -1.
<scales pt_clust_5="13000.00000" pt_clust_6="13000.00000" pt_clust_7="13000.00000" pt_clust_8="13000.00000" pt_clust_9="70.19822"></scales>
<clustering>
<clus scale="   70.198">  1  9  2 -1</clus>
<clus scale="   80.522">  5  6 -1 -1</clus>
<clus scale="   91.832">  7  8 -1 -1</clus>
<clus scale="  165.024">  1  5  2 -1</clus>
<clus scale="   70.198">  1  5  2 -1</clus>
</clustering>
</event>
<event>
 9    2  0.1488992E-004  0.1514583E+03  0.7546771E-02  0.1201913E+00
          2   -1    0    0  502    0 -0.00000000000E+00  0.00000000000E+00  0.75630671059E+03  0.75630671059E+03  0.00000000000E+00 0. -1.
         21   -1    0    0  501  502  0.00000000000E+00 -0.00000000000E+00 -0.56793605312E+02  0.56793605312E+02  0.00000000000E+00 0. -1.
         23    2    1    2    0    0 -0.85486783587E+02 -0.21508049580E+02  0.14859292544E+03  0.18261634152E+03  0.59146296042E+02 0.  0.
         24    2    1    2    0    0  0.18006431310E+03  0.56619387792E+02  0.38551606238E+03  0.43674126553E+03  0.80569142588E+02 0.  0.
        -13    1    4    4    0    0  0.28320617599E+02  0.30573664035E+02  0.14746062416E+03  0.15323655566E+03  0.00000000000E+00 0.  1.
         14    1    4    4    0    0  0.15174369550E+03  0.26045723757E+02  0.23805543821E+03  0.28350470986E+03  0.00000000000E+00 0. -1.
        -13    1    3    3    0    0 -0.32672080060E+02 -0.27533872743E+02  0.10669520237E+03  0.11493235042E+03  0.00000000000E+00 0.  1.
         13    1    3    3    0    0 -0.52814703527E+02  0.60258231622E+01  0.41897723068E+02  0.67683991104E+02  0.00000000000E+00 0. -1.
          1    1    1    2  501    0 -0.94577529515E+02 -0.35111338211E+02  0.16540411747E+03  0.19374270886E+03  0.00000000000E+00 0. -1.
<scales pt_clust_5="13000.00000" pt_clust_6="13000.00000" pt_clust_7="13000.00000" pt_clust_8="13000.00000" pt_clust_9="100.88466"></scales>
<clustering>
<clus scale="   59.146">  7  8 -1 -1</clus>
<clus scale="   80.569">  5  6 -1 -1</clus>
<clus scale="  100.885">  2  9  1 -1</clus>
<clus scale="  141.232">  1  7  2 -1</clus>
<clus scale="  100.885">  2  5  1 -1</clus>
</clustering>
</event>
<event>
 9    2  0.1488992E-004  0.1002953E+03  0.7546771E-02  0.1284044E+00
         -3   -1    0    0    0  501 -0.00000000000E+00  0.00000000000E+00  0.17169286347E+03  0.17169286347E+03  0.00000000000E+00 0.  1.
         21   -1    0    0  501  502  0.00000000000E+00 -0.00000000000E+00 -0.15179641586E+03  0.15179641586E+03  0.00000000000E+00 0. -1.
         23    2    1    2    0    0  0.71046697971E+01  0.26333139072E+02  0.84900555559E+02  0.12837178018E+03  0.92343375859E+02 0.  0.
         24    2    1    2    0    0  0.16551343153E+02 -0.71361100277E+02  0.17710567747E+01  0.11117676493E+03  0.83610901350E+02 0.  0.
        -13    1    4    4    0    0 -0.13835662146E+02 -0.16011427625E+02  0.34181958085E+02  0.40201960401E+02  0.00000000000E+00 0.  1.
         14    1    4    4    0    0  0.30387005299E+02 -0.55349672652E+02 -0.32410901310E+02  0.70974804525E+02  0.00000000000E+00 0. -1.
        -13    1    3    3    0    0  0.33015319896E+02 -0.22085410914E+02  0.24181813638E+02  0.46503084133E+02  0.00000000000E+00 0. -1.
         13    1    3    3    0    0 -0.25910650099E+02  0.48418549986E+02  0.60718741921E+02  0.81868696043E+02  0.00000000000E+00 0.  1.
         -4    1    1    2    0  502 -0.23656012950E+02  0.45027961205E+02 -0.66775164723E+02  0.83940734228E+02  0.00000000000E+00 0.  1.
<scales pt_clust_5="13000.00000" pt_clust_6="13000.00000" pt_clust_7="13000.00000" pt_clust_8="13000.00000" pt_clust_9="50.86378"></scales>
<clustering>
<clus scale="   50.864">  2  9  1 -1</clus>
<clus scale="   83.611">  5  6 -1 -1</clus>
<clus scale="   92.318">  2  5  1 -1</clus>
<clus scale="   92.343">  7  8 -1 -1</clus>
<clus scale="   50.864">  2  5  1 -1</clus>
</clustering>
</event>
<event>
 9    2  0.1488992E-004  0.1859427E+03  0.7546771E-02  0.1198829E+00
          2   -1    0    0  502    0 -0.00000000000E+00  0.00000000000E+00  0.15561117143E+04  0.15561117143E+04  0.00000000000E+00 0. -1.
         21   -1    0    0  501  502  0.00000000000E+00 -0.00000000000E+00 -0.40145970800E+02  0.40145970800E+02  0.00000000000E+00 0.  1.
         24    2    1    2    0    0  0.14928794999E+02 -0.52418630211E+01  0.70076440656E+03  0.70550047941E+03  0.80061394569E+02 0.  0.
         23    2    1    2    0    0  0.14328654266E+03  0.55774112792E+02  0.54441079069E+03  0.57308894905E+03  0.91684510889E+02 0.  0.
        -13    1    3    3    0    0  0.54065760722E+01  0.34980821548E+02  0.20658695879E+03  0.20959737709E+03  0.00000000000E+00 0.  1.
         14    1    3    3    0    0  0.95222189269E+01 -0.40222684570E+02  0.49417744777E+03  0.49590310232E+03  0.00000000000E+00 0. -1.
        -13    1    4    4    0    0  0.99698520722E+01 -0.19065062661E+02  0.33673879537E+02  0.39960039135E+02  0.00000000000E+00 0. -1.
         13    1    4    4    0    0  0.13331669059E+03  0.74839175453E+02  0.51073691115E+03  0.53312890991E+03  0.00000000000E+00 0.  1.
          1    1    1    2  501    0 -0.15821533766E+03 -0.50532249771E+02  0.27079054626E+03  0.31766825664E+03  0.00000000000E+00 0. -1.
<scales pt_clust_5="13000.00000" pt_clust_6="13000.00000" pt_clust_7="13000.00000" pt_clust_8="13000.00000" pt_clust_9="161.76724"></scales>
<clustering>
<clus scale="   80.061">  5  6 -1 -1</clus>
<clus scale="   81.610">  1  5  2 -1</clus>
<clus scale="   91.685">  7  8 -1 -1</clus>
<clus scale="  161.767">  2  9  1 -1</clus>
<clus scale="  161.767">  2  5  1 -1</clus>
</clustering>
</event>
<event>
 9    2  0.1488992E-004  0.2769087E+03  0.7546771E-02  0.1097948E+00
         21   -1    0    0  501  502  0.00000000000E+00  0.00000000000E+00  0.66332560193E+02  0.66332560193E+02  0.00000000000E+00 0. -1.
          2   -1    0    0  502    0 -0.00000000000E+00 -0.00000000000E+00 -0.20133001581E+04  0.20133001581E+04  0.00000000000E+00 0. -1.
         23    2    1    2    0    0  0.20571598477E+03  0.48694598941E+02 -0.69639686626E+03  0.73351149102E+03  0.91543878908E+02 0.  0.
         24    2    1    2    0    0 -0.34312005906E+03 -0.39033528663E+02 -0.98892586153E+03  0.10504334629E+04  0.78620030443E+02 0.  0.
        -13    1    4    4    0    0 -0.12854748186E+03 -0.41220162024E+02 -0.30264890212E+03  0.33139087918E+03  0.00000000000E+00 0.  1.
         14    1    4    4    0    0 -0.21457257720E+03  0.21866333609E+01 -0.68627695941E+03  0.71904258376E+03  0.00000000000E+00 0. -1.
        -13    1    3    3    0    0  0.54512142939E+02 -0.25798326895E+02 -0.22258108618E+03  0.23060673738E+03  0.00000000000E+00 0.  1.
         13    1    3    3    0    0  0.15120384183E+03  0.74492925836E+02 -0.47381578008E+03  0.50290475364E+03  0.00000000000E+00 0. -1.
          1    1    1    2  501    0  0.13740407429E+03 -0.96610702781E+01 -0.26164487008E+03  0.29568776429E+03  0.00000000000E+00 0. -1.
<scales pt_clust_5="13000.00000" pt_clust_6="13000.00000" pt_clust_7="13000.00000" pt_clust_8="13000.00000" pt_clust_9="137.74330"></scales>
<clustering>
<clus scale="   78.620">  5  6 -1 -1</clus>
<clus scale="   91.544">  7  8 -1 -1</clus>
<clus scale="  137.743">  1  9  2 -1</clus>
<clus scale="  272.909">  1  5  2 -1</clus>
<clus scale="  137.743">  1  5  2 -1</clus>
</clustering>
</event>
<event>
 9    2  0.1488992E-004  0.1587868E+03  0.7546771E-02  0.1191771E+00
         21   -1    0    0  501  502  0.00000000000E+00  0.00000000000E+00  0.75527582918E+03  0.75527582918E+03  0.00000000000E+00 0.  1.
          2   -1    0    0  502    0 -0.00000000000E+00 -0.00000000000E+00 -0.45818471223E+03  0.45818471223E+03  0.00000000000E+00 0. -1.
         23    2    1    2    0    0  0.12656620519E+03  0.27385322595E+02 -0.39219809837E+03  0.42300730057E+03  0.91361194056E+02 0.  0.
         24    2    1    2    0    0 -0.15757289616E+03  0.34054903131E+02  0.69815251998E+03  0.72106394490E+03  0.80791815501E+02 0.  0.
        -11    1    4    4    0    0 -0.12252068137E+03 -0.68455982910E+01  0.54714435716E+03  0.56073623670E+03  0.00000000000E+00 0.  1.
         12    1    4    4    0    0 -0.35052214785E+02  0.40900501422E+02  0.15100816282E+03  0.16032770820E+03  0.00000000000E+00 0. -1.
        -13    1    3    3    0    0  0.65883709686E+02  0.11352625528E+02 -0.32189074624E+03  0.32876009159E+03  0.00000000000E+00 0. -1.
         13    1    3    3    0    0  0.60682495509E+02  0.16032697067E+02 -0.70307352123E+02  0.94247208972E+02  0.00000000000E+00 0.  1.
          1    1    1    2  501    0  0.31006690965E+02 -0.61440225726E+02 -0.88633046603E+01  0.69389295942E+02  0.00000000000E+00 0. -1.
<scales pt_clust_5="13000.00000" pt_clust_6="13000.00000" pt_clust_7="13000.00000" pt_clust_8="13000.00000" pt_clust_9="68.82093"></scales>
<clustering>
<clus scale="   68.821">  1  9  2 -1</clus>
<clus scale="   80.792">  5  6 -1 -1</clus>
<clus scale="   91.361">  7  8 -1 -1</clus>
<clus scale="  152.950">  1  5  2 -1</clus>
<clus scale="   68.821">  1  5  2 -1</clus>
</clustering>
</event>
<event>
 9    2  0.1488992E-004  0.2299026E+03  0.7546771E-02  0.1128849E+00
         -1   -1    0    0    0  501 -0.00000000000E+00  0.00000000000E+00  0.32455846441E+03  0.32455846441E+03  0.00000000000E+00 0.  1.
         21   -1    0    0  501  502  0.00000000000E+00 -0.00000000000E+00 -0.23434772084E+03  0.23434772084E+03  0.00000000000E+00 0.  1.
         24    2    1    2    0    0  0.25355208583E+02  0.20567894250E+03  0.16235274430E+03  0.27520079243E+03  0.80189454316E+02 0.  0.
         23    2    1    2    0    0 -0.14303364896E+02 -0.18865412245E+03 -0.10740572236E+03  0.24301733794E+03  0.10828884144E+03 0.  0.
        -11    1    3    3    0    0  0.45541115513E+02  0.18786835659E+03  0.12927098957E+03  0.23254999754E+03  0.00000000000E+00 0.  1.
         12    1    3    3    0    0 -0.20185906930E+02  0.17810585903E+02  0.33081754726E+02  0.42650794888E+02  0.00000000000E+00 0. -1.
        -13    1    4    4    0    0 -0.12760496005E+02 -0.64976041722E+02  0.16183497797E+02  0.68166134239E+02  0.00000000000E+00 0. -1.
         13    1    4    4    0    0 -0.15428688910E+01 -0.12367808072E+03 -0.12358922016E+03  0.17485120370E+03  0.00000000000E+00 0.  1.
         -2    1    1    2    0  502 -0.11051843687E+02 -0.17024820051E+02  0.35263721640E+02  0.40688054888E+02  0.00000000000E+00 0.  1.
<scales pt_clust_5="13000.00000" pt_clust_6="13000.00000" pt_clust_7="13000.00000" pt_clust_8="13000.00000" pt_clust_9="20.29749"></scales>
<clustering>
<clus scale="   20.297">  2  9  1 -1</clus>
<clus scale="   80.189">  5  6 -1 -1</clus>
<clus scale="  108.289">  7  8 -1 -1</clus>
<clus scale="  218.080">  1  5  2 -1</clus>
<clus scale="   20.297">  2  5  1 -1</clus>
</clustering>
</event>
<event>
 9    2  0.1488992E-004  0.9545446E+02  0.7546771E-02  0.1296897E+00
         -1   -1    0    0    0  501 -0.00000000000E+00  0.00000000000E+00  0.33463811668E+03  0.33463811668E+03  0.00000000000E+00 0.  1.
         21   -1    0    0  501  502  0.00000000000E+00 -0.00000000000E+00 -0.52265103647E+02  0.52265103647E+02  0.00000000000E+00 0.  1.
         24    2    1    2    0    0 -0.19164565647E+01  0.20301698373E+02  0.11647041199E+03  0.14149570057E+03  0.77716437443E+02 0.  0.
         23    2    1    2    0    0  0.65084036108E+02 -0.32314592143E+02  0.93817335866E+02  0.14881177359E+03  0.89794692650E+02 0.  0.
        -13    1    3    3    0    0 -0.46214703391E+01  0.49235934050E+02  0.87217124550E+02  0.10026146819E+03  0.00000000000E+00 0.  1.
         14    1    3    3    0    0  0.27050137744E+01 -0.28934235677E+02  0.29253287439E+02  0.41234232377E+02  0.00000000000E+00 0. -1.
        -11    1    4    4    0    0  0.43417894073E+02 -0.54060071057E+02  0.95560870616E+02  0.11806559533E+03  0.00000000000E+00 0.  1.
         11    1    4    4    0    0  0.21666142035E+02  0.21745478914E+02 -0.17435347501E+01  0.30746178255E+02  0.00000000000E+00 0. -1.
         -2    1    1    2    0  502 -0.63167579543E+02  0.12012893770E+02  0.72085265183E+02  0.96595746172E+02  0.00000000000E+00 0.  1.
<scales pt_clust_5="13000.00000" pt_clust_6="13000.00000" pt_clust_7="13000.00000" pt_clust_8="13000.00000" pt_clust_9="64.29974"></scales>
<clustering>
<clus scale="   64.300">  2  9  1 -1</clus>
<clus scale="   77.716">  5  6 -1 -1</clus>
<clus scale="   84.192">  1  5  2 -1</clus>
<clus scale="   89.795">  7  8 -1 -1</clus>
<clus scale="   64.300">  2  5  1 -1</clus>
</clustering>
</event>
<event>
 9    2  0.1488992E-004  0.2354426E+03  0.7546771E-02  0.1123362E+00
         -3   -1    0    0    0  501 -0.00000000000E+00  0.00000000000E+00  0.96206405529E+02  0.96206405529E+02  0.00000000000E+00 0.  1.
         21   -1    0    0  501  502  0.00000000000E+00 -0.00000000000E+00 -0.80270941894E+03  0.80270941894E+03  0.00000000000E+00 0.  1.
         23    2    1    2    0    0  0.19893276570E+03  0.33770541484E+02 -0.32196044433E+03  0.39086855287E+03  0.91678804348E+02 0.  0.
         24    2    1    2    0    0 -0.23374400752E+03 -0.27727034853E+02 -0.39822821815E+03  0.47015738482E+03  0.84007161924E+02 0.  0.
        -13    1    4    4    0    0 -0.21719374617E+03 -0.20810330415E+02 -0.30375507049E+03  0.37399643859E+03  0.00000000000E+00 0.  1.
         14    1    4    4    0    0 -0.16550261349E+02 -0.69167044380E+01 -0.94473147662E+02  0.96160946231E+02  0.00000000000E+00 0. -1.
        -11    1    3    3    0    0  0.14141533089E+03 -0.18807863601E+02 -0.18968054837E+03  0.23734098250E+03  0.00000000000E+00 0.  1.
         11    1    3    3    0    0  0.57517434817E+02  0.52578405084E+02 -0.13227989596E+03  0.15352757038E+03  0.00000000000E+00 0. -1.
         -4    1    1    2    0  502  0.34811241819E+02 -0.60435066302E+01  0.13685649073E+02  0.37889886777E+02  0.00000000000E+00 0.  1.
<scales pt_clust_5="13000.00000" pt_clust_6="13000.00000" pt_clust_7="13000.00000" pt_clust_8="13000.00000" pt_clust_9="35.33197"></scales>
<clustering>
<clus scale="   35.332">  2  9  1 -1</clus>
<clus scale="   84.007">  5  6 -1 -1</clus>
<clus scale="   91.679">  7  8 -1 -1</clus>
<clus scale="  232.563">  2  5  1 -1</clus>
<clus scale="   35.332">  2  5  1 -1</clus>
</clustering>
</event>
<event>
 9    2  0.1488992E-004  0.1045701E+03  0.7546771E-02  0.1279592E+00
          2   -1    0    0  502    0 -0.00000000000E+00  0.00000000000E+00  0.29972138374E+03  0.29972138374E+03  0.00000000000E+00 0. -1.
         21   -1    0    0  501  502  0.00000000000E+00 -0.00000000000E+00 -0.94452182666E+02  0.94452182666E+02  0.00000000000E+00 0.  1.
         24    2    1    2    0    0 -0.38546383444E+02  0.44731122336E+02  0.18648996398E+03  0.20903293822E+03  0.73685586199E+02 0.  0.
         23    2    1    2    0    0 -0.23774037755E+02 -0.10714015032E+02 -0.28302214143E+02  0.99948718135E+02  0.92242809704E+02 0.  0.
        -13    1    3    3    0    0  0.82136522586E+01  0.39074803268E+02  0.46284843214E+02  0.61127661866E+02  0.00000000000E+00 0.  1.
         14    1    3    3    0    0 -0.46760035702E+02  0.56563190681E+01  0.14020512077E+03  0.14790527636E+03  0.00000000000E+00 0. -1.
        -13    1    4    4    0    0 -0.13686832618E+02 -0.51632741447E+02 -0.19721069799E+02  0.56940231563E+02  0.00000000000E+00 0.  1.
         13    1    4    4    0    0 -0.10087205138E+02  0.40918726415E+02 -0.85811443443E+01  0.43008486572E+02  0.00000000000E+00 0. -1.
          1    1    1    2  501    0  0.62320421199E+02 -0.34017107304E+02  0.47081451237E+02  0.85191910052E+02  0.00000000000E+00 0. -1.
<scales pt_clust_5="13000.00000" pt_clust_6="13000.00000" pt_clust_7="13000.00000" pt_clust_8="13000.00000" pt_clust_9="71.00002"></scales>
<clustering>
<clus scale="   71.000">  2  9  1 -1</clus>
<clus scale="   73.686">  5  6 -1 -1</clus>
<clus scale="   88.633">  1  5  2 -1</clus>
<clus scale="   92.243">  7  8 -1 -1</clus>
<clus scale="   71.000">  2  5  1 -1</clus>
</clustering>
</event>
<event>
 9    2  0.1488992E-004  0.1386251E+03  0.7546771E-02  0.1237881E+00
          2   -1    0    0  502    0 -0.00000000000E+00  0.00000000000E+00  0.45382310998E+03  0.45382310998E+03  0.00000000000E+00 0. -1.
         21   -1    0    0  501  502  0.00000000000E+00 -0.00000000000E+00 -0.10825150200E+03  0.10825150200E+03  0.00000000000E+00 0. -1.
         24    2    1    2    0    0  0.84996435866E+01 -0.22110412313E+02  0.19062833210E+03  0.20934822581E+03  0.83225022536E+02 0.  0.
         23    2    1    2    0    0 -0.85182515311E+02 -0.44079026638E+02  0.20023590879E+03  0.24176365710E+03  0.95688166582E+02 0.  0.
        -11    1    3    3    0    0  0.99025554949E+01  0.30707787534E+02  0.54629038641E+02  0.63445730222E+02  0.00000000000E+00 0.  1.
         12    1    3    3    0    0 -0.14029119083E+01 -0.52818199847E+02  0.13599929346E+03  0.14590249559E+03  0.00000000000E+00 0. -1.
        -11    1    4    4    0    0 -0.36086657193E+02 -0.18516432655E+02  0.75135856408E+01  0.41249958482E+02  0.00000000000E+00 0. -1.
         11    1    4    4    0    0 -0.49095858119E+02 -0.25562593983E+02  0.19272232315E+03  0.20051369862E+03  0.00000000000E+00 0.  1.
          1    1    1    2  501    0  0.76682871725E+02  0.66189438951E+02 -0.45292632916E+02  0.11096272906E+03  0.00000000000E+00 0. -1.
<scales pt_clust_5="13000.00000" pt_clust_6="13000.00000" pt_clust_7="13000.00000" pt_clust_8="13000.00000" pt_clust_9="100.30303"></scales>
<clustering>
<clus scale="   83.225">  5  6 -1 -1</clus>
<clus scale="   86.530">  1  5  2 -1</clus>
<clus scale="   95.688">  7  8 -1 -1</clus>
<clus scale="  100.303">  2  9  1 -1</clus>
<clus scale="  100.303">  2  5  1 -1</clus>
</clustering>
</event>
<event>
 9    2  0.1488992E-004  0.2076433E+03  0.7546771E-02  0.1144403E+00
         -1   -1    0    0    0  501 -0.00000000000E+00  0.00000000000E+00  0.39969848496E+03  0.39969848496E+03  0.00000000000E+00 0.  1.
         21   -1    0    0  501  502  0.00000000000E+00 -0.00000000000E+00 -0.23630553960E+03  0.23630553960E+03  0.00000000000E+00 0.  1.
         23    2    1    2    0    0 -0.92782492428E+02  0.16859014677E+03  0.27028372447E+03  0.34414018581E+03  0.91367101774E+02 0.  0.
         24    2    1    2    0    0  0.66207182903E+02 -0.15788927608E+03 -0.83050743945E+01  0.18919983881E+03  0.80094882331E+02 0.  0.
        -11    1    4    4    0    0  0.57591743711E+01 -0.11441027932E+03 -0.54260961610E+01  0.11468357609E+03  0.00000000000E+00 0.  1.
         12    1    4    4    0    0  0.60448008532E+02 -0.43478996755E+02 -0.28789782335E+01  0.74516262721E+02  0.00000000000E+00 0. -1.
        -13    1    3    3    0    0 -0.92391107632E+02  0.14833265034E+03  0.17719117122E+03  0.24886824443E+03  0.00000000000E+00 0. -1.
         13    1    3    3    0    0 -0.39138479603E+00  0.20257496428E+02  0.93092553254E+02  0.95271941383E+02  0.00000000000E+00 0.  1.
         -2    1    1    2    0  502  0.26575309525E+02 -0.10700870691E+02 -0.98585704720E+02  0.10266399995E+03  0.00000000000E+00 0.  1.
<scales pt_clust_5="13000.00000" pt_clust_6="13000.00000" pt_clust_7="13000.00000" pt_clust_8="13000.00000" pt_clust_9="28.64883"></scales>
<clustering>
<clus scale="   28.649">  2  9  1 -1</clus>
<clus scale="   80.095">  5  6 -1 -1</clus>
<clus scale="   91.367">  7  8 -1 -1</clus>
<clus scale="  202.936">  2  5  1 -1</clus>
<clus scale="   28.649">  2  5  1 -1</clus>
</clustering>
</event>
<event>
 9    2  0.1488992E-004  0.9174174E+02  0.7546771E-02  0.1303684E+00
         21   -1    0    0  501  502  0.00000000000E+00  0.00000000000E+00  0.20151920473E+03  0.20151920473E+03  0.00000000000E+00 0. -1.
          2   -1    0    0  502    0 -0.00000000000E+00 -0.00000000000E+00 -0.45938703562E+03  0.45938703562E+03  0.00000000000E+00 0. -1.
         24    2    1    2    0    0  0.21788988964E+02  0.10785312872E+02 -0.39517935710E+03  0.40418454076E+03  0.81285519595E+02 0.  0.
         23    2    1    2    0    0  0.12427259335E+02  0.10269122058E+02 -0.21001170150E+02  0.93390898119E+02  0.89559583861E+02 0.  0.
        -11    1    3    3    0    0 -0.24894517149E+02  0.15822951574E+02 -0.75198839260E+02  0.80777275310E+02  0.00000000000E+00 0.  1.
         12    1    3    3    0    0  0.46683506114E+02 -0.50376387013E+01 -0.31998051784E+03  0.32340726545E+03  0.00000000000E+00 0. -1.
        -11    1    4    4    0    0 -0.35745488667E+02 -0.11142365685E+02 -0.14995448853E+02  0.40333060377E+02  0.00000000000E+00 0.  1.
         11    1    4    4    0    0  0.48172748002E+02  0.21411487743E+02 -0.60057212971E+01  0.53057837741E+02  0.00000000000E+00 0. -1.
          1    1    1    2  501    0 -0.34216248299E+02 -0.21054434931E+02  0.15831269637E+03  0.16333080147E+03  0.00000000000E+00 0. -1.
<scales pt_clust_5="13000.00000" pt_clust_6="13000.00000" pt_clust_7="13000.00000" pt_clust_8="13000.00000" pt_clust_9="40.17513"></scales>
<clustering>
<clus scale="   40.175">  1  9  2 -1</clus>
<clus scale="   81.286">  5  6 -1 -1</clus>
<clus scale="   83.684">  2  5  1 -1</clus>
<clus scale="   89.560">  7  8 -1 -1</clus>
<clus scale="   40.175">  1  5  2 -1</clus>
</clustering>
</event>
<event>
 9    2  0.1488992E-004  0.1046809E+03  0.7546771E-02  0.1276019E+00
          2   -1    0    0  502    0 -0.00000000000E+00  0.00000000000E+00  0.52761379837E+03  0.52761379837E+03  0.00000000000E+00 0. -1.
         21   -1    0    0  501  502  0.00000000000E+00 -0.00000000000E+00 -0.18026599855E+03  0.18026599855E+03  0.00000000000E+00 0.  1.
         23    2    1    2    0    0  0.50814778734E+02 -0.42997201182E+01  0.46120828710E+03  0.47284340438E+03  0.90923988279E+02 0.  0.
         24    2    1    2    0    0 -0.70607901967E+02 -0.70831247199E+02 -0.63495376132E+02  0.14244549451E+03  0.79098133450E+02 0.  0.
        -13    1    4    4    0    0 -0.83659359488E+02 -0.38141623444E+02 -0.40990394502E+02  0.10066719580E+03  0.00000000000E+00 0.  1.
         14    1    4    4    0    0  0.13051457521E+02 -0.32689623754E+02 -0.22504981630E+02  0.41778298706E+02  0.00000000000E+00 0. -1.
        -11    1    3    3    0    0 -0.70126474189E+01 -0.34669083924E+02  0.10794559846E+03  0.11359302281E+03  0.00000000000E+00 0.  1.
         11    1    3    3    0    0  0.57827426153E+02  0.30369363806E+02  0.35326268864E+03  0.35925038157E+03  0.00000000000E+00 0. -1.
          1    1    1    2  501    0  0.19793123233E+02  0.75130967317E+02 -0.50365111153E+02  0.92590898034E+02  0.00000000000E+00 0. -1.
<scales pt_clust_5="13000.00000" pt_clust_6="13000.00000" pt_clust_7="13000.00000" pt_clust_8="13000.00000" pt_clust_9="77.69447"></scales>
<clustering>
<clus scale="   77.694">  2  9  1 -1</clus>
<clus scale="   79.098">  5  6 -1 -1</clus>
<clus scale="   90.924">  7  8 -1 -1</clus>
<clus scale="   94.591">  2  5  1 -1</clus>
<clus scale="   77.694">  2  5  1 -1</clus>
</clustering>
</event>
<event>
 9    2  0.1488992E-004  0.1229347E+03  0.7546771E-02  0.1257507E+00
         21   -1    0    0  501  502  0.00000000000E+00  0.00000000000E+00  0.13959805911E+03  0.13959805911E+03  0.00000000000E+00 0.  1.
          2   -1    0    0  502    0 -0.00000000000E+00 -0.00000000000E+00 -0.36431965979E+03  0.36431965979E+03  0.00000000000E+00 0. -1.
         24    2    1    2    0    0 -0.11970120021E+02 -0.19011894973E+02  0.69728864799E+02  0.10894064207E+03  0.80630099746E+02 0.  0.
         23    2    1    2    0    0 -0.51289070159E+02 -0.51375418733E+02 -0.27793870982E+03  0.29891076042E+03  0.82629981906E+02 0.  0.
        -11    1    3    3    0    0 -0.35346262594E+02 -0.38597883561E+02  0.36314936214E+02  0.63701879776E+02  0.00000000000E+00 0.  1.
         12    1    3    3    0    0  0.23376142573E+02  0.19585988588E+02  0.33413928585E+02  0.45238762296E+02  0.00000000000E+00 0. -1.
        -13    1    4    4    0    0 -0.64285343878E+02 -0.16685103816E+02 -0.12498968168E+03  0.14153945971E+03  0.00000000000E+00 0. -1.
         13    1    4    4    0    0  0.12996273719E+02 -0.34690314917E+02 -0.15294902814E+03  0.15737130071E+03  0.00000000000E+00 0.  1.
          1    1    1    2  501    0  0.63259190180E+02  0.70387313705E+02 -0.16511755656E+02  0.96066316406E+02  0.00000000000E+00 0. -1.
<scales pt_clust_5="13000.00000" pt_clust_6="13000.00000" pt_clust_7="13000.00000" pt_clust_8="13000.00000" pt_clust_9="91.02323"></scales>
<clustering>
<clus scale="   80.630">  5  6 -1 -1</clus>
<clus scale="   82.630">  7  8 -1 -1</clus>
<clus scale="   83.702">  2  5  1 -1</clus>
<clus scale="   91.023">  1  9  2 -1</clus>
<clus scale="   91.023">  1  5  2 -1</clus>
</clustering>
</event>
<event>
 9    2  0.1488992E-004  0.1003516E+03  0.7546771E-02  0.1285139E+00
         -1   -1    0    0    0  501 -0.00000000000E+00  0.00000000000E+00  0.12648440711E+03  0.12648440711E+03  0.00000000000E+00 0.  1.
         21   -1    0    0  501  502  0.00000000000E+00 -0.00000000000E+00 -0.58060381336E+03  0.58060381336E+03  0.00000000000E+00 0. -1.
         23    2    1    2    0    0 -0.26588319219E+02  0.18506445562E+02 -0.17037741280E+03  0.19604064573E+03  0.91400463562E+02 0.  0.
         24    2    1    2    0    0  0.24132262453E+02 -0.62226171620E+02 -0.38597539311E+03  0.39983105318E+03  0.80208506252E+02 0.  0.
        -11    1    4    4    0    0  0.31463418850E+02 -0.24567731550E+02 -0.62981969640E+02  0.74567074899E+02  0.00000000000E+00 0.  1.
         12    1    4    4    0    0 -0.73311563969E+01 -0.37658440070E+02 -0.32299342347E+03  0.32526397828E+03  0.00000000000E+00 0. -1.
        -13    1    3    3    0    0 -0.46944438614E+02 -0.21020293840E+01 -0.37720808423E+02  0.60258262773E+02  0.00000000000E+00 0.  1.
         13    1    3    3    0    0  0.20356119395E+02  0.20608474946E+02 -0.13265660438E+03  0.13578238296E+03  0.00000000000E+00 0. -1.
         -2    1    1    2    0  502  0.24560567658E+01  0.43719726057E+02  0.10223339966E+03  0.11121652156E+03  0.00000000000E+00 0.  1.
<scales pt_clust_5="13000.00000" pt_clust_6="13000.00000" pt_clust_7="13000.00000" pt_clust_8="13000.00000" pt_clust_9="43.78868"></scales>
<clustering>
<clus scale="   43.789">  2  9  1 -1</clus>
<clus scale="   80.209">  5  6 -1 -1</clus>
<clus scale="   90.276">  2  5  1 -1</clus>
<clus scale="   91.400">  7  8 -1 -1</clus>
<clus scale="   43.789">  2  5  1 -1</clus>
</clustering>
</event>
<event>
 9    2  0.1488992E-004  0.1344228E+03  0.7546771E-02  0.1238321E+00
         21   -1    0    0  501  502  0.00000000000E+00  0.00000000000E+00  0.30795081482E+03  0.30795081482E+03  0.00000000000E+00 0. -1.
          2   -1    0    0  502    0 -0.00000000000E+00 -0.00000000000E+00 -0.36853790578E+03  0.36853790578E+03  0.00000000000E+00 0. -1.
         23    2    1    2    0    0  0.35876821803E+01  0.28244978787E+02 -0.17829793207E+03  0.20158534620E+03  0.89642896730E+02 0.  0.
         24    2    1    2    0    0  0.93068340163E+02 -0.75039276211E+02 -0.13687025566E+03  0.19859986779E+03  0.80098886927E+02 0.  0.
        -13    1    4    4    0    0  0.83313434941E+02 -0.24060985030E+02 -0.11025052613E+03  0.14026844960E+03  0.00000000000E+00 0.  1.
         14    1    4    4    0    0  0.97549052219E+01 -0.50978291181E+02 -0.26619729537E+02  0.58331418192E+02  0.00000000000E+00 0. -1.
        -13    1    3    3    0    0  0.42875714845E+02  0.25710274322E+02 -0.12995435418E+03  0.13923892882E+03  0.00000000000E+00 0. -1.
         13    1    3    3    0    0 -0.39288032665E+02  0.25347044650E+01 -0.48343577892E+02  0.62346417385E+02  0.00000000000E+00 0.  1.
          1    1    1    2  501    0 -0.96656022343E+02  0.46794297424E+02  0.25458109677E+03  0.27630350660E+03  0.00000000000E+00 0. -1.
<scales pt_clust_5="13000.00000" pt_clust_6="13000.00000" pt_clust_7="13000.00000" pt_clust_8="13000.00000" pt_clust_9="107.95217"></scales>
<clustering>
<clus scale="   80.099">  5  6 -1 -1</clus>
<clus scale="   89.643">  7  8 -1 -1</clus>
<clus scale="   94.056">  2  7  1 -1</clus>
<clus scale="  107.952">  1  9  2 -1</clus>
<clus scale="  107.952">  1  5  2 -1</clus>
</clustering>
</event>
<event>
 9    2  0.1488992E-004  0.1244105E+03  0.7546771E-02  0.1239193E+00
         21   -1    0    0  501  502  0.00000000000E+00  0.00000000000E+00  0.38431322049E+02  0.38431322049E+02  0.00000000000E+00 0.  1.
          2   -1    0    0  502    0 -0.00000000000E+00 -0.00000000000E+00 -0.12642889437E+04  0.12642889437E+04  0.00000000000E+00 0. -1.
         24    2    1    2    0    0  0.74971271087E+02 -0.42279043602E+02 -0.10889831222E+04  0.10953195224E+04  0.80202286186E+02 0.  0.
         23    2    1    2    0    0 -0.73150161336E+02  0.21200553616E+02 -0.14244945083E+03  0.18552154621E+03  0.91246854675E+02 0.  0.
        -13    1    3    3    0    0  0.20544244494E+02 -0.24351063662E+02 -0.10641709853E+03  0.11108392837E+03  0.00000000000E+00 0.  1.
         14    1    3    3    0    0  0.54427026593E+02 -0.17927979940E+02 -0.98256602369E+03  0.98423559405E+03  0.00000000000E+00 0. -1.
        -11    1    4    4    0    0 -0.35011961321E+01  0.38294688182E+02 -0.19333607123E+02  0.43041025565E+02  0.00000000000E+00 0.  1.
         11    1    4    4    0    0 -0.69648965204E+02 -0.17094134565E+02 -0.12311584371E+03  0.14248052064E+03  0.00000000000E+00 0. -1.
          1    1    1    2  501    0 -0.18211097512E+01  0.21078489985E+02  0.55749514473E+01  0.21879197070E+02  0.00000000000E+00 0. -1.
<scales pt_clust_5="13000.00000" pt_clust_6="13000.00000" pt_clust_7="13000.00000" pt_clust_8="13000.00000" pt_clust_9="21.15701"></scales>
<clustering>
<clus scale="   21.157">  1  9  2 -1</clus>
<clus scale="   80.202">  5  6 -1 -1</clus>
<clus scale="   91.247">  7  8 -1 -1</clus>
<clus scale="  116.552">  2  5  1 -1</clus>
<clus scale="   21.157">  1  5  2 -1</clus>
</clustering>
</event>
<event>
 9    2  0.1488992E-004  0.1033365E+03  0.7546771E-02  0.1279991E+00
         21   -1    0    0  501  502  0.00000000000E+00  0.00000000000E+00  0.11968374477E+03  0.11968374477E+03  0.00000000000E+00 0.  1.
          2   -1    0    0  502    0 -0.00000000000E+00 -0.00000000000E+00 -0.39900863481E+03  0.39900863481E+03  0.00000000000E+00 0. -1.
         23    2    1    2    0    0  0.10076282583E+02  0.51776529520E+02 -0.33592856688E+03  0.35254493769E+03  0.93046174374E+02 0.  0.
         24    2    1    2    0    0  0.24407382581E+02  0.11414945938E+02  0.36870095735E+02  0.91503621269E+02  0.79293678378E+02 0.  0.
        -11    1    4    4    0    0  0.28045399001E+02  0.12889717632E+01  0.59862030494E+02  0.66118594572E+02  0.00000000000E+00 0.  1.
         12    1    4    4    0    0 -0.36380164198E+01  0.10125974175E+02 -0.22991934759E+02  0.25385026698E+02  0.00000000000E+00 0. -1.
        -13    1    3    3    0    0  0.23376496208E+02 -0.21736378807E+02 -0.88290857384E+02  0.93884004155E+02  0.00000000000E+00 0.  1.
         13    1    3    3    0    0 -0.13300213625E+02  0.73512908327E+02 -0.24763770950E+03  0.25866093354E+03  0.00000000000E+00 0. -1.
          1    1    1    2  501    0 -0.34483665164E+02 -0.63191475458E+02  0.19733581110E+02  0.74643820622E+02  0.00000000000E+00 0. -1.
<scales pt_clust_5="13000.00000" pt_clust_6="13000.00000" pt_clust_7="13000.00000" pt_clust_8="13000.00000" pt_clust_9="71.98809"></scales>
<clustering>
<clus scale="   71.988">  1  9  2 -1</clus>
<clus scale="   79.294">  5  6 -1 -1</clus>
<clus scale="   91.150">  1  5  2 -1</clus>
<clus scale="   93.046">  7  8 -1 -1</clus>
<clus scale="   71.988">  1  5  2 -1</clus>
</clustering>
</event>
<event>
 9    2  0.1488992E-004  0.1162724E+03  0.7546771E-02  0.1253398E+00
         -1   -1    0    0    0  501 -0.00000000000E+00  0.00000000000E+00  0.29775163536E+03  0.29775163536E+03  0.00000000000E+00 0.  1.
         21   -1    0    0  501  502  0.00000000000E+00 -0.00000000000E+00 -0.10648818782E+03  0.10648818782E+03  0.00000000000E+00 0. -1.
         24    2    1    2    0    0  0.44425636045E+01 -0.77724675219E+02  0.12934046411E+03  0.17117792552E+03  0.80697366868E+02 0.  0.
         23    2    1    2    0    0 -0.26614145542E+02  0.40751302095E+02 -0.48111112717E+02  0.11488359305E+03  0.92274478702E+02 0.  0.
        -11    1    3    3    0    0 -0.14067752404E+02 -0.60130269282E+02  0.13177171787E+03  0.14552435044E+03  0.00000000000E+00 0.  1.
         12    1    3    3    0    0  0.18510316009E+02 -0.17594405937E+02 -0.24312537656E+01  0.25653575071E+02  0.00000000000E+00 0. -1.
        -11    1    4    4    0    0 -0.35231854939E+02 -0.89791345505E+01  0.10201353385E+02  0.37762098334E+02  0.00000000000E+00 0.  1.
         11    1    4    4    0    0  0.86177093966E+01  0.49730436646E+02 -0.58312466102E+02  0.77121494715E+02  0.00000000000E+00 0. -1.
         -2    1    1    2    0  502  0.22171581938E+02  0.36973373124E+02  0.11003409615E+03  0.11817830461E+03  0.00000000000E+00 0.  1.
<scales pt_clust_5="13000.00000" pt_clust_6="13000.00000" pt_clust_7="13000.00000" pt_clust_8="13000.00000" pt_clust_9="43.11161"></scales>
<clustering>
<clus scale="   43.112">  2  9  1 -1</clus>
<clus scale="   80.697">  5  6 -1 -1</clus>
<clus scale="   92.274">  7  8 -1 -1</clus>
<clus scale="  107.316">  1  5  2 -1</clus>
<clus scale="   43.112">  2  5  1 -1</clus>
</clustering>
</event>
<event>
 9    2  0.1488992E-004  0.1021209E+03  0.7546771E-02  0.1276339E+00
          2   -1    0    0  502    0 -0.00000000000E+00  0.00000000000E+00  0.77297369617E+03  0.77297369617E+03  0.00000000000E+00 0. -1.
         21   -1    0    0  501  502  0.00000000000E+00 -0.00000000000E+00 -0.76021986312E+02  0.76021986312E+02  0.00000000000E+00 0. -1.
         24    2    1    2    0    0  0.31959634513E+02 -0.41956276077E+02  0.54156125510E+03  0.55172134715E+03  0.91247490599E+02 0.  0.
         23    2    1    2    0    0 -0.79981733933E+01  0.26025610639E+02  0.21255048211E+03  0.23328053526E+03  0.92199769519E+02 0.  0.
        -13    1    3    3    0    0  0.15615255021E+02  0.28733178911E+02  0.15549574053E+03  0.15889731616E+03  0.00000000000E+00 0.  1.
         14    1    3    3    0    0  0.16344379492E+02 -0.70689454988E+02  0.38606551457E+03  0.39282403100E+03  0.00000000000E+00 0. -1.
        -11    1    4    4    0    0  0.33455452237E+02 -0.85076265621E+01  0.13119525134E+03  0.13566075692E+03  0.00000000000E+00 0. -1.
         11    1    4    4    0    0 -0.41453625630E+02  0.34533237201E+02  0.81355230770E+02  0.97619778340E+02  0.00000000000E+00 0.  1.
          1    1    1    2  501    0 -0.23961461120E+02  0.15930665438E+02 -0.57160027351E+02  0.63993800067E+02  0.00000000000E+00 0. -1.
<scales pt_clust_5="13000.00000" pt_clust_6="13000.00000" pt_clust_7="13000.00000" pt_clust_8="13000.00000" pt_clust_9="28.77391"></scales>
<clustering>
<clus scale="   28.774">  2  9  1 -1</clus>
<clus scale="   91.247">  5  6 -1 -1</clus>
<clus scale="   92.200">  7  8 -1 -1</clus>
<clus scale="  101.262">  1  5  2 -1</clus>
<clus scale="   28.774">  2  5  1 -1</clus>
</clustering>
</event>
<event>
 9    2  0.1488992E-004  0.9355245E+02  0.7546771E-02  0.1301186E+00
          2   -1    0    0  502    0 -0.00000000000E+00  0.00000000000E+00  0.11104493023E+03  0.11104493023E+03  0.00000000000E+00 0. -1.
         21   -1    0    0  501  502  0.00000000000E+00 -0.00000000000E+00 -0.56630007567E+03  0.56630007567E+03  0.00000000000E+00 0.  1.
         24    2    1    2    0    0 -0.10726503781E+02 -0.16080927130E+01  0.80824862770E+02  0.11531066917E+03  0.81524524757E+02 0.  0.
         23    2    1    2    0    0  0.49434373828E+02 -0.49734304935E+01 -0.22314273757E+03  0.24664354579E+03  0.92584367059E+02 0.  0.
        -11    1    3    3    0    0 -0.25589012316E+02  0.12011324622E+02 -0.36147970825E+01  0.28498003938E+02  0.00000000000E+00 0.  1.
         12    1    3    3    0    0  0.14862508535E+02 -0.13619417335E+02  0.84439659852E+02  0.86812665231E+02  0.00000000000E+00 0. -1.
        -13    1    4    4    0    0  0.56098110911E+02 -0.38614449766E+02 -0.12037765717E+03  0.13830710077E+03  0.00000000000E+00 0.  1.
         13    1    4    4    0    0 -0.66637370836E+01  0.33641019273E+02 -0.10276508040E+03  0.10833644502E+03  0.00000000000E+00 0. -1.
          1    1    1    2  501    0 -0.38707870047E+02  0.65815232065E+01 -0.31293727065E+03  0.31539079094E+03  0.00000000000E+00 0. -1.
<scales pt_clust_5="13000.00000" pt_clust_6="13000.00000" pt_clust_7="13000.00000" pt_clust_8="13000.00000" pt_clust_9="39.26341"></scales>
<clustering>
<clus scale="   39.263">  2  9  1 -1</clus>
<clus scale="   81.525">  5  6 -1 -1</clus>
<clus scale="   82.622">  1  5  2 -1</clus>
<clus scale="   92.584">  7  8 -1 -1</clus>
<clus scale="   39.263">  2  5  1 -1</clus>
</clustering>
</event>
<event>
 9    2  0.1488992E-004  0.9991409E+02  0.7546771E-02  0.1291134E+00
         -3   -1    0    0    0  501 -0.00000000000E+00  0.00000000000E+00  0.17420043604E+03  0.17420043604E+03  0.00000000000E+00 0.  1.
         21   -1    0    0  501  502  0.00000000000E+00 -0.00000000000E+00 -0.21805749477E+03  0.21805749477E+03  0.00000000000E+00 0. -1.
         23    2    1    2    0    0  0.17995400545E+02 -0.27230986905E+01  0.92069640732E+02  0.13651939169E+03  0.99143713143E+02 0.  0.
         24    2    1    2    0    0  0.33376274924E+02 -0.16017550737E+02 -0.16963548702E+03  0.19150036246E+03  0.80781512161E+02 0.  0.
        -11    1    4    4    0    0 -0.48290573004E+01  0.24852435834E+02 -0.21718048958E+02  0.33356213991E+02  0.00000000000E+00 0.  1.
         12    1    4    4    0    0  0.38205332225E+02 -0.40869986571E+02 -0.14791743806E+03  0.15814414847E+03  0.00000000000E+00 0. -1.
        -13    1    3    3    0    0 -0.75093517596E+01  0.43960215719E+02  0.25735986591E+02  0.51490114932E+02  0.00000000000E+00 0.  1.
         13    1    3    3    0    0  0.25504752304E+02 -0.46683314410E+02  0.66333654141E+02  0.85029276758E+02  0.00000000000E+00 0. -1.
         -4    1    1    2    0  502 -0.51371675469E+02  0.18740649428E+02  0.33708787565E+02  0.64238176659E+02  0.00000000000E+00 0.  1.
<scales pt_clust_5="13000.00000" pt_clust_6="13000.00000" pt_clust_7="13000.00000" pt_clust_8="13000.00000" pt_clust_9="54.68331"></scales>
<clustering>
<clus scale="   54.683">  2  9  1 -1</clus>
<clus scale="   80.782">  5  6 -1 -1</clus>
<clus scale="   81.725">  2  5  1 -1</clus>
<clus scale="   99.144">  7  8 -1 -1</clus>
<clus scale="   54.683">  2  5  1 -1</clus>
</clustering>
</event>
<event>
 9    2  0.1488992E-004  0.1060086E+03  0.7546771E-02  0.1273471E+00
         21   -1    0    0  501  502  0.00000000000E+00  0.00000000000E+00  0.53939048719E+02  0.53939048719E+02  0.00000000000E+00 0.  1.
          4   -1    0    0  502    0 -0.00000000000E+00 -0.00000000000E+00 -0.34568500301E+03  0.34568500301E+03  0.00000000000E+00 0. -1.
         24    2    1    2    0    0  0.43398978775E+02  0.24675535076E+02 -0.20946557745E+03  0.22921399815E+03  0.78554919775E+02 0.  0.
         23    2    1    2    0    0 -0.63815106316E+02 -0.22882962664E+02 -0.93571456859E+02  0.14701090685E+03  0.90887795763E+02 0.  0.
        -13    1    3    3    0    0  0.21349108225E+02  0.22809957398E+02 -0.17170276305E+02  0.35649641891E+02  0.00000000000E+00 0.  1.
         14    1    3    3    0    0  0.22049870549E+02  0.18655776774E+01 -0.19229530114E+03  0.19356435626E+03  0.00000000000E+00 0. -1.
        -11    1    4    4    0    0 -0.85893791824E+02 -0.17894345555E+02 -0.59151485611E+02  0.10581516586E+03  0.00000000000E+00 0.  1.
         11    1    4    4    0    0  0.22078685508E+02 -0.49886171092E+01 -0.34419971248E+02  0.41195740983E+02  0.00000000000E+00 0. -1.
          3    1    1    2  501    0  0.20416127541E+02 -0.17925724115E+01  0.11291080022E+02  0.23399146730E+02  0.00000000000E+00 0. -1.
<scales pt_clust_5="13000.00000" pt_clust_6="13000.00000" pt_clust_7="13000.00000" pt_clust_8="13000.00000" pt_clust_9="20.49467"></scales>
<clustering>
<clus scale="   20.495">  1  9  2 -1</clus>
<clus scale="   78.555">  5  6 -1 -1</clus>
<clus scale="   90.888">  7  8 -1 -1</clus>
<clus scale="   95.646">  2  5  1 -1</clus>
<clus scale="   20.495">  1  5  2 -1</clus>
</clustering>
</event>
<event>
 9    2  0.1488992E-004  0.9929114E+02  0.7546771E-02  0.1286724E+00
          2   -1    0    0  502    0 -0.00000000000E+00  0.00000000000E+00  0.39177214535E+03  0.39177214535E+03  0.00000000000E+00 0. -1.
         21   -1    0    0  501  502  0.00000000000E+00 -0.00000000000E+00 -0.69998798040E+02  0.69998798040E+02  0.00000000000E+00 0.  1.
         23    2    1    2    0    0  0.26510929440E+02 -0.29002286033E+02  0.25859612710E+03  0.27661551170E+03  0.90001235481E+02 0.  0.
         24    2    1    2    0    0  0.17407528156E+02  0.73055880235E+02  0.53601495712E+02  0.12221701275E+03  0.80147951871E+02 0.  0.
        -11    1    4    4    0    0  0.17036180856E+02  0.73675659459E+02  0.73678882511E+01  0.75977760116E+02  0.00000000000E+00 0.  1.
         12    1    4    4    0    0  0.37134729972E+00 -0.61977922472E+00  0.46233607461E+02  0.46239252632E+02  0.00000000000E+00 0. -1.
        -11    1    3    3    0    0  0.40030332795E+02  0.44062890227E+01  0.22059882578E+03  0.22424469863E+03  0.00000000000E+00 0. -1.
         11    1    3    3    0    0 -0.13519403356E+02 -0.33408575056E+02  0.37997301312E+02  0.52370813067E+02  0.00000000000E+00 0.  1.
          1    1    1    2  501    0 -0.43918457595E+02 -0.44053594201E+02  0.95757245036E+01  0.62938418946E+02  0.00000000000E+00 0. -1.
<scales pt_clust_5="13000.00000" pt_clust_6="13000.00000" pt_clust_7="13000.00000" pt_clust_8="13000.00000" pt_clust_9="62.20571"></scales>
<clustering>
<clus scale="   62.206">  2  9  1 -1</clus>
<clus scale="   80.148">  5  6 -1 -1</clus>
<clus scale="   90.001">  7  8 -1 -1</clus>
<clus scale="   90.456">  2  5  1 -1</clus>
<clus scale="   62.206">  2  5  1 -1</clus>
</clustering>
</event>
<event>
 9    2  0.1488992E-004  0.1298364E+03  0.7546771E-02  0.1244428E+00
         -1   -1    0    0    0  501 -0.00000000000E+00  0.00000000000E+00  0.19664736505E+03  0.19664736505E+03  0.00000000000E+00 0.  1.
         21   -1    0    0  501  502  0.00000000000E+00 -0.00000000000E+00 -0.87508654565E+03  0.87508654565E+03  0.00000000000E+00 0.  1.
         23    2    1    2    0    0 -0.91429158399E+01 -0.61073699269E+01 -0.11146110241E+03  0.14467135087E+03  0.91571444978E+02 0.  0.
         24    2    1    2    0    0 -0.20293701280E+02 -0.88059631406E+02  0.15500873097E+03  0.19836585257E+03  0.84587066361E+02 0.  0.
        -13    1    4    4    0    0 -0.24022255573E+02 -0.48453783175E+02  0.14851866653E+03  0.15805895158E+03  0.00000000000E+00 0.  1.
         14    1    4    4    0    0  0.37285542935E+01 -0.39605848231E+02  0.64900644376E+01  0.40306900992E+02  0.00000000000E+00 0. -1.
        -13    1    3    3    0    0 -0.29073230247E+02  0.25347546134E+01  0.19021901824E+01  0.29245444524E+02  0.00000000000E+00 0.  1.
         13    1    3    3    0    0  0.19930314407E+02 -0.86421245402E+01 -0.11336329259E+03  0.11542590635E+03  0.00000000000E+00 0. -1.
         -2    1    1    2    0  502  0.29436617120E+02  0.94167001332E+02 -0.72198680916E+03  0.72869670726E+03  0.00000000000E+00 0.  1.
<scales pt_clust_5="13000.00000" pt_clust_6="13000.00000" pt_clust_7="13000.00000" pt_clust_8="13000.00000" pt_clust_9="98.50135"></scales>
<clustering>
<clus scale="   84.587">  5  6 -1 -1</clus>
<clus scale="   91.571">  7  8 -1 -1</clus>
<clus scale="   92.229">  1  7  2 -1</clus>
<clus scale="   98.501">  2  9  1 -1</clus>
<clus scale="   98.501">  2  5  1 -1</clus>
</clustering>
</event>
<event>
 9    2  0.1488992E-004  0.1513957E+03  0.7546771E-02  0.1200710E+00
          2   -1    0    0  502    0 -0.00000000000E+00  0.00000000000E+00  0.65000307420E+03  0.65000307420E+03  0.00000000000E+00 0. -1.
         21   -1    0    0  501  502  0.00000000000E+00 -0.00000000000E+00 -0.68599204846E+02  0.68599204846E+02  0.00000000000E+00 0. -1.
         23    2    1    2    0    0 -0.11455423157E+03 -0.76884130528E+02  0.48104535778E+03  0.50856799962E+03  0.90570041970E+02 0.  0.
         24    2    1    2    0    0  0.51011311273E+02  0.71371490901E+02  0.80386319269E+02  0.14319880694E+03  0.79673674405E+02 0.  0.
        -11    1    4    4    0    0  0.71181971197E+02  0.42950507139E+02  0.50380560615E+02  0.97210184523E+02  0.00000000000E+00 0.  1.
         12    1    4    4    0    0 -0.20170659924E+02  0.28420983762E+02  0.30005758654E+02  0.45988622421E+02  0.00000000000E+00 0. -1.
        -11    1    3    3    0    0 -0.32067451903E+02 -0.72405004229E+02  0.28575656729E+03  0.29652592106E+03  0.00000000000E+00 0. -1.
         11    1    3    3    0    0 -0.82486779669E+02 -0.44791262995E+01  0.19528879049E+03  0.21204207857E+03  0.00000000000E+00 0.  1.
          1    1    1    2  501    0  0.63542920298E+02  0.55126396267E+01  0.19972192302E+02  0.66835472475E+02  0.00000000000E+00 0. -1.
<scales pt_clust_5="13000.00000" pt_clust_6="13000.00000" pt_clust_7="13000.00000" pt_clust_8="13000.00000" pt_clust_9="63.78160"></scales>
<clustering>
<clus scale="   63.782">  2  9  1 -1</clus>
<clus scale="   79.674">  5  6 -1 -1</clus>
<clus scale="   90.570">  7  8 -1 -1</clus>
<clus scale="  145.140">  2  5  1 -1</clus>
<clus scale="   63.782">  2  5  1 -1</clus>
</clustering>
</event>
<event>
 9    2  0.1488992E-004  0.9693517E+02  0.7546771E-02  0.1295076E+00
         21   -1    0    0  501  502  0.00000000000E+00  0.00000000000E+00  0.13514576273E+03  0.13514576273E+03  0.00000000000E+00 0. -1.
         -3   -1    0    0    0  501 -0.00000000000E+00 -0.00000000000E+00 -0.16846791903E+03  0.16846791903E+03  0.00000000000E+00 0.  1.
         24    2    1    2    0    0 -0.78919032658E+01  0.14195551014E+02  0.21091091193E+01  0.80455278896E+02  0.78770602100E+02 0.  0.
         23    2    1    2    0    0  0.21344236574E+02 -0.44792311715E+02  0.60416689301E+02  0.12164999207E+03  0.93202020367E+02 0.  0.
        -11    1    3    3    0    0 -0.83961943984E+01 -0.30638320953E+02  0.12983499092E+02  0.34318712678E+02  0.00000000000E+00 0.  1.
         12    1    3    3    0    0  0.50429113264E+00  0.44833871967E+02 -0.10874389973E+02  0.46136566218E+02  0.00000000000E+00 0. -1.
        -13    1    4    4    0    0 -0.48520075760E+01 -0.35551257895E+02  0.79989610730E+02  0.87668533352E+02  0.00000000000E+00 0. -1.
         13    1    4    4    0    0  0.26196244150E+02 -0.92410538199E+01 -0.19572921428E+02  0.33981458716E+02  0.00000000000E+00 0.  1.
         -4    1    1    2    0  502 -0.13452333308E+02  0.30596760701E+02 -0.95847954728E+02  0.10150841080E+03  0.00000000000E+00 0.  1.
<scales pt_clust_5="13000.00000" pt_clust_6="13000.00000" pt_clust_7="13000.00000" pt_clust_8="13000.00000" pt_clust_9="33.42347"></scales>
<clustering>
<clus scale="   33.423">  1  9  2 -1</clus>
<clus scale="   78.771">  5  6 -1 -1</clus>
<clus scale="   83.154">  2  5  1 -1</clus>
<clus scale="   93.202">  7  8 -1 -1</clus>
<clus scale="   33.423">  1  5  2 -1</clus>
</clustering>
</event>
<event>
 9    2  0.1488992E-004  0.1593273E+03  0.7546771E-02  0.1210909E+00
          2   -1    0    0  502    0 -0.00000000000E+00  0.00000000000E+00  0.49773457043E+03  0.49773457043E+03  0.00000000000E+00 0. -1.
         21   -1    0    0  501  502  0.00000000000E+00 -0.00000000000E+00 -0.10292690692E+03  0.10292690692E+03  0.00000000000E+00 0.  1.
         24    2    1    2    0    0  0.54660636120E+02  0.21945934348E+02  0.23568993128E+03  0.25602687857E+03  0.80812187603E+02 0.  0.
         23    2    1    2    0    0  0.54213248714E+02  0.96265763349E+02  0.56802204303E+02  0.15411951926E+03  0.91214923532E+02 0.  0.
        -13    1    3    3    0    0  0.57513674079E+02  0.46534421983E+02  0.19279174740E+03  0.20649923244E+03  0.00000000000E+00 0.  1.
         14    1    3    3    0    0 -0.28530379591E+01 -0.24588487636E+02  0.42898183887E+02  0.49527646124E+02  0.00000000000E+00 0. -1.
        -13    1    4    4    0    0  0.35230115862E+02  0.29657555416E+02  0.69826673330E+02  0.83645059419E+02  0.00000000000E+00 0. -1.
         13    1    4    4    0    0  0.18983132852E+02  0.66608207933E+02 -0.13024469027E+02  0.70474459844E+02  0.00000000000E+00 0.  1.
          1    1    1    2  501    0 -0.10887388483E+03 -0.11821169770E+03  0.10231552792E+03  0.19051507952E+03  0.00000000000E+00 0. -1.
<scales pt_clust_5="13000.00000" pt_clust_6="13000.00000" pt_clust_7="13000.00000" pt_clust_8="13000.00000" pt_clust_9="130.63326"></scales>
<clustering>
<clus scale="   80.812">  5  6 -1 -1</clus>
<clus scale="   91.215">  7  8 -1 -1</clus>
<clus scale="  100.000">  1  5  2 -1</clus>
<clus scale="  130.633">  2  9  1 -1</clus>
<clus scale="  130.633">  2  5  1 -1</clus>
</clustering>
</event>
<event>
 9    2  0.1488992E-004  0.1080419E+03  0.7546771E-02  0.1268470E+00
         21   -1    0    0  501  502  0.00000000000E+00  0.00000000000E+00  0.33065555209E+03  0.33065555209E+03  0.00000000000E+00 0. -1.
          2   -1    0    0  502    0 -0.00000000000E+00 -0.00000000000E+00 -0.69993201576E+02  0.69993201576E+02  0.00000000000E+00 0. -1.
         23    2    1    2    0    0 -0.43439001993E+02  0.35773290224E+02  0.50326113889E+02  0.11796491811E+03  0.90643968232E+02 0.  0.
         24    2    1    2    0    0  0.37519594493E+02 -0.56915756490E+02  0.23015451342E+03  0.25310669302E+03  0.80279354112E+02 0.  0.
        -11    1    4    4    0    0 -0.38277862302E+01 -0.41966331750E+02  0.18630341181E+03  0.19100991126E+03  0.00000000000E+00 0.  1.
         12    1    4    4    0    0  0.41347380723E+02 -0.14949424741E+02  0.43851101617E+02  0.62096781766E+02  0.00000000000E+00 0. -1.
        -13    1    3    3    0    0  0.17624446456E+02 -0.15837857182E+02  0.38877511945E+00  0.23698311736E+02  0.00000000000E+00 0. -1.
         13    1    3    3    0    0 -0.61063448449E+02  0.51611147407E+02  0.49937338769E+02  0.94266606370E+02  0.00000000000E+00 0.  1.
          1    1    1    2  501    0  0.59194075001E+01  0.21142466266E+02 -0.19818276802E+02  0.29577142532E+02  0.00000000000E+00 0. -1.
<scales pt_clust_5="13000.00000" pt_clust_6="13000.00000" pt_clust_7="13000.00000" pt_clust_8="13000.00000" pt_clust_9="21.95549"></scales>
<clustering>
<clus scale="   21.955">  1  9  2 -1</clus>
<clus scale="   80.279">  5  6 -1 -1</clus>
<clus scale="   90.644">  7  8 -1 -1</clus>
<clus scale="   99.506">  1  5  2 -1</clus>
<clus scale="   21.955">  1  5  2 -1</clus>
</clustering>
</event>
<event>
 9    2  0.1488992E-004  0.9183999E+02  0.7546771E-02  0.1307492E+00
          2   -1    0    0  502    0 -0.00000000000E+00  0.00000000000E+00  0.58928323855E+02  0.58928323855E+02  0.00000000000E+00 0. -1.
         21   -1    0    0  501  502  0.00000000000E+00 -0.00000000000E+00 -0.32116929402E+03  0.32116929402E+03  0.00000000000E+00 0. -1.
         24    2    1    2    0    0  0.77986981504E+01 -0.15762570680E+00  0.53771677218E+01  0.77528041488E+02  0.76946986592E+02 0.  0.
         23    2    1    2    0    0 -0.31179346568E+02 -0.28654071237E+02 -0.22264801322E+03  0.24426794079E+03  0.91112467064E+02 0.  0.
        -11    1    3    3    0    0 -0.33893187338E+02 -0.38215106823E+01  0.96797495732E+01  0.35454895905E+02  0.00000000000E+00 0.  1.
         12    1    3    3    0    0  0.41691885488E+02  0.36638849755E+01 -0.43025818514E+01  0.42073145583E+02  0.00000000000E+00 0. -1.
        -13    1    4    4    0    0  0.15153295718E+02  0.25154684811E+02 -0.60314736905E+02  0.67083887984E+02  0.00000000000E+00 0.  1.
         13    1    4    4    0    0 -0.46332642286E+02 -0.53808756048E+02 -0.16233327631E+03  0.17718405280E+03  0.00000000000E+00 0. -1.
          1    1    1    2  501    0  0.23380648417E+02  0.28811696943E+02 -0.44970124669E+02  0.58301635602E+02  0.00000000000E+00 0. -1.
<scales pt_clust_5="13000.00000" pt_clust_6="13000.00000" pt_clust_7="13000.00000" pt_clust_8="13000.00000" pt_clust_9="37.10483"></scales>
<clustering>
<clus scale="   37.105">  2  9  1 -1</clus>
<clus scale="   76.947">  5  6 -1 -1</clus>
<clus scale="   77.807">  1  5  2 -1</clus>
<clus scale="   91.112">  7  8 -1 -1</clus>
<clus scale="   37.105">  2  5  1 -1</clus>
</clustering>
</event>
<event>
 9    2  0.1488992E-004  0.1279813E+03  0.7546771E-02  0.1233139E+00
         21   -1    0    0  501  502  0.00000000000E+00  0.00000000000E+00  0.34843672674E+02  0.34843672674E+02  0.00000000000E+00 0. -1.
          2   -1    0    0  502    0 -0.00000000000E+00 -0.00000000000E+00 -0.93089066622E+03  0.93089066622E+03  0.00000000000E+00 0. -1.
         23    2    1    2    0    0 -0.82363001655E+02 -0.48124216945E+02 -0.68919482038E+03  0.70181032169E+03  0.91916390834E+02 0.  0.
         24    2    1    2    0    0  0.45471915250E+02  0.46466697498E+02 -0.80059237164E+02  0.13186286376E+03  0.82167416479E+02 0.  0.
        -11    1    4    4    0    0  0.22182632301E+02 -0.22729489260E+02 -0.24983218404E+02  0.40408663176E+02  0.00000000000E+00 0.  1.
         12    1    4    4    0    0  0.23289282949E+02  0.69196186758E+02 -0.55076018760E+02  0.91454200585E+02  0.00000000000E+00 0. -1.
        -11    1    3    3    0    0  0.29187927005E+01 -0.44807896508E+02 -0.18022762587E+03  0.18573708318E+03  0.00000000000E+00 0.  1.
         11    1    3    3    0    0 -0.85281794356E+02 -0.33163204378E+01 -0.50896719451E+03  0.51607323852E+03  0.00000000000E+00 0. -1.
          1    1    1    2  501    0  0.36891086405E+02  0.16575194479E+01 -0.12679293601E+03  0.13206115344E+03  0.00000000000E+00 0. -1.
<scales pt_clust_5="13000.00000" pt_clust_6="13000.00000" pt_clust_7="13000.00000" pt_clust_8="13000.00000" pt_clust_9="36.92832"></scales>
<clustering>
<clus scale="   36.928">  1  9  2 -1</clus>
<clus scale="   82.167">  5  6 -1 -1</clus>
<clus scale="   91.916">  7  8 -1 -1</clus>
<clus scale="  121.170">  1  5  2 -1</clus>
<clus scale="   36.928">  1  5  2 -1</clus>
</clustering>
</event>
<event>
 9    2  0.1488992E-004  0.1120241E+03  0.7546771E-02  0.1256934E+00
         21   -1    0    0  501  502  0.00000000000E+00  0.00000000000E+00  0.91664181106E+02  0.91664181106E+02  0.00000000000E+00 0.  1.
         -1   -1    0    0    0  501 -0.00000000000E+00 -0.00000000000E+00 -0.19736780860E+03  0.19736780860E+03  0.00000000000E+00 0.  1.
         24    2    1    2    0    0  0.62093092141E+02  0.33129192024E+02 -0.57579752093E+02  0.12843902814E+03  0.90708658031E+02 0.  0.
         23    2    1    2    0    0 -0.42740398500E+02 -0.42586176265E+02 -0.10152172496E+01  0.10879347340E+03  0.90524389613E+02 0.  0.
        -11    1    3    3    0    0  0.25149676764E+02  0.59976888529E+02 -0.50246605636E+02  0.82185490063E+02  0.00000000000E+00 0.  1.
         12    1    3    3    0    0  0.36943415377E+02 -0.26847696505E+02 -0.73331464572E+01  0.46253538074E+02  0.00000000000E+00 0. -1.
        -13    1    4    4    0    0 -0.18630139106E+02 -0.67568964467E+02  0.13118526358E+02  0.71307382339E+02  0.00000000000E+00 0.  1.
         13    1    4    4    0    0 -0.24110259394E+02  0.24982788202E+02 -0.14133743607E+02  0.37486091057E+02  0.00000000000E+00 0. -1.
         -2    1    1    2    0  502 -0.19352693641E+02  0.94569842411E+01 -0.47108658152E+02  0.51799488173E+02  0.00000000000E+00 0.  1.
<scales pt_clust_5="13000.00000" pt_clust_6="13000.00000" pt_clust_7="13000.00000" pt_clust_8="13000.00000" pt_clust_9="21.53977"></scales>
<clustering>
<clus scale="   21.540">  1  9  2 -1</clus>
<clus scale="   90.524">  7  8 -1 -1</clus>
<clus scale="   90.709">  5  6 -1 -1</clus>
<clus scale="  111.875">  1  7  2 -1</clus>
<clus scale="   21.540">  1  5  2 -1</clus>
</clustering>
</event>
<event>
 9    2  0.1488992E-004  0.2121397E+03  0.7546771E-02  0.1139883E+00
          2   -1    0    0  502    0 -0.00000000000E+00  0.00000000000E+00  0.91821522094E+03  0.91821522094E+03  0.00000000000E+00 0. -1.
         21   -1    0    0  501  502  0.00000000000E+00 -0.00000000000E+00 -0.27835480751E+02  0.27835480751E+02  0.00000000000E+00 0. -1.
         24    2    1    2    0    0  0.48484697556E+02  0.63841091954E+02  0.34303685213E+03  0.36103863087E+03  0.79045304388E+02 0.  0.
         23    2    1    2    0    0  0.16168315476E+02  0.21309521817E+02  0.27766628117E+03  0.29491534312E+03  0.95713038611E+02 0.  0.
        -11    1    3    3    0    0 -0.18135067947E+02  0.36083773771E+02  0.12681524919E+03  0.13309029584E+03  0.00000000000E+00 0.  1.
         12    1    3    3    0    0  0.66619765503E+02  0.27757318183E+02  0.21622160294E+03  0.22794833504E+03  0.00000000000E+00 0. -1.
        -13    1    4    4    0    0  0.13327791670E+02  0.55697662477E+02  0.11313185457E+03  0.12680171984E+03  0.00000000000E+00 0. -1.
         13    1    4    4    0    0  0.28405238062E+01 -0.34388140660E+02  0.16453442660E+03  0.16811362327E+03  0.00000000000E+00 0.  1.
          1    1    1    2  501    0 -0.64653013032E+02 -0.85150613771E+02  0.26967660689E+03  0.29009672770E+03  0.00000000000E+00 0. -1.
<scales pt_clust_5="13000.00000" pt_clust_6="13000.00000" pt_clust_7="13000.00000" pt_clust_8="13000.00000" pt_clust_9="106.91417"></scales>
<clustering>
<clus scale="   79.045">  5  6 -1 -1</clus>
<clus scale="   95.713">  7  8 -1 -1</clus>
<clus scale="   95.756">  5  7 -1 -1</clus>
<clus scale="  106.914">  2  9  1 -1</clus>
<clus scale="  106.914">  2  5  1 -1</clus>
</clustering>
</event>
<event>
 9    2  0.1488992E-004  0.9375801E+02  0.7546771E-02  0.1303275E+00
         21   -1    0    0  501  502  0.00000000000E+00  0.00000000000E+00  0.38470238079E+02  0.38470238079E+02  0.00000000000E+00 0.  1.
          2   -1    0    0  502    0 -0.00000000000E+00 -0.00000000000E+00 -0.52350592601E+03  0.52350592601E+03  0.00000000000E+00 0. -1.
         24    2    1    2    0    0 -0.10856374345E+02  0.10461401667E+00 -0.25990243751E+03  0.27128000875E+03  0.76978531515E+02 0.  0.
         23    2    1    2    0    0  0.53649604533E+02  0.55660649754E+01 -0.65220307727E+02  0.12505930440E+03  0.92069973010E+02 0.  0.
        -13    1    3    3    0    0  0.30167182893E+01  0.35641889012E+02 -0.84182185970E+02  0.91466306782E+02  0.00000000000E+00 0.  1.
         14    1    3    3    0    0 -0.13873092634E+02 -0.35537274995E+02 -0.17572025154E+03  0.17981370197E+03  0.00000000000E+00 0. -1.
        -13    1    4    4    0    0  0.47398441896E+02 -0.18049562314E+02 -0.81292874762E+02  0.95817172161E+02  0.00000000000E+00 0. -1.
         13    1    4    4    0    0  0.62511626371E+01  0.23615627289E+02  0.16072567035E+02  0.29242132235E+02  0.00000000000E+00 0.  1.
          1    1    1    2  501    0 -0.42793230188E+02 -0.56706789920E+01 -0.15991294269E+03  0.16563685094E+03  0.00000000000E+00 0. -1.
<scales pt_clust_5="13000.00000" pt_clust_6="13000.00000" pt_clust_7="13000.00000" pt_clust_8="13000.00000" pt_clust_9="43.16734"></scales>
<clustering>
<clus scale="   43.167">  1  9  2 -1</clus>
<clus scale="   76.979">  5  6 -1 -1</clus>
<clus scale="   78.990">  2  5  1 -1</clus>
<clus scale="   92.070">  7  8 -1 -1</clus>
<clus scale="   43.167">  1  5  2 -1</clus>
</clustering>
</event>
<event>
 9    2  0.1488992E-004  0.1218564E+03  0.7546771E-02  0.1242862E+00
         21   -1    0    0  501  502  0.00000000000E+00  0.00000000000E+00  0.16857453066E+03  0.16857453066E+03  0.00000000000E+00 0. -1.
          2   -1    0    0  502    0 -0.00000000000E+00 -0.00000000000E+00 -0.44579812291E+03  0.44579812291E+03  0.00000000000E+00 0. -1.
         24    2    1    2    0    0 -0.43635510044E+01  0.82429539330E+02 -0.40648118305E+03  0.42265804404E+03  0.81235463237E+02 0.  0.
         23    2    1    2    0    0  0.23963322990E+02 -0.66155045682E+02  0.94164216003E+02  0.14834924132E+03  0.90497883440E+02 0.  0.
        -11    1    3    3    0    0  0.12977352903E+02  0.73442338786E+02 -0.17338051261E+03  0.18874053875E+03  0.00000000000E+00 0.  1.
         12    1    3    3    0    0 -0.17340903907E+02  0.89872005444E+01 -0.23310067044E+03  0.23391750530E+03  0.00000000000E+00 0. -1.
        -11    1    4    4    0    0  0.15947348235E+02  0.17137903912E+02  0.14457560044E+01  0.23454549168E+02  0.00000000000E+00 0. -1.
         11    1    4    4    0    0  0.80159747550E+01 -0.83292949594E+02  0.92718459999E+02  0.12489469215E+03  0.00000000000E+00 0.  1.
          1    1    1    2  501    0 -0.19599771986E+02 -0.16274493648E+02  0.35093374793E+02  0.43365368208E+02  0.00000000000E+00 0. -1.
<scales pt_clust_5="13000.00000" pt_clust_6="13000.00000" pt_clust_7="13000.00000" pt_clust_8="13000.00000" pt_clust_9="25.47568"></scales>
<clustering>
<clus scale="   25.476">  1  9  2 -1</clus>
<clus scale="   81.235">  5  6 -1 -1</clus>
<clus scale="   90.498">  7  8 -1 -1</clus>
<clus scale="  115.145">  2  5  1 -1</clus>
<clus scale="   25.476">  1  5  2 -1</clus>
</clustering>
</event>
<event>
 9    2  0.1488992E-004  0.1351804E+03  0.7546771E-02  0.1242917E+00
          2   -1    0    0  502    0 -0.00000000000E+00  0.00000000000E+00  0.47559956470E+03  0.47559956470E+03  0.00000000000E+00 0. -1.
         21   -1    0    0  501  502  0.00000000000E+00 -0.00000000000E+00 -0.14014767706E+03  0.14014767706E+03  0.00000000000E+00 0. -1.
         24    2    1    2    0    0 -0.86187364526E+01 -0.23943392045E+02  0.32756200172E+03  0.33822303688E+03  0.80314314215E+02 0.  0.
         23    2    1    2    0    0  0.30595841486E+02  0.10994298769E+03  0.73039541164E+02  0.16741788727E+03  0.98338234401E+02 0.  0.
        -13    1    3    3    0    0 -0.26530000345E+00  0.29314258584E+02  0.91397924413E+02  0.95984252498E+02  0.00000000000E+00 0.  1.
         14    1    3    3    0    0 -0.83534364492E+01 -0.53257650630E+02  0.23616407731E+03  0.24223878439E+03  0.00000000000E+00 0. -1.
        -13    1    4    4    0    0  0.22236486189E+02  0.78098587860E+01  0.59568755305E+02  0.64061625181E+02  0.00000000000E+00 0.  1.
         13    1    4    4    0    0  0.83593552980E+01  0.10213312890E+03  0.13470785859E+02  0.10335626209E+03  0.00000000000E+00 0. -1.
          1    1    1    2  501    0 -0.21977105034E+02 -0.85999595645E+02 -0.65149655244E+02  0.11010631760E+03  0.00000000000E+00 0. -1.
<scales pt_clust_5="13000.00000" pt_clust_6="13000.00000" pt_clust_7="13000.00000" pt_clust_8="13000.00000" pt_clust_9="92.75420"></scales>
<clustering>
<clus scale="   80.314">  5  6 -1 -1</clus>
<clus scale="   84.249">  1  5  2 -1</clus>
<clus scale="   92.754">  2  9  1 -1</clus>
<clus scale="   98.338">  7  8 -1 -1</clus>
<clus scale="   92.754">  2  5  1 -1</clus>
</clustering>
</event>
<event>
 9    2  0.1488992E-004  0.1249613E+03  0.7546771E-02  0.1241232E+00
          2   -1    0    0  502    0 -0.00000000000E+00  0.00000000000E+00  0.59463355148E+03  0.59463355148E+03  0.00000000000E+00 0. -1.
         21   -1    0    0  501  502  0.00000000000E+00 -0.00000000000E+00 -0.18015871613E+03  0.18015871613E+03  0.00000000000E+00 0. -1.
         24    2    1    2    0    0 -0.21452148215E+02  0.73175166518E+02  0.30601868905E+03  0.32530807515E+03  0.79769079581E+02 0.  0.
         23    2    1    2    0    0  0.70657314120E+02  0.42721882400E+02 -0.13026450146E+03  0.17959380365E+03  0.92018904017E+02 0.  0.
        -13    1    3    3    0    0 -0.49944954469E+02  0.32808726753E+02  0.14351434043E+03  0.15545828038E+03  0.00000000000E+00 0.  1.
         14    1    3    3    0    0  0.28492806254E+02  0.40366439765E+02  0.16250434862E+03  0.16984979478E+03  0.00000000000E+00 0. -1.
        -11    1    4    4    0    0  0.29277380771E+02  0.83538921797E+01 -0.12129814702E+03  0.12506075727E+03  0.00000000000E+00 0. -1.
         11    1    4    4    0    0  0.41379933349E+02  0.34367990221E+02 -0.89663544389E+01  0.54533046382E+02  0.00000000000E+00 0.  1.
          1    1    1    2  501    0 -0.49205165905E+02 -0.11589704892E+03  0.23872064776E+03  0.26989038880E+03  0.00000000000E+00 0. -1.
<scales pt_clust_5="13000.00000" pt_clust_6="13000.00000" pt_clust_7="13000.00000" pt_clust_8="13000.00000" pt_clust_9="84.54492"></scales>
<clustering>
<clus scale="   79.769">  5  6 -1 -1</clus>
<clus scale="   92.019">  7  8 -1 -1</clus>
<clus scale="  110.354">  1  5  2 -1</clus>
<clus scale="   84.545">  2  9  1 -1</clus>
<clus scale="   84.545">  2  5  1 -1</clus>
</clustering>
</event>
<event>
 9    2  0.1488992E-004  0.1461053E+03  0.7546771E-02  0.1216721E+00
          4   -1    0    0  502    0 -0.00000000000E+00  0.00000000000E+00  0.63452729738E+03  0.63452729738E+03  0.00000000000E+00 0. -1.
         21   -1    0    0  501  502  0.00000000000E+00 -0.00000000000E+00 -0.74121657349E+02  0.74121657349E+02  0.00000000000E+00 0.  1.
         23    2    1    2    0    0  0.22077523895E+02  0.66681309278E+02  0.45976103554E+02  0.12351304000E+03  0.90597212340E+02 0.  0.
         24    2    1    2    0    0 -0.13393799943E+03 -0.23560381254E+02  0.31393299748E+03  0.35153145722E+03  0.80783409504E+02 0.  0.
        -11    1    4    4    0    0 -0.13936868976E+03 -0.16760759112E+02  0.24754265890E+03  0.28457322908E+03  0.00000000000E+00 0.  1.
         12    1    4    4    0    0  0.54306903364E+01 -0.67996221419E+01  0.66390338583E+02  0.66958228142E+02  0.00000000000E+00 0. -1.
        -13    1    3    3    0    0 -0.24393132779E+02  0.50654643314E+02  0.22844020458E-01  0.56222044946E+02  0.00000000000E+00 0.  1.
         13    1    3    3    0    0  0.46470656675E+02  0.16026665964E+02  0.45953259533E+02  0.67290995055E+02  0.00000000000E+00 0. -1.
          3    1    1    2  501    0  0.11186047553E+03 -0.43120928024E+02  0.20049653899E+03  0.23360445751E+03  0.00000000000E+00 0. -1.
<scales pt_clust_5="13000.00000" pt_clust_6="13000.00000" pt_clust_7="13000.00000" pt_clust_8="13000.00000" pt_clust_9="121.74068"></scales>
<clustering>
<clus scale="   80.783">  5  6 -1 -1</clus>
<clus scale="   90.597">  7  8 -1 -1</clus>
<clus scale="  114.637">  1  7  2 -1</clus>
<clus scale="  121.741">  2  9  1 -1</clus>
<clus scale="  121.741">  2  5  1 -1</clus>
</clustering>
</event>
<event>
 9    2  0.1488992E-004  0.1039264E+03  0.7546771E-02  0.1275720E+00
         21   -1    0    0  501  502  0.00000000000E+00  0.00000000000E+00  0.54960511127E+02  0.54960511127E+02  0.00000000000E+00 0.  1.
          2   -1    0    0  502    0 -0.00000000000E+00 -0.00000000000E+00 -0.63235312382E+03  0.63235312382E+03  0.00000000000E+00 0. -1.
         23    2    1    2    0    0 -0.36854958936E+02  0.63091028541E+02 -0.33013954783E+03  0.34794051189E+03  0.82047016341E+02 0.  0.
         24    2    1    2    0    0  0.60346546775E+02  0.41759870433E+02 -0.60914467119E+02  0.12427398609E+03  0.79673451214E+02 0.  0.
        -13    1    4    4    0    0 -0.13950628335E+02  0.27940194415E+02 -0.86998021380E+01  0.32418529456E+02  0.00000000000E+00 0.  1.
         14    1    4    4    0    0  0.74297175110E+02  0.13819676018E+02 -0.52214664981E+02  0.91855456635E+02  0.00000000000E+00 0. -1.
        -11    1    3    3    0    0  0.18735465612E+02  0.47392503972E+02 -0.17990078759E+03  0.18697957236E+03  0.00000000000E+00 0.  1.
         11    1    3    3    0    0 -0.55590424547E+02  0.15698524569E+02 -0.15023876024E+03  0.16096093953E+03  0.00000000000E+00 0. -1.
          1    1    1    2  501    0 -0.23491587840E+02 -0.10485089897E+03 -0.18633859774E+03  0.21509913697E+03  0.00000000000E+00 0. -1.
<scales pt_clust_5="13000.00000" pt_clust_6="13000.00000" pt_clust_7="13000.00000" pt_clust_8="13000.00000" pt_clust_9="107.45035"></scales>
<clustering>
<clus scale="   79.673">  5  6 -1 -1</clus>
<clus scale="   82.047">  7  8 -1 -1</clus>
<clus scale="  107.450">  1  9  2 -1</clus>
<clus scale="  107.450">  1  5  2 -1</clus>
<clus scale="  103.926">  1  5  2 -1</clus>
</clustering>
</event>
<event>
 9    2  0.1488992E-004  0.1236911E+03  0.7546771E-02  0.1252873E+00
          2   -1    0    0  502    0 -0.00000000000E+00  0.00000000000E+00  0.72623668732E+03  0.72623668732E+03  0.00000000000E+00 0. -1.
         21   -1    0    0  501  502  0.00000000000E+00 -0.00000000000E+00 -0.67936684267E+02  0.67936684267E+02  0.00000000000E+00 0.  1.
         24    2    1    2    0    0  0.63772761702E+01 -0.48003857088E+02  0.20874131220E+02  0.92462589404E+02  0.75951044354E+02 0.  0.
         23    2    1    2    0    0  0.69486142917E+02 -0.37233623566E+02  0.11119888054E+03  0.16325416106E+03  0.89844661997E+02 0.  0.
        -11    1    3    3    0    0 -0.13813054230E+02 -0.45154540182E+02 -0.16390751454E+02  0.49983894400E+02  0.00000000000E+00 0.  1.
         12    1    3    3    0    0  0.20190330401E+02 -0.28493169063E+01  0.37264882674E+02  0.42478695004E+02  0.00000000000E+00 0. -1.
        -13    1    4    4    0    0  0.45776837417E+02  0.19914840239E+02  0.21658836200E+02  0.54417137845E+02  0.00000000000E+00 0.  1.
         13    1    4    4    0    0  0.23709305499E+02 -0.57148463804E+02  0.89540044338E+02  0.10883702322E+03  0.00000000000E+00 0. -1.
          1    1    1    2  501    0 -0.75863419087E+02  0.85237480654E+02  0.52622699129E+03  0.53845662112E+03  0.00000000000E+00 0. -1.
<scales pt_clust_5="13000.00000" pt_clust_6="13000.00000" pt_clust_7="13000.00000" pt_clust_8="13000.00000" pt_clust_9="85.01436"></scales>
<clustering>
<clus scale="   75.951">  5  6 -1 -1</clus>
<clus scale="   89.845">  7  8 -1 -1</clus>
<clus scale="   90.076">  1  5  2 -1</clus>
<clus scale="   85.014">  2  9  1 -1</clus>
<clus scale="   85.014">  2  5  1 -1</clus>
</clustering>
</event>
<event>
 9    2  0.1488992E-004  0.1170803E+03  0.7546771E-02  0.1253651E+00
         -1   -1    0    0    0  501 -0.00000000000E+00  0.00000000000E+00  0.20362557987E+03  0.20362557987E+03  0.00000000000E+00 0.  1.
         21   -1    0    0  501  502  0.00000000000E+00 -0.00000000000E+00 -0.25205398863E+03  0.25205398863E+03  0.00000000000E+00 0. -1.
         23    2    1    2    0    0 -0.67553687909E+02 -0.24886301538E+02  0.14017773582E+03  0.18471403386E+03  0.96367255490E+02 0.  0.
         24    2    1    2    0    0  0.27292582448E+02  0.57188197545E+02 -0.34218720559E+02  0.10817780230E+03  0.80722618138E+02 0.  0.
        -13    1    4    4    0    0 -0.81726797614E+01  0.60785141538E+02 -0.38283284196E+02  0.72299626383E+02  0.00000000000E+00 0.  1.
         14    1    4    4    0    0  0.35465262210E+02 -0.35969439932E+01  0.40645636370E+01  0.35878175919E+02  0.00000000000E+00 0. -1.
        -11    1    3    3    0    0 -0.14759780231E+02 -0.43345528217E+02  0.15968543806E+02  0.48494126656E+02  0.00000000000E+00 0.  1.
         11    1    3    3    0    0 -0.52793907678E+02  0.18459226679E+02  0.12420919202E+03  0.13621990721E+03  0.00000000000E+00 0. -1.
         -2    1    1    2    0  502  0.40261105460E+02 -0.32301896008E+02 -0.15438742403E+03  0.16278773233E+03  0.00000000000E+00 0.  1.
<scales pt_clust_5="13000.00000" pt_clust_6="13000.00000" pt_clust_7="13000.00000" pt_clust_8="13000.00000" pt_clust_9="51.61753"></scales>
<clustering>
<clus scale="   51.618">  2  9  1 -1</clus>
<clus scale="   80.723">  5  6 -1 -1</clus>
<clus scale="   96.367">  7  8 -1 -1</clus>
<clus scale="  104.581">  2  5  1 -1</clus>
<clus scale="   51.618">  2  5  1 -1</clus>
</clustering>
</event>
<event>
 9    2  0.1488992E-004  0.1690632E+03  0.7546771E-02  0.1193907E+00
         -3   -1    0    0    0  501 -0.00000000000E+00  0.00000000000E+00  0.58736622965E+03  0.58736622965E+03  0.00000000000E+00 0.  1.
         21   -1    0    0  501  502  0.00000000000E+00 -0.00000000000E+00 -0.15508469342E+03  0.15508469342E+03  0.00000000000E+00 0.  1.
         23    2    1    2    0    0 -0.36169976503E+02 -0.70144540470E+02 -0.69010206523E+02  0.13921527952E+03  0.91596734055E+02 0.  0.
         24    2    1    2    0    0 -0.11469853450E+03 -0.73283580891E+01  0.34446053094E+03  0.37223913573E+03  0.81850217720E+02 0.  0.
        -11    1    4    4    0    0 -0.94808274214E+02 -0.18427633572E+02  0.33303401065E+03  0.34675616619E+03  0.00000000000E+00 0.  1.
         12    1    4    4    0    0 -0.19890260291E+02  0.11099275483E+02  0.11426520291E+02  0.25482969541E+02  0.00000000000E+00 0. -1.
        -11    1    3    3    0    0 -0.61079845048E+02 -0.72983930613E+02 -0.60342123857E+02  0.11268794749E+03  0.00000000000E+00 0.  1.
         11    1    3    3    0    0  0.24909868546E+02  0.28393901428E+01 -0.86680826660E+01  0.26527332027E+02  0.00000000000E+00 0. -1.
         -4    1    1    2    0  502  0.15086851101E+03  0.77472898559E+02  0.15683121181E+03  0.23099650782E+03  0.00000000000E+00 0.  1.
<scales pt_clust_5="13000.00000" pt_clust_6="13000.00000" pt_clust_7="13000.00000" pt_clust_8="13000.00000" pt_clust_9="147.92871"></scales>
<clustering>
<clus scale="   81.850">  5  6 -1 -1</clus>
<clus scale="   91.597">  7  8 -1 -1</clus>
<clus scale="  120.907">  1  7  2 -1</clus>
<clus scale="  147.929">  2  9  1 -1</clus>
<clus scale="  147.929">  2  5  1 -1</clus>
</clustering>
</event>
<event>
 9    2  0.1488992E-004  0.8792505E+02  0.7546771E-02  0.1312970E+00
          4   -1    0    0  502    0 -0.00000000000E+00  0.00000000000E+00  0.69155891172E+02  0.69155891172E+02  0.00000000000E+00 0. -1.
         21   -1    0    0  501  502  0.00000000000E+00 -0.00000000000E+00 -0.17255878810E+03  0.17255878810E+03  0.00000000000E+00 0. -1.
         23    2    1    2    0    0  0.90900017715E+00  0.23755269888E+02 -0.11496274751E+02  0.91201198360E+02  0.87294645428E+02 0.  0.
         24    2    1    2    0    0 -0.46656651581E+01  0.13376627283E+02 -0.71780250571E+02  0.10811110889E+03  0.79592115844E+02 0.  0.
        -11    1    4    4    0    0  0.28142042692E+02 -0.79279601161E+01 -0.35361137919E+01  0.29450487589E+02  0.00000000000E+00 0.  1.
         12    1    4    4    0    0 -0.32807707850E+02  0.21304587399E+02 -0.68244136779E+02  0.78660621300E+02  0.00000000000E+00 0. -1.
        -13    1    3    3    0    0 -0.25866897960E+02  0.47232012356E+02 -0.23246426672E+00  0.53851772867E+02  0.00000000000E+00 0. -1.
         13    1    3    3    0    0  0.26775898138E+02 -0.23476742468E+02 -0.11263810485E+02  0.37349425493E+02  0.00000000000E+00 0.  1.
          3    1    1    2  501    0  0.37566649810E+01 -0.37131897171E+02 -0.20126371607E+02  0.42402372025E+02  0.00000000000E+00 0. -1.
<scales pt_clust_5="13000.00000" pt_clust_6="13000.00000" pt_clust_7="13000.00000" pt_clust_8="13000.00000" pt_clust_9="37.32145"></scales>
<clustering>
<clus scale="   37.321">  2  9  1 -1</clus>
<clus scale="   79.592">  5  6 -1 -1</clus>
<clus scale="   80.283">  2  5  1 -1</clus>
<clus scale="   87.295">  7  8 -1 -1</clus>
<clus scale="   37.321">  2  5  1 -1</clus>
</clustering>
</event>
<event>
 9    2  0.1488992E-004  0.1401697E+03  0.7546771E-02  0.1231737E+00
          2   -1    0    0  502    0 -0.00000000000E+00  0.00000000000E+00  0.26784367181E+03  0.26784367181E+03  0.00000000000E+00 0. -1.
         21   -1    0    0  501  502  0.00000000000E+00 -0.00000000000E+00 -0.11368561476E+03  0.11368561476E+03  0.00000000000E+00 0. -1.
         24    2    1    2    0    0  0.43419578910E+02  0.27698421540E+02  0.53466787220E+02  0.10895004131E+03  0.79743035918E+02 0.  0.
         23    2    1    2    0    0  0.15567371579E+02  0.85290040293E+02  0.60259857857E+02  0.13886106434E+03  0.90190967887E+02 0.  0.
        -11    1    3    3    0    0 -0.19095181265E+02  0.24920587258E+02  0.25327458660E+02  0.40337845493E+02  0.00000000000E+00 0.  1.
         12    1    3    3    0    0  0.62514760175E+02  0.27778342815E+01  0.28139328560E+02  0.68612195817E+02  0.00000000000E+00 0. -1.
        -13    1    4    4    0    0  0.31772022494E+02 -0.58433952495E+01  0.11903706564E+02  0.34428257455E+02  0.00000000000E+00 0.  1.
         13    1    4    4    0    0 -0.16204650915E+02  0.91133435542E+02  0.48356151293E+02  0.10443280688E+03  0.00000000000E+00 0. -1.
          1    1    1    2  501    0 -0.58986950489E+02 -0.11298846183E+03  0.40431411976E+02  0.13371818092E+03  0.00000000000E+00 0. -1.
<scales pt_clust_5="13000.00000" pt_clust_6="13000.00000" pt_clust_7="13000.00000" pt_clust_8="13000.00000" pt_clust_9="107.29930"></scales>
<clustering>
<clus scale="   79.743">  5  6 -1 -1</clus>
<clus scale="   90.191">  7  8 -1 -1</clus>
<clus scale="   94.928">  1  5  2 -1</clus>
<clus scale="  107.299">  2  9  1 -1</clus>
<clus scale="  107.299">  2  5  1 -1</clus>
</clustering>
</event>
<event>
 9    2  0.1488992E-004  0.9726378E+02  0.7546771E-02  0.1292630E+00
          2   -1    0    0  502    0 -0.00000000000E+00  0.00000000000E+00  0.76505619381E+03  0.76505619381E+03  0.00000000000E+00 0. -1.
         21   -1    0    0  501  502  0.00000000000E+00 -0.00000000000E+00 -0.20398504155E+02  0.20398504155E+02  0.00000000000E+00 0.  1.
         24    2    1    2    0    0 -0.56269218595E+01 -0.20796103175E+02  0.24573040894E+03  0.25933149678E+03  0.80032813177E+02 0.  0.
         23    2    1    2    0    0 -0.19072235355E+02  0.51332602899E+02  0.22203496374E+03  0.24645932905E+03  0.91890638635E+02 0.  0.
        -11    1    3    3    0    0 -0.27981543634E+02 -0.39113174482E+02  0.10259131735E+03  0.11330395226E+03  0.00000000000E+00 0.  1.
         12    1    3    3    0    0  0.22354621774E+02  0.18317071307E+02  0.14313909159E+03  0.14602754451E+03  0.00000000000E+00 0. -1.
        -13    1    4    4    0    0 -0.49928561036E+02  0.51199174754E+02  0.18446424538E+03  0.19784153893E+03  0.00000000000E+00 0. -1.
         13    1    4    4    0    0  0.30856325681E+02  0.13342814509E+00  0.37570718359E+02  0.48617790114E+02  0.00000000000E+00 0.  1.
          1    1    1    2  501    0  0.24699157215E+02 -0.30536499724E+02  0.27689231697E+03  0.27966387214E+03  0.00000000000E+00 0. -1.
<scales pt_clust_5="13000.00000" pt_clust_6="13000.00000" pt_clust_7="13000.00000" pt_clust_8="13000.00000" pt_clust_9="39.27503"></scales>
<clustering>
<clus scale="   39.275">  2  9  1 -1</clus>
<clus scale="   80.033">  5  6 -1 -1</clus>
<clus scale="   86.149">  1  5  2 -1</clus>
<clus scale="   91.891">  7  8 -1 -1</clus>
<clus scale="   39.275">  2  5  1 -1</clus>
</clustering>
</event>
<event>
 9    2  0.1488992E-004  0.9489172E+02  0.7546771E-02  0.1297867E+00
         21   -1    0    0  501  502  0.00000000000E+00  0.00000000000E+00  0.42220845177E+02  0.42220845177E+02  0.00000000000E+00 0. -1.
          2   -1    0    0  502    0 -0.00000000000E+00 -0.00000000000E+00 -0.40952793185E+03  0.40952793185E+03  0.00000000000E+00 0. -1.
         24    2    1    2    0    0  0.39117536335E+01  0.28697377327E+02 -0.24295272302E+03  0.25765506090E+03  0.80754340456E+02 0.  0.
         23    2    1    2    0    0 -0.37746450031E+02  0.64031835225E+01 -0.74170330349E+02  0.12412748677E+03  0.91872737076E+02 0.  0.
        -11    1    3    3    0    0  0.25411842591E+02 -0.34412939403E+01 -0.23374668900E+02  0.34698406218E+02  0.00000000000E+00 0.  1.
         12    1    3    3    0    0 -0.21500088957E+02  0.32138671267E+02 -0.21957805412E+03  0.22295665468E+03  0.00000000000E+00 0. -1.
        -13    1    4    4    0    0 -0.13328609692E+02  0.48079503151E+02 -0.27538345763E+02  0.56988164972E+02  0.00000000000E+00 0.  1.
         13    1    4    4    0    0 -0.24417840339E+02 -0.41676319628E+02 -0.46631984587E+02  0.67139321795E+02  0.00000000000E+00 0. -1.
          1    1    1    2  501    0  0.33834696398E+02 -0.35100560849E+02 -0.50184033303E+02  0.69966229360E+02  0.00000000000E+00 0. -1.
<scales pt_clust_5="13000.00000" pt_clust_6="13000.00000" pt_clust_7="13000.00000" pt_clust_8="13000.00000" pt_clust_9="48.75281"></scales>
<clustering>
<clus scale="   48.753">  1  9  2 -1</clus>
<clus scale="   80.754">  5  6 -1 -1</clus>
<clus scale="   84.173">  2  5  1 -1</clus>
<clus scale="   91.873">  7  8 -1 -1</clus>
<clus scale="   48.753">  1  5  2 -1</clus>
</clustering>
</event>
<event>
 9    2  0.1488992E-004  0.1821389E+03  0.7546771E-02  0.1194484E+00
         -3   -1    0    0    0  501 -0.00000000000E+00  0.00000000000E+00  0.37820319761E+03  0.37820319761E+03  0.00000000000E+00 0.  1.
         21   -1    0    0  501  502  0.00000000000E+00 -0.00000000000E+00 -0.17177350715E+03  0.17177350715E+03  0.00000000000E+00 0.  1.
         24    2    1    2    0    0 -0.13058291733E+01 -0.39353917265E+02  0.37826464776E+02  0.10269551634E+03  0.86977535295E+02 0.  0.
         23    2    1    2    0    0  0.11613468133E+02 -0.14693702297E+03 -0.27907813476E+02  0.17630674248E+03  0.92627533857E+02 0.  0.
        -11    1    3    3    0    0  0.33608477999E+02 -0.47370381808E+02  0.32270368294E+02  0.66444409365E+02  0.00000000000E+00 0.  1.
         12    1    3    3    0    0 -0.34914307173E+02  0.80164645428E+01  0.55560964810E+01  0.36251106979E+02  0.00000000000E+00 0. -1.
        -13    1    4    4    0    0 -0.38640333092E+02 -0.58235027275E+02  0.24593097813E+01  0.69931694873E+02  0.00000000000E+00 0.  1.
         13    1    4    4    0    0  0.50253801225E+02 -0.88701995699E+02 -0.30367123258E+02  0.10637504761E+03  0.00000000000E+00 0. -1.
         -4    1    1    2    0  502 -0.10307638960E+02  0.18629094024E+03  0.19651103916E+03  0.27097444593E+03  0.00000000000E+00 0.  1.
<scales pt_clust_5="13000.00000" pt_clust_6="13000.00000" pt_clust_7="13000.00000" pt_clust_8="13000.00000" pt_clust_9="156.82708"></scales>
<clustering>
<clus scale="   86.978">  5  6 -1 -1</clus>
<clus scale="   92.628">  7  8 -1 -1</clus>
<clus scale="   95.475">  1  5  2 -1</clus>
<clus scale="  156.827">  2  9  1 -1</clus>
<clus scale="  156.827">  2  5  1 -1</clus>
</clustering>
</event>
<event>
 9    2  0.1488992E-004  0.1432278E+03  0.7546771E-02  0.1235490E+00
         21   -1    0    0  501  502  0.00000000000E+00  0.00000000000E+00  0.51529427541E+02  0.51529427541E+02  0.00000000000E+00 0.  1.
          2   -1    0    0  502    0 -0.00000000000E+00 -0.00000000000E+00 -0.61214984199E+03  0.61214984199E+03  0.00000000000E+00 0. -1.
         24    2    1    2    0    0  0.10403243569E+02  0.11727845961E+02 -0.13787795842E+03  0.16061367506E+03  0.80874293502E+02 0.  0.
         23    2    1    2    0    0 -0.98292323001E+02  0.67242629214E+02 -0.29971781105E+03  0.33249042188E+03  0.80846536328E+02 0.  0.
        -11    1    3    3    0    0  0.31233422003E+02  0.33963979562E+01 -0.13443395859E+02  0.34172899516E+02  0.00000000000E+00 0.  1.
         12    1    3    3    0    0 -0.20830178434E+02  0.83314480052E+01 -0.12443456257E+03  0.12644077554E+03  0.00000000000E+00 0. -1.
        -13    1    4    4    0    0 -0.60219442788E+02  0.27333948001E+02 -0.70226482139E+02  0.96463904112E+02  0.00000000000E+00 0.  1.
         13    1    4    4    0    0 -0.38072880214E+02  0.39908681213E+02 -0.22949132891E+03  0.23602651777E+03  0.00000000000E+00 0. -1.
          1    1    1    2  501    0  0.87889079432E+02 -0.78970475175E+02 -0.12302464497E+03  0.17057517259E+03  0.00000000000E+00 0. -1.
<scales pt_clust_5="13000.00000" pt_clust_6="13000.00000" pt_clust_7="13000.00000" pt_clust_8="13000.00000" pt_clust_9="118.22878"></scales>
<clustering>
<clus scale="   80.847">  7  8 -1 -1</clus>
<clus scale="   80.874">  5  6 -1 -1</clus>
<clus scale="   82.380">  2  5  1 -1</clus>
<clus scale="  118.229">  1  9  2 -1</clus>
<clus scale="  118.229">  1  5  2 -1</clus>
</clustering>
</event>
<event>
 9    2  0.1488992E-004  0.9107327E+02  0.7546771E-02  0.1305749E+00
          2   -1    0    0  502    0 -0.00000000000E+00  0.00000000000E+00  0.55954641858E+03  0.55954641858E+03  0.00000000000E+00 0. -1.
         21   -1    0    0  501  502  0.00000000000E+00 -0.00000000000E+00 -0.38734185409E+02  0.38734185409E+02  0.00000000000E+00 0.  1.
         23    2    1    2    0    0 -0.17744684981E+01  0.15257767679E+02  0.33940822569E+03  0.35138997379E+03  0.89671744720E+02 0.  0.
         24    2    1    2    0    0 -0.58470527571E+02  0.23053780141E+00  0.79731420425E+02  0.12769892698E+03  0.80814978848E+02 0.  0.
        -13    1    4    4    0    0 -0.27911599549E+01  0.26610837513E+02 -0.22485928945E+00  0.26757761654E+02  0.00000000000E+00 0.  1.
         14    1    4    4    0    0 -0.55679367616E+02 -0.26380299712E+02  0.79956279714E+02  0.10094116532E+03  0.00000000000E+00 0. -1.
        -13    1    3    3    0    0 -0.18089927583E+02 -0.33847369247E+02  0.12123623702E+03  0.12716569919E+03  0.00000000000E+00 0.  1.
         13    1    3    3    0    0  0.16315459085E+02  0.49105136926E+02  0.21817198867E+03  0.22422427459E+03  0.00000000000E+00 0. -1.
          1    1    1    2  501    0  0.60244996069E+02 -0.15488305480E+02  0.10167258706E+03  0.11919170322E+03  0.00000000000E+00 0. -1.
<scales pt_clust_5="13000.00000" pt_clust_6="13000.00000" pt_clust_7="13000.00000" pt_clust_8="13000.00000" pt_clust_9="62.20408"></scales>
<clustering>
<clus scale="   62.204">  2  9  1 -1</clus>
<clus scale="   80.815">  5  6 -1 -1</clus>
<clus scale="   82.367">  2  5  1 -1</clus>
<clus scale="   89.672">  7  8 -1 -1</clus>
<clus scale="   62.204">  2  5  1 -1</clus>
</clustering>
</event>
<event>
 9    2  0.1488992E-004  0.2199274E+03  0.7546771E-02  0.1134455E+00
         21   -1    0    0  501  502  0.00000000000E+00  0.00000000000E+00  0.10252770009E+03  0.10252770009E+03  0.00000000000E+00 0.  1.
          2   -1    0    0  502    0 -0.00000000000E+00 -0.00000000000E+00 -0.82864449946E+03  0.82864449946E+03  0.00000000000E+00 0. -1.
         23    2    1    2    0    0  0.16113716344E+03 -0.12203453305E+03 -0.52642066001E+03  0.57092295401E+03  0.89312347650E+02 0.  0.
         24    2    1    2    0    0 -0.17667209233E+03  0.91860969764E+02 -0.70543954906E+02  0.22671249148E+03  0.82283888105E+02 0.  0.
        -11    1    4    4    0    0 -0.14347840567E+03  0.10691305662E+03 -0.56280311850E+02  0.18757379367E+03  0.00000000000E+00 0.  1.
         12    1    4    4    0    0 -0.33193686664E+02 -0.15052086852E+02 -0.14263643056E+02  0.39138697809E+02  0.00000000000E+00 0. -1.
        -13    1    3    3    0    0  0.16822084097E+03 -0.96842900505E+02 -0.47746546156E+03  0.51541251993E+03  0.00000000000E+00 0. -1.
         13    1    3    3    0    0 -0.70836775361E+01 -0.25191632541E+02 -0.48955198444E+02  0.55510434084E+02  0.00000000000E+00 0.  1.
          1    1    1    2  501    0  0.15534928899E+02  0.30173563282E+02 -0.12915218445E+03  0.13353675406E+03  0.00000000000E+00 0. -1.
<scales pt_clust_5="13000.00000" pt_clust_6="13000.00000" pt_clust_7="13000.00000" pt_clust_8="13000.00000" pt_clust_9="33.93787"></scales>
<clustering>
<clus scale="   33.938">  1  9  2 -1</clus>
<clus scale="   82.284">  5  6 -1 -1</clus>
<clus scale="   89.312">  7  8 -1 -1</clus>
<clus scale="  217.168">  1  5  2 -1</clus>
<clus scale="   33.938">  1  5  2 -1</clus>
</clustering>
</event>
<event>
 9    2  0.1488992E-004  0.1340133E+03  0.7546771E-02  0.1237640E+00
         -3   -1    0    0    0  501 -0.00000000000E+00  0.00000000000E+00  0.17185202710E+03  0.17185202710E+03  0.00000000000E+00 0.  1.
         21   -1    0    0  501  502  0.00000000000E+00 -0.00000000000E+00 -0.38535009374E+03  0.38535009374E+03  0.00000000000E+00 0.  1.
         23    2    1    2    0    0 -0.12948789330E+00  0.36200369578E+02  0.11628942202E+03  0.15095236835E+03  0.89179057598E+02 0.  0.
         24    2    1    2    0    0 -0.71175378553E+02  0.50489762168E+02 -0.16950179409E+03  0.21056871916E+03  0.89404567518E+02 0.  0.
        -13    1    4    4    0    0 -0.55007749358E+02  0.74523438724E+02 -0.14759283281E+03  0.17425050848E+03  0.00000000000E+00 0.  1.
         14    1    4    4    0    0 -0.16167629195E+02 -0.24033676556E+02 -0.21908961275E+02  0.36318210676E+02  0.00000000000E+00 0. -1.
        -13    1    3    3    0    0 -0.41288944572E+02  0.36464610094E+02  0.66771625461E+02  0.86561508189E+02  0.00000000000E+00 0.  1.
         13    1    3    3    0    0  0.41159456679E+02 -0.26424051573E+00  0.49517796555E+02  0.64390860165E+02  0.00000000000E+00 0. -1.
         -4    1    1    2    0  502  0.71304866446E+02 -0.86690131746E+02 -0.16028569457E+03  0.19568103333E+03  0.00000000000E+00 0.  1.
<scales pt_clust_5="13000.00000" pt_clust_6="13000.00000" pt_clust_7="13000.00000" pt_clust_8="13000.00000" pt_clust_9="99.83190"></scales>
<clustering>
<clus scale="   89.179">  7  8 -1 -1</clus>
<clus scale="   89.405">  5  6 -1 -1</clus>
<clus scale="   96.246">  1  7  2 -1</clus>
<clus scale="   99.832">  2  9  1 -1</clus>
<clus scale="   99.832">  2  5  1 -1</clus>
</clustering>
</event>
<event>
 9    2  0.1488992E-004  0.1290382E+03  0.7546771E-02  0.1231938E+00
          2   -1    0    0  502    0 -0.00000000000E+00  0.00000000000E+00  0.72416136804E+03  0.72416136804E+03  0.00000000000E+00 0. -1.
         21   -1    0    0  501  502  0.00000000000E+00 -0.00000000000E+00 -0.16743580286E+03  0.16743580286E+03  0.00000000000E+00 0. -1.
         24    2    1    2    0    0  0.91916528782E+02  0.30044578815E+02  0.64467008751E+03  0.65684649520E+03  0.80600691960E+02 0.  0.
         23    2    1    2    0    0 -0.52621963826E+02  0.15173260092E+02  0.22221170663E+02  0.10935053334E+03  0.92002498975E+02 0.  0.
        -13    1    3    3    0    0  0.34825032401E+02 -0.27734970831E+02  0.21360202659E+03  0.21819220254E+03  0.00000000000E+00 0.  1.
         14    1    3    3    0    0  0.57091496380E+02  0.57779549646E+02  0.43106806093E+03  0.43865429266E+03  0.00000000000E+00 0. -1.
        -13    1    4    4    0    0 -0.32996168922E+02 -0.34416583013E+02 -0.75481968613E+01  0.48272389890E+02  0.00000000000E+00 0. -1.
         13    1    4    4    0    0 -0.19625794904E+02  0.49589843104E+02  0.29769367524E+02  0.61078143452E+02  0.00000000000E+00 0.  1.
          1    1    1    2  501    0 -0.39294564955E+02 -0.45217838906E+02 -0.11016569300E+03  0.12540014236E+03  0.00000000000E+00 0. -1.
<scales pt_clust_5="13000.00000" pt_clust_6="13000.00000" pt_clust_7="13000.00000" pt_clust_8="13000.00000" pt_clust_9="59.90589"></scales>
<clustering>
<clus scale="   59.906">  2  9  1 -1</clus>
<clus scale="   80.601">  5  6 -1 -1</clus>
<clus scale="   92.002">  7  8 -1 -1</clus>
<clus scale="  121.173">  1  5  2 -1</clus>
<clus scale="   59.906">  2  5  1 -1</clus>
</clustering>
</event>
<event>
 9    2  0.1488992E-004  0.1102223E+03  0.7546771E-02  0.1263272E+00
         -1   -1    0    0    0  501 -0.00000000000E+00  0.00000000000E+00  0.18988646872E+03  0.18988646872E+03  0.00000000000E+00 0.  1.
         21   -1    0    0  501  502  0.00000000000E+00 -0.00000000000E+00 -0.10064299897E+03  0.10064299897E+03  0.00000000000E+00 0. -1.
         24    2    1    2    0    0 -0.85435735758E+01 -0.68810374138E+02  0.91773238137E+02  0.14231367088E+03  0.83803302100E+02 0.  0.
         23    2    1    2    0    0  0.34875422418E+02  0.38969591320E+02  0.10996967780E+02  0.10618234378E+03  0.91754197144E+02 0.  0.
        -11    1    3    3    0    0  0.40913693346E+01 -0.54559386618E+02  0.10549572721E+03  0.11883944812E+03  0.00000000000E+00 0.  1.
         12    1    3    3    0    0 -0.12634942910E+02 -0.14250987519E+02 -0.13722489072E+02  0.23474222755E+02  0.00000000000E+00 0. -1.
        -13    1    4    4    0    0  0.66243853557E+02  0.29067469559E+02  0.33901115383E+01  0.72420016410E+02  0.00000000000E+00 0. -1.
         13    1    4    4    0    0 -0.31368431139E+02  0.99021217608E+01  0.76068562422E+01  0.33762327369E+02  0.00000000000E+00 0.  1.
         -2    1    1    2    0  502 -0.26331848842E+02  0.29840782818E+02 -0.13526736160E+02  0.42033453031E+02  0.00000000000E+00 0.  1.
<scales pt_clust_5="13000.00000" pt_clust_6="13000.00000" pt_clust_7="13000.00000" pt_clust_8="13000.00000" pt_clust_9="39.79747"></scales>
<clustering>
<clus scale="   39.797">  2  9  1 -1</clus>
<clus scale="   83.803">  5  6 -1 -1</clus>
<clus scale="   91.754">  7  8 -1 -1</clus>
<clus scale="  103.697">  1  5  2 -1</clus>
<clus scale="   39.797">  2  5  1 -1</clus>
</clustering>
</event>
<event>
 9    2  0.1488992E-004  0.1392765E+03  0.7546771E-02  0.1216176E+00
         21   -1    0    0  501  502  0.00000000000E+00  0.00000000000E+00  0.94351483435E+03  0.94351483435E+03  0.00000000000E+00 0.  1.
         -1   -1    0    0    0  501 -0.00000000000E+00 -0.00000000000E+00 -0.10370876290E+03  0.10370876290E+03  0.00000000000E+00 0.  1.
         24    2    1    2    0    0 -0.20090372435E+02  0.10235823310E+03  0.29676732905E+02  0.13496424539E+03  0.80335596779E+02 0.  0.
         23    2    1    2    0    0  0.59745977287E+02 -0.12606984417E+03  0.84071316279E+03  0.85685016668E+03  0.89052785779E+02 0.  0.
        -13    1    3    3    0    0 -0.21803231942E+02  0.89347508854E+02  0.54486355423E+02  0.10689771367E+03  0.00000000000E+00 0.  1.
         14    1    3    3    0    0  0.17128595068E+01  0.13010724250E+02 -0.24809622518E+02  0.28066531718E+02  0.00000000000E+00 0. -1.
        -13    1    4    4    0    0 -0.20040471198E+02 -0.48455438115E+02  0.21412018398E+03  0.22044727977E+03  0.00000000000E+00 0. -1.
         13    1    4    4    0    0  0.79786448485E+02 -0.77614406054E+02  0.62659297880E+03  0.63640288692E+03  0.00000000000E+00 0.  1.
         -2    1    1    2    0  502 -0.39655604852E+02  0.23711611066E+02 -0.30583824243E+02  0.55409185166E+02  0.00000000000E+00 0.  1.
<scales pt_clust_5="13000.00000" pt_clust_6="13000.00000" pt_clust_7="13000.00000" pt_clust_8="13000.00000" pt_clust_9="46.20400"></scales>
<clustering>
<clus scale="   46.204">  1  9  2 -1</clus>
<clus scale="   80.336">  5  6 -1 -1</clus>
<clus scale="   89.053">  7  8 -1 -1</clus>
<clus scale="  133.871">  2  5  1 -1</clus>
<clus scale="   46.204">  1  5  2 -1</clus>
</clustering>
</event>
<event>
 9    2  0.1488992E-004  0.1068193E+03  0.7546771E-02  0.1271110E+00
         21   -1    0    0  501  502  0.00000000000E+00  0.00000000000E+00  0.10488235911E+03  0.10488235911E+03  0.00000000000E+00 0.  1.
          2   -1    0    0  502    0 -0.00000000000E+00 -0.00000000000E+00 -0.31512895946E+03  0.31512895946E+03  0.00000000000E+00 0. -1.
         24    2    1    2    0    0 -0.60143014230E+01 -0.50955693349E+02 -0.19463328048E+03  0.21680006995E+03  0.80545030612E+02 0.  0.
         23    2    1    2    0    0  0.61990316428E+02  0.74446555371E+02  0.17225663378E+02  0.13419289110E+03  0.91246477218E+02 0.  0.
        -13    1    3    3    0    0 -0.38935948195E+02 -0.13196727791E+02 -0.12056367711E+03  0.12738038281E+03  0.00000000000E+00 0.  1.
         14    1    3    3    0    0  0.32921646772E+02 -0.37758965558E+02 -0.74069603372E+02  0.89419687150E+02  0.00000000000E+00 0. -1.
        -13    1    4    4    0    0  0.16884126194E+02  0.63439523907E+02 -0.26140184161E+02  0.70660852944E+02  0.00000000000E+00 0. -1.
         13    1    4    4    0    0  0.45106190234E+02  0.11007031464E+02  0.43365847539E+02  0.63532038153E+02  0.00000000000E+00 0.  1.
          1    1    1    2  501    0 -0.55976015005E+02 -0.23490862022E+02 -0.32838983240E+02  0.69018357519E+02  0.00000000000E+00 0. -1.
<scales pt_clust_5="13000.00000" pt_clust_6="13000.00000" pt_clust_7="13000.00000" pt_clust_8="13000.00000" pt_clust_9="60.70531"></scales>
<clustering>
<clus scale="   60.705">  1  9  2 -1</clus>
<clus scale="   80.545">  5  6 -1 -1</clus>
<clus scale="   91.246">  7  8 -1 -1</clus>
<clus scale="   97.836">  2  5  1 -1</clus>
<clus scale="   60.705">  1  5  2 -1</clus>
</clustering>
</event>
<event>
 9    2  0.1488992E-004  0.1005138E+03  0.7546771E-02  0.1284229E+00
         21   -1    0    0  501  502  0.00000000000E+00  0.00000000000E+00  0.32754815671E+03  0.32754815671E+03  0.00000000000E+00 0.  1.
          2   -1    0    0  502    0 -0.00000000000E+00 -0.00000000000E+00 -0.30929485320E+03  0.30929485320E+03  0.00000000000E+00 0. -1.
         24    2    1    2    0    0  0.38691873402E+02  0.17066267043E+02 -0.25564868710E+03  0.27136753852E+03  0.80596347357E+02 0.  0.
         23    2    1    2    0    0 -0.89119551299E+02  0.24931435084E+02  0.27025906541E+03  0.29974854704E+03  0.90803954422E+02 0.  0.
        -11    1    3    3    0    0  0.93399190522E+01  0.42732449406E+02 -0.77405645300E+02  0.88909674639E+02  0.00000000000E+00 0.  1.
         12    1    3    3    0    0  0.29351954350E+02 -0.25666182363E+02 -0.17824304180E+03  0.18245786388E+03  0.00000000000E+00 0. -1.
        -11    1    4    4    0    0 -0.15877048551E+02 -0.26596583999E+02  0.29104580250E+02  0.42503359193E+02  0.00000000000E+00 0. -1.
         11    1    4    4    0    0 -0.73242502748E+02  0.51528019083E+02  0.24115448515E+03  0.25724518785E+03  0.00000000000E+00 0.  1.
          1    1    1    2  501    0  0.50427677897E+02 -0.41997702127E+02  0.36429252004E+01  0.65726924362E+02  0.00000000000E+00 0. -1.
<scales pt_clust_5="13000.00000" pt_clust_6="13000.00000" pt_clust_7="13000.00000" pt_clust_8="13000.00000" pt_clust_9="65.62589"></scales>
<clustering>
<clus scale="   65.626">  1  9  2 -1</clus>
<clus scale="   80.596">  5  6 -1 -1</clus>
<clus scale="   90.804">  7  8 -1 -1</clus>
<clus scale="   91.397">  2  5  1 -1</clus>
<clus scale="   65.626">  1  5  2 -1</clus>
</clustering>
</event>
<event>
 9    2  0.1488992E-004  0.2383177E+03  0.7546771E-02  0.1130923E+00
         21   -1    0    0  501  502  0.00000000000E+00  0.00000000000E+00  0.45649921817E+03  0.45649921817E+03  0.00000000000E+00 0. -1.
          2   -1    0    0  502    0 -0.00000000000E+00 -0.00000000000E+00 -0.45950715950E+03  0.45950715950E+03  0.00000000000E+00 0. -1.
         24    2    1    2    0    0 -0.69443664380E+02 -0.15321114616E+03  0.22532289925E+03  0.29221360223E+03  0.79512908178E+02 0.  0.
         23    2    1    2    0    0  0.86742527558E+02  0.33924920054E+03 -0.24313050425E+03  0.43636695441E+03  0.93216901097E+02 0.  0.
        -13    1    3    3    0    0 -0.62300277426E+02 -0.54171149886E+02  0.71993889854E+02  0.10953975636E+03  0.00000000000E+00 0.  1.
         14    1    3    3    0    0 -0.71433869541E+01 -0.99039996279E+02  0.15332900940E+03  0.18267384587E+03  0.00000000000E+00 0. -1.
        -11    1    4    4    0    0  0.78175874542E+02  0.25331944668E+03 -0.13354171769E+03  0.29684271895E+03  0.00000000000E+00 0. -1.
         11    1    4    4    0    0  0.85666530158E+01  0.85929753855E+02 -0.10958878656E+03  0.13952423546E+03  0.00000000000E+00 0.  1.
          1    1    1    2  501    0 -0.17298863178E+02 -0.18603805437E+03  0.14799663677E+02  0.18742582103E+03  0.00000000000E+00 0. -1.
<scales pt_clust_5="13000.00000" pt_clust_6="13000.00000" pt_clust_7="13000.00000" pt_clust_8="13000.00000" pt_clust_9="219.33062"></scales>
<clustering>
<clus scale="   79.513">  5  6 -1 -1</clus>
<clus scale="   93.217">  7  8 -1 -1</clus>
<clus scale="  186.060">  2  5  1 -1</clus>
<clus scale="  219.331">  1  9  2 -1</clus>
<clus scale="  219.331">  1  5  2 -1</clus>
</clustering>
</event>
<event>
 9    2  0.1488992E-004  0.1124627E+03  0.7546771E-02  0.1256574E+00
          2   -1    0    0  502    0 -0.00000000000E+00  0.00000000000E+00  0.17059556289E+03  0.17059556289E+03  0.00000000000E+00 0. -1.
         21   -1    0    0  501  502  0.00000000000E+00 -0.00000000000E+00 -0.21256215647E+03  0.21256215647E+03  0.00000000000E+00 0. -1.
         24    2    1    2    0    0 -0.77151685766E+02 -0.21336389205E+02  0.11898980265E+03  0.16570165052E+03  0.83011081967E+02 0.  0.
         23    2    1    2    0    0  0.54363490613E+02  0.24162867473E+02 -0.67951500702E+02  0.12165835795E+03  0.81511449102E+02 0.  0.
        -11    1    3    3    0    0 -0.58224661679E+02  0.22681338430E+02  0.90437880182E+02  0.10992526785E+03  0.00000000000E+00 0.  1.
         12    1    3    3    0    0 -0.18927024088E+02 -0.44017727635E+02  0.28551922473E+02  0.55776382671E+02  0.00000000000E+00 0. -1.
        -13    1    4    4    0    0  0.75619536960E+02  0.13669159130E+02 -0.47424729657E+02  0.90300970451E+02  0.00000000000E+00 0.  1.
         13    1    4    4    0    0 -0.21256046347E+02  0.10493708343E+02 -0.20526771045E+02  0.31357387497E+02  0.00000000000E+00 0. -1.
          1    1    1    2  501    0  0.22788195154E+02 -0.28264782685E+01 -0.93004895535E+02  0.95797710888E+02  0.00000000000E+00 0. -1.
<scales pt_clust_5="13000.00000" pt_clust_6="13000.00000" pt_clust_7="13000.00000" pt_clust_8="13000.00000" pt_clust_9="22.96281"></scales>
<clustering>
<clus scale="   22.963">  2  9  1 -1</clus>
<clus scale="   81.511">  7  8 -1 -1</clus>
<clus scale="   83.011">  5  6 -1 -1</clus>
<clus scale="  111.360">  2  7  1 -1</clus>
<clus scale="   22.963">  2  5  1 -1</clus>
</clustering>
</event>
<event>
 9    2  0.1488992E-004  0.9381401E+02  0.7546771E-02  0.1295403E+00
          2   -1    0    0  502    0 -0.00000000000E+00  0.00000000000E+00  0.24587889348E+03  0.24587889348E+03  0.00000000000E+00 0. -1.
         21   -1    0    0  501  502  0.00000000000E+00 -0.00000000000E+00 -0.72668106628E+02  0.72668106628E+02  0.00000000000E+00 0.  1.
         23    2    1    2    0    0 -0.70480995190E+01 -0.39795429938E+02  0.90548678879E+02  0.13312157691E+03  0.88819699618E+02 0.  0.
         24    2    1    2    0    0  0.28418886017E+02 -0.22450950617E+02  0.62487893665E+02  0.11658995756E+03  0.91524876850E+02 0.  0.
        -13    1    4    4    0    0  0.25431724114E+02  0.95020538629E+01 -0.16196150251E+02  0.31612923022E+02  0.00000000000E+00 0.  1.
         14    1    4    4    0    0  0.29871619030E+01 -0.31953004480E+02  0.78684043916E+02  0.84977034536E+02  0.00000000000E+00 0. -1.
        -13    1    3    3    0    0 -0.10723687210E+02 -0.62375865842E+02  0.90264006458E+02  0.11024217418E+03  0.00000000000E+00 0. -1.
         13    1    3    3    0    0  0.36755876908E+01  0.22580435904E+02  0.28467242012E+00  0.22879402721E+02  0.00000000000E+00 0.  1.
          1    1    1    2  501    0 -0.21370786498E+02  0.62246380555E+02  0.20174214308E+02  0.68835465646E+02  0.00000000000E+00 0. -1.
<scales pt_clust_5="13000.00000" pt_clust_6="13000.00000" pt_clust_7="13000.00000" pt_clust_8="13000.00000" pt_clust_9="65.81278"></scales>
<clustering>
<clus scale="   65.813">  2  9  1 -1</clus>
<clus scale="   88.820">  7  8 -1 -1</clus>
<clus scale="   91.177">  1  7  2 -1</clus>
<clus scale="   91.525">  5  6 -1 -1</clus>
<clus scale="   65.813">  2  5  1 -1</clus>
</clustering>
</event>
<event>
 9    2  0.1488992E-004  0.1370648E+03  0.7546771E-02  0.1219753E+00
         -1   -1    0    0    0  501 -0.00000000000E+00  0.00000000000E+00  0.17974173690E+03  0.17974173690E+03  0.00000000000E+00 0.  1.
         21   -1    0    0  501  502  0.00000000000E+00 -0.00000000000E+00 -0.18660511512E+03  0.18660511512E+03  0.00000000000E+00 0.  1.
         23    2    1    2    0    0 -0.12768976904E+03 -0.10850769854E+02  0.71418031983E+02  0.17283724687E+03  0.91377033718E+02 0.  0.
         24    2    1    2    0    0  0.54637856355E+02  0.25130060211E+02 -0.58505312386E+02  0.11649289187E+03  0.80814027279E+02 0.  0.
        -13    1    4    4    0    0 -0.27121537701E+01  0.40998606836E+02 -0.20864436637E+02  0.46082168533E+02  0.00000000000E+00 0.  1.
         14    1    4    4    0    0  0.57350010125E+02 -0.15868546625E+02 -0.37640875749E+02  0.70410723334E+02  0.00000000000E+00 0. -1.
        -11    1    3    3    0    0 -0.12236657417E+03 -0.37782597338E+02  0.68484210586E+02  0.14522806284E+03  0.00000000000E+00 0.  1.
         11    1    3    3    0    0 -0.53231948686E+01  0.26931827484E+02  0.29338213973E+01  0.27609184037E+02  0.00000000000E+00 0. -1.
         -2    1    1    2    0  502  0.73051912685E+02 -0.14279290357E+02 -0.19776097818E+02  0.77016713283E+02  0.00000000000E+00 0.  1.
<scales pt_clust_5="13000.00000" pt_clust_6="13000.00000" pt_clust_7="13000.00000" pt_clust_8="13000.00000" pt_clust_9="74.43440"></scales>
<clustering>
<clus scale="   74.434">  2  9  1 -1</clus>
<clus scale="   80.814">  5  6 -1 -1</clus>
<clus scale="   91.377">  7  8 -1 -1</clus>
<clus scale="  130.261">  2  5  1 -1</clus>
<clus scale="   74.434">  2  5  1 -1</clus>
</clustering>
</event>
<event>
 9    2  0.1488992E-004  0.1011100E+03  0.7546771E-02  0.1283844E+00
          2   -1    0    0  502    0 -0.00000000000E+00  0.00000000000E+00  0.50204978001E+03  0.50204978001E+03  0.00000000000E+00 0. -1.
         21   -1    0    0  501  502  0.00000000000E+00 -0.00000000000E+00 -0.45595283290E+02  0.45595283290E+02  0.00000000000E+00 0. -1.
         23    2    1    2    0    0 -0.44719212506E+01  0.70777714475E+02  0.32552176708E+03  0.34541256594E+03  0.91191759049E+02 0.  0.
         24    2    1    2    0    0 -0.11762214203E+02 -0.39646530022E+01  0.96117809062E+02  0.12516362535E+03  0.79203735623E+02 0.  0.
        -11    1    4    4    0    0 -0.40895110841E+02 -0.62607271575E+01  0.83788819195E+02  0.93446096854E+02  0.00000000000E+00 0.  1.
         12    1    4    4    0    0  0.29132896638E+02  0.22960741553E+01  0.12328989867E+02  0.31717528500E+02  0.00000000000E+00 0. -1.
        -13    1    3    3    0    0 -0.20145776965E+02  0.65472157113E+01  0.10716478665E+02  0.23739445614E+02  0.00000000000E+00 0.  1.
         13    1    3    3    0    0  0.15673855714E+02  0.64230498763E+02  0.31480528842E+03  0.32167312033E+03  0.00000000000E+00 0. -1.
          1    1    1    2  501    0  0.16234135454E+02 -0.66813061472E+02  0.34814920573E+02  0.77068872003E+02  0.00000000000E+00 0. -1.
<scales pt_clust_5="13000.00000" pt_clust_6="13000.00000" pt_clust_7="13000.00000" pt_clust_8="13000.00000" pt_clust_9="68.75705"></scales>
<clustering>
<clus scale="   68.757">  2  9  1 -1</clus>
<clus scale="   79.204">  5  6 -1 -1</clus>
<clus scale="   90.446">  2  5  1 -1</clus>
<clus scale="   91.192">  7  8 -1 -1</clus>
<clus scale="   68.757">  2  5  1 -1</clus>
</clustering>
</event>
<event>
 9    2  0.1488992E-004  0.1186873E+03  0.7546771E-02  0.1259766E+00
         21   -1    0    0  501  502  0.00000000000E+00  0.00000000000E+00  0.63553874887E+02  0.63553874887E+02  0.00000000000E+00 0. -1.
          2   -1    0    0  502    0 -0.00000000000E+00 -0.00000000000E+00 -0.52569291451E+03  0.52569291451E+03  0.00000000000E+00 0. -1.
         24    2    1    2    0    0 -0.36196043032E+02 -0.97188923253E+01 -0.43796967429E+03  0.44704238216E+03  0.81393153554E+02 0.  0.
         23    2    1    2    0    0  0.14780267940E+02  0.19997731833E+02 -0.24764363819E+02  0.11844216854E+03  0.11312341922E+03 0.  0.
        -13    1    3    3    0    0 -0.34743708805E+01 -0.23220001103E+02 -0.32841992238E+02  0.40371229340E+02  0.00000000000E+00 0.  1.
         14    1    3    3    0    0 -0.32721672152E+02  0.13501108778E+02 -0.40512768206E+03  0.40667115282E+03  0.00000000000E+00 0. -1.
        -13    1    4    4    0    0  0.27570161221E+02 -0.37159763417E+02  0.13836779645E+02  0.48295116502E+02  0.00000000000E+00 0.  1.
         13    1    4    4    0    0 -0.12789893281E+02  0.57157495251E+02 -0.38601143464E+02  0.70147052042E+02  0.00000000000E+00 0. -1.
          1    1    1    2  501    0  0.21415775093E+02 -0.10278839508E+02  0.59499849251E+00  0.23762238692E+02  0.00000000000E+00 0. -1.
<scales pt_clust_5="13000.00000" pt_clust_6="13000.00000" pt_clust_7="13000.00000" pt_clust_8="13000.00000" pt_clust_9="23.75479"></scales>
<clustering>
<clus scale="   23.755">  1  9  2 -1</clus>
<clus scale="   81.393">  5  6 -1 -1</clus>
<clus scale="   88.964">  2  5  1 -1</clus>
<clus scale="  113.123">  7  8 -1 -1</clus>
<clus scale="   23.755">  1  5  2 -1</clus>
</clustering>
</event>
<event>
 9    2  0.1488992E-004  0.1964436E+03  0.7546771E-02  0.1153841E+00
         21   -1    0    0  501  502  0.00000000000E+00  0.00000000000E+00  0.18642194148E+03  0.18642194148E+03  0.00000000000E+00 0. -1.
          2   -1    0    0  502    0 -0.00000000000E+00 -0.00000000000E+00 -0.23767447855E+03  0.23767447855E+03  0.00000000000E+00 0. -1.
         24    2    1    2    0    0  0.15330502756E+02 -0.16257385268E+03 -0.44895720799E+02  0.18807175422E+03  0.81792891488E+02 0.  0.
         23    2    1    2    0    0 -0.17268231976E+02  0.18553237883E+03 -0.20328481240E+02  0.20907923690E+03  0.92630581998E+02 0.  0.
        -13    1    3    3    0    0 -0.22904976743E+02 -0.11556668182E+03 -0.10219078530E+02  0.11825703139E+03  0.00000000000E+00 0.  1.
         14    1    3    3    0    0  0.38235479499E+02 -0.47007170863E+02 -0.34676642269E+02  0.69814722832E+02  0.00000000000E+00 0. -1.
        -13    1    4    4    0    0 -0.49559391952E+02  0.14572331425E+03  0.44091451719E-01  0.15392017279E+03  0.00000000000E+00 0. -1.
         13    1    4    4    0    0  0.32291159976E+02  0.39809064586E+02 -0.20372572691E+02  0.55159064114E+02  0.00000000000E+00 0.  1.
          1    1    1    2  501    0  0.19377292193E+01 -0.22958526151E+02  0.13971664967E+02  0.26945428917E+02  0.00000000000E+00 0. -1.
<scales pt_clust_5="13000.00000" pt_clust_6="13000.00000" pt_clust_7="13000.00000" pt_clust_8="13000.00000" pt_clust_9="23.04015"></scales>
<clustering>
<clus scale="   23.040">  1  9  2 -1</clus>
<clus scale="   81.793">  5  6 -1 -1</clus>
<clus scale="   92.631">  7  8 -1 -1</clus>
<clus scale="  191.572">  2  5  1 -1</clus>
<clus scale="   23.040">  1  5  2 -1</clus>
</clustering>
</event>
<event>
 9    2  0.1488992E-004  0.1140600E+03  0.7546771E-02  0.1257160E+00
          2   -1    0    0  502    0 -0.00000000000E+00  0.00000000000E+00  0.30625514378E+03  0.30625514378E+03  0.00000000000E+00 0. -1.
         21   -1    0    0  501  502  0.00000000000E+00 -0.00000000000E+00 -0.72889226012E+02  0.72889226012E+02  0.00000000000E+00 0.  1.
         24    2    1    2    0    0 -0.26594837412E+02 -0.59543577368E+02  0.90877210490E+02  0.13774076805E+03  0.80381147124E+02 0.  0.
         23    2    1    2    0    0  0.84037985963E+02  0.28855609794E+02  0.76086155790E+02  0.14839411022E+03  0.91305419031E+02 0.  0.
        -11    1    3    3    0    0 -0.45448483077E+02 -0.43053759371E+02  0.25263509806E+02  0.67508782670E+02  0.00000000000E+00 0.  1.
         12    1    3    3    0    0  0.18853645664E+02 -0.16489817997E+02  0.65613700685E+02  0.70231985377E+02  0.00000000000E+00 0. -1.
        -11    1    4    4    0    0  0.82188929602E+02 -0.14793207900E+02  0.53922209215E+02  0.99405552137E+02  0.00000000000E+00 0.  1.
         11    1    4    4    0    0  0.18490563615E+01  0.43648817694E+02  0.22163946575E+02  0.48988558085E+02  0.00000000000E+00 0. -1.
          1    1    1    2  501    0 -0.57443148551E+02  0.30687967574E+02  0.66402551489E+02  0.93009491524E+02  0.00000000000E+00 0. -1.
<scales pt_clust_5="13000.00000" pt_clust_6="13000.00000" pt_clust_7="13000.00000" pt_clust_8="13000.00000" pt_clust_9="65.12658"></scales>
<clustering>
<clus scale="   65.127">  2  9  1 -1</clus>
<clus scale="   80.381">  5  6 -1 -1</clus>
<clus scale="   91.305">  7  8 -1 -1</clus>
<clus scale="  105.518">  1  5  2 -1</clus>
<clus scale="   65.127">  2  5  1 -1</clus>
</clustering>
</event>
<event>
 9    2  0.1488992E-004  0.8846137E+02  0.7546771E-02  0.1309762E+00
         -1   -1    0    0    0  501 -0.00000000000E+00  0.00000000000E+00  0.85391755154E+02  0.85391755154E+02  0.00000000000E+00 0.  1.
         21   -1    0    0  501  502  0.00000000000E+00 -0.00000000000E+00 -0.17789554238E+03  0.17789554238E+03  0.00000000000E+00 0. -1.
         23    2    1    2    0    0 -0.10202729941E+02 -0.10772719617E+02  0.83037111275E+01  0.87232397607E+02  0.85559291650E+02 0.  0.
         24    2    1    2    0    0 -0.20269281795E+02  0.47581688901E+02 -0.57770181279E+02  0.11174584629E+03  0.80466635409E+02 0.  0.
        -11    1    4    4    0    0  0.12765283268E+01  0.59605807577E+02 -0.13599473576E+02  0.61150858563E+02  0.00000000000E+00 0.  1.
         12    1    4    4    0    0 -0.21545810122E+02 -0.12024118675E+02 -0.44170707703E+02  0.50594987723E+02  0.00000000000E+00 0. -1.
        -11    1    3    3    0    0  0.34782042307E+02 -0.50388012991E+01  0.19949207820E+02  0.40412261483E+02  0.00000000000E+00 0.  1.
         11    1    3    3    0    0 -0.44984772247E+02 -0.57339183178E+01 -0.11645496692E+02  0.46820136124E+02  0.00000000000E+00 0. -1.
         -2    1    1    2    0  502  0.30472011735E+02 -0.36808969285E+02 -0.43037317071E+02  0.64309053637E+02  0.00000000000E+00 0.  1.
<scales pt_clust_5="13000.00000" pt_clust_6="13000.00000" pt_clust_7="13000.00000" pt_clust_8="13000.00000" pt_clust_9="47.78539"></scales>
<clustering>
<clus scale="   47.785">  2  9  1 -1</clus>
<clus scale="   80.467">  5  6 -1 -1</clus>
<clus scale="   83.546">  2  5  1 -1</clus>
<clus scale="   85.559">  7  8 -1 -1</clus>
<clus scale="   47.785">  2  5  1 -1</clus>
</clustering>
</event>
<event>
 9    2  0.1488992E-004  0.9513381E+02  0.7546771E-02  0.1294874E+00
         21   -1    0    0  501  502  0.00000000000E+00  0.00000000000E+00  0.25296085424E+02  0.25296085424E+02  0.00000000000E+00 0.  1.
          2   -1    0    0  502    0 -0.00000000000E+00 -0.00000000000E+00 -0.76874648786E+03  0.76874648786E+03  0.00000000000E+00 0. -1.
         24    2    1    2    0    0 -0.25554304966E+02 -0.54112622532E+02 -0.43103196926E+03  0.44241770842E+03  0.79772625501E+02 0.  0.
         23    2    1    2    0    0 -0.22419642294E+02  0.16734042397E+01 -0.16702483868E+03  0.18978955181E+03  0.87277354440E+02 0.  0.
        -11    1    3    3    0    0 -0.52276994699E+02 -0.31725756723E+02 -0.21253618011E+03  0.22115839498E+03  0.00000000000E+00 0.  1.
         12    1    3    3    0    0  0.26722689733E+02 -0.22386865809E+02 -0.21849578915E+03  0.22125931344E+03  0.00000000000E+00 0. -1.
        -11    1    4    4    0    0 -0.15423934737E+02 -0.30977392541E+02 -0.22082143845E+02  0.41050184996E+02  0.00000000000E+00 0.  1.
         11    1    4    4    0    0 -0.69957075573E+01  0.32650796780E+02 -0.14494269483E+03  0.14873936681E+03  0.00000000000E+00 0. -1.
          1    1    1    2  501    0  0.47973947260E+02  0.52439218292E+02 -0.14539359450E+03  0.16183531306E+03  0.00000000000E+00 0. -1.
<scales pt_clust_5="13000.00000" pt_clust_6="13000.00000" pt_clust_7="13000.00000" pt_clust_8="13000.00000" pt_clust_9="71.07300"></scales>
<clustering>
<clus scale="   71.073">  1  9  2 -1</clus>
<clus scale="   79.773">  5  6 -1 -1</clus>
<clus scale="   87.277">  7  8 -1 -1</clus>
<clus scale="   88.299">  2  5  1 -1</clus>
<clus scale="   71.073">  1  5  2 -1</clus>
</clustering>
</event>
<event>
 9    2  0.1488992E-004  0.1528505E+03  0.7546771E-02  0.1217380E+00
         21   -1    0    0  501  502  0.00000000000E+00  0.00000000000E+00  0.13197040128E+03  0.13197040128E+03  0.00000000000E+00 0.  1.
         -1   -1    0    0    0  501 -0.00000000000E+00 -0.00000000000E+00 -0.33318130927E+03  0.33318130927E+03  0.00000000000E+00 0.  1.
         23    2    1    2    0    0  0.36568477602E+02 -0.11516794392E+02 -0.10290432263E+03  0.14261257659E+03  0.90989874602E+02 0.  0.
         24    2    1    2    0    0 -0.14543982116E+03 -0.44264608443E+02 -0.10262528067E+03  0.20013331106E+03  0.80058084050E+02 0.  0.
        -13    1    4    4    0    0 -0.92701713036E+02 -0.49708998786E+02 -0.10284973853E+03  0.14711444822E+03  0.00000000000E+00 0.  1.
         14    1    4    4    0    0 -0.52738108128E+02  0.54443903422E+01  0.22445786037E+00  0.53018862836E+02  0.00000000000E+00 0. -1.
        -11    1    3    3    0    0 -0.26905063972E+02  0.92670112257E+01 -0.49502921283E+02  0.57099029588E+02  0.00000000000E+00 0.  1.
         11    1    3    3    0    0  0.63473541574E+02 -0.20783805618E+02 -0.53401401343E+02  0.85513547005E+02  0.00000000000E+00 0. -1.
         -2    1    1    2    0  502  0.10887134356E+03  0.55781402835E+02  0.43186952948E+01  0.12240582290E+03  0.00000000000E+00 0.  1.
<scales pt_clust_5="13000.00000" pt_clust_6="13000.00000" pt_clust_7="13000.00000" pt_clust_8="13000.00000" pt_clust_9="130.20747"></scales>
<clustering>
<clus scale="   80.058">  5  6 -1 -1</clus>
<clus scale="   90.990">  7  8 -1 -1</clus>
<clus scale="   98.737">  2  7  1 -1</clus>
<clus scale="  130.207">  1  9  2 -1</clus>
<clus scale="  130.207">  1  5  2 -1</clus>
</clustering>
</event>
<event>
 9    2  0.1488992E-004  0.2416013E+03  0.7546771E-02  0.1119508E+00
         -1   -1    0    0    0  501 -0.00000000000E+00  0.00000000000E+00  0.45934702913E+03  0.45934702913E+03  0.00000000000E+00 0.  1.
         21   -1    0    0  501  502  0.00000000000E+00 -0.00000000000E+00 -0.21346393911E+03  0.21346393911E+03  0.00000000000E+00 0.  1.
         23    2    1    2    0    0  0.14513617556E+03 -0.16908494826E+03  0.11759267777E+03  0.26875042181E+03  0.93512149891E+02 0.  0.
         24    2    1    2    0    0 -0.22806807916E+03  0.75505066017E+02  0.11502392178E+03  0.27831916594E+03  0.80715499272E+02 0.  0.
        -13    1    4    4    0    0 -0.20061590285E+03  0.60904152206E+02  0.65149494485E+02  0.21954615201E+03  0.00000000000E+00 0.  1.
         14    1    4    4    0    0 -0.27452176311E+02  0.14600913811E+02  0.49874427293E+02  0.58773013927E+02  0.00000000000E+00 0. -1.
        -11    1    3    3    0    0  0.60616769009E+02 -0.10620252560E+02  0.37842060311E+02  0.72244058428E+02  0.00000000000E+00 0. -1.
         11    1    3    3    0    0  0.84519406546E+02 -0.15846469570E+03  0.79750617461E+02  0.19650636339E+03  0.00000000000E+00 0.  1.
         -2    1    1    2    0  502  0.82931903606E+02  0.93579882241E+02  0.13266490476E+02  0.12574138048E+03  0.00000000000E+00 0.  1.
<scales pt_clust_5="13000.00000" pt_clust_6="13000.00000" pt_clust_7="13000.00000" pt_clust_8="13000.00000" pt_clust_9="125.03957"></scales>
<clustering>
<clus scale="   80.715">  5  6 -1 -1</clus>
<clus scale="   93.512">  7  8 -1 -1</clus>
<clus scale="  125.040">  2  9  1 -1</clus>
<clus scale="  236.942">  2  5  1 -1</clus>
<clus scale="  125.040">  2  5  1 -1</clus>
</clustering>
</event>
<event>
 9    2  0.1488992E-004  0.1153461E+03  0.7546771E-02  0.1262011E+00
          2   -1    0    0  502    0 -0.00000000000E+00  0.00000000000E+00  0.56456894170E+02  0.56456894170E+02  0.00000000000E+00 0. -1.
         21   -1    0    0  501  502  0.00000000000E+00 -0.00000000000E+00 -0.84995399950E+03  0.84995399950E+03  0.00000000000E+00 0. -1.
         24    2    1    2    0    0 -0.16186075197E+02 -0.50904962443E+02 -0.13181782170E+02  0.97801423896E+02  0.80858239551E+02 0.  0.
         23    2    1    2    0    0 -0.45106980584E+02  0.14007290853E+02 -0.27848455730E+03  0.30170475050E+03  0.10602482694E+03 0.  0.
        -13    1    3    3    0    0 -0.44919081615E+01 -0.35973303362E+02 -0.46802115829E+02  0.59200454726E+02  0.00000000000E+00 0.  1.
         14    1    3    3    0    0 -0.11694167036E+02 -0.14931659081E+02  0.33620333659E+02  0.38600969171E+02  0.00000000000E+00 0. -1.
        -13    1    4    4    0    0  0.17371306962E+02  0.28148636491E+02 -0.28559312388E+02  0.43700599149E+02  0.00000000000E+00 0.  1.
         13    1    4    4    0    0 -0.62478287546E+02 -0.14141345638E+02 -0.24992524491E+03  0.25800415136E+03  0.00000000000E+00 0. -1.
          1    1    1    2  501    0  0.61293055781E+02  0.36897671590E+02 -0.50183076586E+03  0.50690471927E+03  0.00000000000E+00 0. -1.
<scales pt_clust_5="13000.00000" pt_clust_6="13000.00000" pt_clust_7="13000.00000" pt_clust_8="13000.00000" pt_clust_9="71.54213"></scales>
<clustering>
<clus scale="   71.542">  2  9  1 -1</clus>
<clus scale="   80.858">  5  6 -1 -1</clus>
<clus scale="   92.744">  1  5  2 -1</clus>
<clus scale="  106.025">  7  8 -1 -1</clus>
<clus scale="   71.542">  2  5  1 -1</clus>
</clustering>
</event>
<event>
 9    2  0.1488992E-004  0.9324204E+02  0.7546771E-02  0.1300445E+00
         21   -1    0    0  501  502  0.00000000000E+00  0.00000000000E+00  0.29279332509E+03  0.29279332509E+03  0.00000000000E+00 0.  1.
         -1   -1    0    0    0  501 -0.00000000000E+00 -0.00000000000E+00 -0.76639380318E+02  0.76639380318E+02  0.00000000000E+00 0.  1.
         24    2    1    2    0    0  0.11684406839E+02  0.28861003168E+02 -0.27264557814E+02  0.90446402312E+02  0.80422090941E+02 0.  0.
         23    2    1    2    0    0 -0.49754104123E+01  0.97824959441E+01  0.20564119709E+03  0.22453030740E+03  0.89471252735E+02 0.  0.
        -13    1    3    3    0    0 -0.40417688931E+01  0.29770123747E+02  0.22958299485E+02  0.37811105232E+02  0.00000000000E+00 0.  1.
         14    1    3    3    0    0  0.15726175732E+02 -0.90912057849E+00 -0.50222857299E+02  0.52635297079E+02  0.00000000000E+00 0. -1.
        -13    1    4    4    0    0 -0.13464126136E+01 -0.35684863001E+02  0.44492499458E+02  0.57050896420E+02  0.00000000000E+00 0. -1.
         13    1    4    4    0    0 -0.36289977987E+01  0.45467358945E+02  0.16114869763E+03  0.16747941098E+03  0.00000000000E+00 0.  1.
         -2    1    1    2    0  502 -0.67089964265E+01 -0.38643499112E+02  0.37777305503E+02  0.54455995701E+02  0.00000000000E+00 0.  1.
<scales pt_clust_5="13000.00000" pt_clust_6="13000.00000" pt_clust_7="13000.00000" pt_clust_8="13000.00000" pt_clust_9="39.22156"></scales>
<clustering>
<clus scale="   39.222">  1  9  2 -1</clus>
<clus scale="   80.422">  5  6 -1 -1</clus>
<clus scale="   84.597">  2  5  1 -1</clus>
<clus scale="   89.471">  7  8 -1 -1</clus>
<clus scale="   39.222">  1  5  2 -1</clus>
</clustering>
</event>
<event>
 9    2  0.1488992E-004  0.1002459E+03  0.7546771E-02  0.1300663E+00
          2   -1    0    0  502    0 -0.00000000000E+00  0.00000000000E+00  0.20279853308E+03  0.20279853308E+03  0.00000000000E+00 0. -1.
         21   -1    0    0  501  502  0.00000000000E+00 -0.00000000000E+00 -0.79586125435E+02  0.79586125435E+02  0.00000000000E+00 0.  1.
         24    2    1    2    0    0 -0.74896745641E+01 -0.78874767043E+01  0.89502123357E+02  0.11131593633E+03  0.65286293222E+02 0.  0.
         23    2    1    2    0    0  0.48639960011E+02 -0.29208225298E+01  0.55615485741E+02  0.12321474455E+03  0.98561727389E+02 0.  0.
        -11    1    3    3    0    0 -0.10338720187E+02  0.27713339816E+02  0.49728752842E+02  0.57860756978E+02  0.00000000000E+00 0.  1.
         12    1    3    3    0    0  0.28490456226E+01 -0.35600816520E+02  0.39773370515E+02  0.53455179356E+02  0.00000000000E+00 0. -1.
        -11    1    4    4    0    0 -0.18894458010E+02 -0.28183555500E+02  0.32200343818E+01  0.34083455892E+02  0.00000000000E+00 0.  1.
         11    1    4    4    0    0  0.67534418021E+02  0.25262732970E+02  0.52395451359E+02  0.89131288657E+02  0.00000000000E+00 0. -1.
          1    1    1    2  501    0 -0.41150285447E+02  0.10808299234E+02 -0.21905201452E+02  0.47853977634E+02  0.00000000000E+00 0. -1.
<scales pt_clust_5="13000.00000" pt_clust_6="13000.00000" pt_clust_7="13000.00000" pt_clust_8="13000.00000" pt_clust_9="42.54604"></scales>
<clustering>
<clus scale="   42.546">  2  9  1 -1</clus>
<clus scale="   65.286">  5  6 -1 -1</clus>
<clus scale="   67.802">  1  5  2 -1</clus>
<clus scale="   98.562">  7  8 -1 -1</clus>
<clus scale="   42.546">  2  5  1 -1</clus>
</clustering>
</event>
<event>
 9    2  0.1488992E-004  0.9128870E+02  0.7546771E-02  0.1309789E+00
         21   -1    0    0  501  502  0.00000000000E+00  0.00000000000E+00  0.43135071564E+03  0.43135071564E+03  0.00000000000E+00 0. -1.
         -1   -1    0    0    0  501 -0.00000000000E+00 -0.00000000000E+00 -0.46682693839E+02  0.46682693839E+02  0.00000000000E+00 0.  1.
         24    2    1    2    0    0 -0.96829319109E+01  0.11051426446E+02  0.29520604663E+02  0.82733752542E+02  0.75878287494E+02 0.  0.
         23    2    1    2    0    0 -0.17735792392E+02  0.45733312619E+02  0.16340674939E+03  0.19345621092E+03  0.91200030598E+02 0.  0.
        -13    1    3    3    0    0 -0.20534317734E+02  0.40088457585E+02  0.24679117294E+02  0.51359531411E+02  0.00000000000E+00 0.  1.
         14    1    3    3    0    0  0.10851385823E+02 -0.29037031139E+02  0.48414873695E+01  0.31374221131E+02  0.00000000000E+00 0. -1.
        -13    1    4    4    0    0 -0.39994998607E+02 -0.11717668165E+02  0.59215940163E+02  0.72411540725E+02  0.00000000000E+00 0.  1.
         13    1    4    4    0    0  0.22259206215E+02  0.57450980784E+02  0.10419080923E+03  0.12104467019E+03  0.00000000000E+00 0. -1.
         -2    1    1    2    0  502  0.27418724303E+02 -0.56784739065E+02  0.19174066775E+03  0.20184344602E+03  0.00000000000E+00 0.  1.
<scales pt_clust_5="13000.00000" pt_clust_6="13000.00000" pt_clust_7="13000.00000" pt_clust_8="13000.00000" pt_clust_9="63.05785"></scales>
<clustering>
<clus scale="   63.058">  1  9  2 -1</clus>
<clus scale="   75.878">  5  6 -1 -1</clus>
<clus scale="   75.985">  2  5  1 -1</clus>
<clus scale="   91.200">  7  8 -1 -1</clus>
<clus scale="   63.058">  1  5  2 -1</clus>
</clustering>
</event>
<event>
 9    2  0.1488992E-004  0.3058392E+03  0.7546771E-02  0.1082358E+00
         21   -1    0    0  501  502  0.00000000000E+00  0.00000000000E+00  0.73273281805E+02  0.73273281805E+02  0.00000000000E+00 0. -1.
          2   -1    0    0  502    0 -0.00000000000E+00 -0.00000000000E+00 -0.96705512860E+03  0.96705512860E+03  0.00000000000E+00 0. -1.
         24    2    1    2    0    0 -0.18893017331E+03 -0.34069036797E+02 -0.39089222754E+03  0.44291202323E+03  0.80740430488E+02 0.  0.
         23    2    1    2    0    0 -0.27085717500E+02 -0.20104438111E+02 -0.18690565772E+03  0.21083716579E+03  0.91546496732E+02 0.  0.
        -11    1    3    3    0    0 -0.62008081791E+02 -0.50446683241E+02 -0.16300010079E+03  0.18154587000E+03  0.00000000000E+00 0.  1.
         12    1    3    3    0    0 -0.12692209152E+03  0.16377646443E+02 -0.22789212676E+03  0.26136615323E+03  0.00000000000E+00 0. -1.
        -11    1    4    4    0    0 -0.16654777424E+02  0.33060037564E+02 -0.41213991937E+02  0.55398021862E+02  0.00000000000E+00 0.  1.
         11    1    4    4    0    0 -0.10430940076E+02 -0.53164475675E+02 -0.14569166579E+03  0.15543914393E+03  0.00000000000E+00 0. -1.
          1    1    1    2  501    0  0.21601589081E+03  0.54173474908E+02 -0.31598396153E+03  0.38657922139E+03  0.00000000000E+00 0. -1.
<scales pt_clust_5="13000.00000" pt_clust_6="13000.00000" pt_clust_7="13000.00000" pt_clust_8="13000.00000" pt_clust_9="222.70525"></scales>
<clustering>
<clus scale="   80.740">  5  6 -1 -1</clus>
<clus scale="   91.546">  7  8 -1 -1</clus>
<clus scale="   93.135">  5  7 -1 -1</clus>
<clus scale="  222.705">  1  9  2 -1</clus>
<clus scale="  222.705">  1  5  2 -1</clus>
</clustering>
</event>
<event>
 9    2  0.1488992E-004  0.1464497E+03  0.7546771E-02  0.1206634E+00
          2   -1    0    0  502    0 -0.00000000000E+00  0.00000000000E+00  0.62689589678E+03  0.62689589678E+03  0.00000000000E+00 0. -1.
         21   -1    0    0  501  502  0.00000000000E+00 -0.00000000000E+00 -0.71489954547E+02  0.71489954547E+02  0.00000000000E+00 0. -1.
         23    2    1    2    0    0  0.98928912286E+02 -0.58093093071E+02  0.39088388587E+03  0.41701429218E+03  0.89156999187E+02 0.  0.
         24    2    1    2    0    0 -0.12183244129E+03  0.22631914449E+02  0.18318987819E+03  0.23521363023E+03  0.80072299017E+02 0.  0.
        -13    1    4    4    0    0 -0.46170741283E+02  0.11979932723E+02  0.14225048246E+02  0.49775577709E+02  0.00000000000E+00 0.  1.
         14    1    4    4    0    0 -0.75661700008E+02  0.10651981727E+02  0.16896482995E+03  0.18543805252E+03  0.00000000000E+00 0. -1.
        -11    1    3    3    0    0 -0.80681693674E+01 -0.34022398384E+02  0.11240973534E+03  0.11772241735E+03  0.00000000000E+00 0. -1.
         11    1    3    3    0    0  0.10699708165E+03 -0.24070694687E+02  0.27847415053E+03  0.29929187483E+03  0.00000000000E+00 0.  1.
          1    1    1    2  501    0  0.22903529005E+02  0.35461178622E+02 -0.18667821828E+02  0.46157928917E+02  0.00000000000E+00 0. -1.
<scales pt_clust_5="13000.00000" pt_clust_6="13000.00000" pt_clust_7="13000.00000" pt_clust_8="13000.00000" pt_clust_9="42.21453"></scales>
<clustering>
<clus scale="   42.215">  2  9  1 -1</clus>
<clus scale="   80.072">  5  6 -1 -1</clus>
<clus scale="   89.157">  7  8 -1 -1</clus>
<clus scale="  141.103">  2  5  1 -1</clus>
<clus scale="   42.215">  2  5  1 -1</clus>
</clustering>
</event>
<event>
 9    2  0.1488992E-004  0.1757945E+03  0.7546771E-02  0.1173837E+00
          2   -1    0    0  502    0 -0.00000000000E+00  0.00000000000E+00  0.13851554768E+04  0.13851554768E+04  0.00000000000E+00 0. -1.
         21   -1    0    0  501  502  0.00000000000E+00 -0.00000000000E+00 -0.35940152161E+02  0.35940152161E+02  0.00000000000E+00 0. -1.
         23    2    1    2    0    0 -0.10229305278E+03  0.75343584046E+02  0.64534066616E+03  0.66435255345E+03  0.93590681017E+02 0.  0.
         24    2    1    2    0    0  0.16631930736E+03 -0.88734750029E+02  0.60160286985E+03  0.63534207324E+03  0.78724641345E+02 0.  0.
        -13    1    4    4    0    0  0.11641084024E+03 -0.54306803237E+02  0.27980803874E+03  0.30788512654E+03  0.00000000000E+00 0.  1.
         14    1    4    4    0    0  0.49908467120E+02 -0.34427946791E+02  0.32179483112E+03  0.32745694670E+03  0.00000000000E+00 0. -1.
        -13    1    3    3    0    0 -0.24571542719E+02 -0.21320406673E+02  0.17074594332E+03  0.17381742609E+03  0.00000000000E+00 0.  1.
         13    1    3    3    0    0 -0.77721510060E+02  0.96663990718E+02  0.47459472285E+03  0.49053512737E+03  0.00000000000E+00 0. -1.
          1    1    1    2  501    0 -0.64026254586E+02  0.13391165983E+02  0.10227178864E+03  0.12140100228E+03  0.00000000000E+00 0. -1.
<scales pt_clust_5="13000.00000" pt_clust_6="13000.00000" pt_clust_7="13000.00000" pt_clust_8="13000.00000" pt_clust_9="65.41165"></scales>
<clustering>
<clus scale="   65.412">  2  9  1 -1</clus>
<clus scale="   78.725">  5  6 -1 -1</clus>
<clus scale="   93.591">  7  8 -1 -1</clus>
<clus scale="  168.351">  2  5  1 -1</clus>
<clus scale="   65.412">  2  5  1 -1</clus>
</clustering>
</event>
<event>
 9    2  0.1488992E-004  0.1541564E+03  0.7546771E-02  0.1224127E+00
         21   -1    0    0  501  502  0.00000000000E+00  0.00000000000E+00  0.13663293947E+03  0.13663293947E+03  0.00000000000E+00 0.  1.
         -1   -1    0    0    0  501 -0.00000000000E+00 -0.00000000000E+00 -0.44275475025E+03  0.44275475025E+03  0.00000000000E+00 0.  1.
         24    2    1    2    0    0  0.27816734620E+02  0.42975349907E+02 -0.13360995891E+03  0.15758277720E+03  0.66030743780E+02 0.  0.
         23    2    1    2    0    0  0.67527905982E+02  0.44452591280E+02 -0.24450293807E+03  0.27376112885E+03  0.92883895187E+02 0.  0.
        -13    1    3    3    0    0  0.26189236789E+02  0.60345684205E+02 -0.99680625153E+02  0.11943075298E+03  0.00000000000E+00 0.  1.
         14    1    3    3    0    0  0.16274978312E+01 -0.17370334298E+02 -0.33929333757E+02  0.38152024219E+02  0.00000000000E+00 0. -1.
        -11    1    4    4    0    0 -0.62987134219E+01  0.48050495419E+02 -0.82241822835E+02  0.95458060550E+02  0.00000000000E+00 0. -1.
         11    1    4    4    0    0  0.73826619404E+02 -0.35979041392E+01 -0.16226111523E+03  0.17830306830E+03  0.00000000000E+00 0.  1.
         -2    1    1    2    0  502 -0.95344640603E+02 -0.87427941187E+02  0.71991086197E+02  0.14804378367E+03  0.00000000000E+00 0.  1.
<scales pt_clust_5="13000.00000" pt_clust_6="13000.00000" pt_clust_7="13000.00000" pt_clust_8="13000.00000" pt_clust_9="123.03160"></scales>
<clustering>
<clus scale="   66.031">  5  6 -1 -1</clus>
<clus scale="   83.551">  2  5  1 -1</clus>
<clus scale="   92.884">  7  8 -1 -1</clus>
<clus scale="  123.032">  1  9  2 -1</clus>
<clus scale="  123.032">  1  5  2 -1</clus>
</clustering>
</event>
<event>
 9    2  0.1488992E-004  0.1054011E+03  0.7546771E-02  0.1273765E+00
         -1   -1    0    0    0  501 -0.00000000000E+00  0.00000000000E+00  0.29209593922E+03  0.29209593922E+03  0.00000000000E+00 0.  1.
         21   -1    0    0  501  502  0.00000000000E+00 -0.00000000000E+00 -0.60174497599E+02  0.60174497599E+02  0.00000000000E+00 0.  1.
         24    2    1    2    0    0  0.36200415208E+00 -0.61693336365E+02  0.13807941000E+03  0.17156458702E+03  0.81007933285E+02 0.  0.
         23    2    1    2    0    0  0.20961834420E+02  0.31410478895E+02  0.23833353748E+02  0.10150375055E+03  0.91153529485E+02 0.  0.
        -13    1    3    3    0    0  0.64526784656E+01 -0.74134533570E+02  0.70252269800E+02  0.10233742003E+03  0.00000000000E+00 0.  1.
         14    1    3    3    0    0 -0.60906743135E+01  0.12441197205E+02  0.67827140201E+02  0.69227166989E+02  0.00000000000E+00 0. -1.
        -11    1    4    4    0    0  0.42104981740E+02 -0.11978637183E+02 -0.68523382129E+01  0.44308822768E+02  0.00000000000E+00 0.  1.
         11    1    4    4    0    0 -0.21143147320E+02  0.43389116078E+02  0.30685691960E+02  0.57194927780E+02  0.00000000000E+00 0. -1.
         -2    1    1    2    0  502 -0.21323838572E+02  0.30282857470E+02  0.70008677877E+02  0.79202099253E+02  0.00000000000E+00 0.  1.
<scales pt_clust_5="13000.00000" pt_clust_6="13000.00000" pt_clust_7="13000.00000" pt_clust_8="13000.00000" pt_clust_9="37.03726"></scales>
<clustering>
<clus scale="   37.037">  2  9  1 -1</clus>
<clus scale="   81.008">  5  6 -1 -1</clus>
<clus scale="   91.154">  7  8 -1 -1</clus>
<clus scale="   96.761">  1  5  2 -1</clus>
<clus scale="   37.037">  2  5  1 -1</clus>
</clustering>
</event>
<event>
 9    2  0.1488992E-004  0.9093284E+02  0.7546771E-02  0.1307381E+00
         21   -1    0    0  501  502  0.00000000000E+00  0.00000000000E+00  0.33083376231E+02  0.33083376231E+02  0.00000000000E+00 0. -1.
         -3   -1    0    0    0  501 -0.00000000000E+00 -0.00000000000E+00 -0.61639484185E+03  0.61639484185E+03  0.00000000000E+00 0.  1.
         24    2    1    2    0    0  0.22352904573E+02 -0.42871995011E+02 -0.24744843686E+03  0.26422145061E+03  0.79022691418E+02 0.  0.
         23    2    1    2    0    0  0.56088236451E+01 -0.42008024674E+02 -0.18220330004E+03  0.20749910036E+03  0.89786976029E+02 0.  0.
        -13    1    3    3    0    0  0.29935422526E+01  0.23299066060E+02 -0.70806078915E+02  0.74600995877E+02  0.00000000000E+00 0.  1.
         14    1    3    3    0    0  0.19359362321E+02 -0.66171061072E+02 -0.17664235794E+03  0.18962045473E+03  0.00000000000E+00 0. -1.
        -13    1    4    4    0    0  0.32741231010E+02 -0.55516133597E+02 -0.15008013561E+03  0.16333424749E+03  0.00000000000E+00 0.  1.
         13    1    4    4    0    0 -0.27132407365E+02  0.13508108923E+02 -0.32123164430E+02  0.44164852870E+02  0.00000000000E+00 0. -1.
         -4    1    1    2    0  502 -0.27961728219E+02  0.84880019686E+02 -0.15365972871E+03  0.17775766711E+03  0.00000000000E+00 0.  1.
<scales pt_clust_5="13000.00000" pt_clust_6="13000.00000" pt_clust_7="13000.00000" pt_clust_8="13000.00000" pt_clust_9="89.36709"></scales>
<clustering>
<clus scale="   79.023">  5  6 -1 -1</clus>
<clus scale="   89.367">  1  9  2 -1</clus>
<clus scale="   80.322">  2  5  1 -1</clus>
<clus scale="   89.787">  7  8 -1 -1</clus>
<clus scale="   89.367">  1  5  2 -1</clus>
</clustering>
</event>
<event>
 9    2  0.1488992E-004  0.9484855E+02  0.7546771E-02  0.1297853E+00
         21   -1    0    0  501  502  0.00000000000E+00  0.00000000000E+00  0.12593047353E+03  0.12593047353E+03  0.00000000000E+00 0. -1.
          2   -1    0    0  502    0 -0.00000000000E+00 -0.00000000000E+00 -0.41151155272E+03  0.41151155272E+03  0.00000000000E+00 0. -1.
         24    2    1    2    0    0 -0.16924361823E+02 -0.30966840815E+01 -0.82688518176E+02  0.11620077693E+03  0.79807305709E+02 0.  0.
         23    2    1    2    0    0  0.82381119896E+02  0.38017885726E+02  0.64533702851E+02  0.14371488283E+03  0.90870018112E+02 0.  0.
        -11    1    3    3    0    0  0.18760370215E+02  0.28195996883E+02 -0.29481493147E+02  0.44901271352E+02  0.00000000000E+00 0.  1.
         12    1    3    3    0    0 -0.35684732038E+02 -0.31292680964E+02 -0.53207025030E+02  0.71299505574E+02  0.00000000000E+00 0. -1.
        -13    1    4    4    0    0  0.23276390754E+02 -0.11626552260E+02 -0.17281797947E+02  0.31235038407E+02  0.00000000000E+00 0.  1.
         13    1    4    4    0    0  0.59104729142E+02  0.49644437986E+02  0.81815500798E+02  0.11247984442E+03  0.00000000000E+00 0. -1.
          1    1    1    2  501    0 -0.65456758073E+02 -0.34921201644E+02 -0.26742626386E+03  0.27752636650E+03  0.00000000000E+00 0. -1.
<scales pt_clust_5="13000.00000" pt_clust_6="13000.00000" pt_clust_7="13000.00000" pt_clust_8="13000.00000" pt_clust_9="74.18951"></scales>
<clustering>
<clus scale="   74.190">  1  9  2 -1</clus>
<clus scale="   79.807">  5  6 -1 -1</clus>
<clus scale="   84.310">  2  5  1 -1</clus>
<clus scale="   90.870">  7  8 -1 -1</clus>
<clus scale="   74.190">  1  5  2 -1</clus>
</clustering>
</event>
<event>
 9    2  0.1488992E-004  0.1437546E+03  0.7546771E-02  0.1209262E+00
         21   -1    0    0  501  502  0.00000000000E+00  0.00000000000E+00  0.13123322180E+03  0.13123322180E+03  0.00000000000E+00 0. -1.
          2   -1    0    0  502    0 -0.00000000000E+00 -0.00000000000E+00 -0.49842203898E+03  0.49842203898E+03  0.00000000000E+00 0. -1.
         23    2    1    2    0    0 -0.28657998017E+02  0.12711938399E+03 -0.17945207296E+03  0.24151804479E+03  0.95641522547E+02 0.  0.
         24    2    1    2    0    0 -0.81455449002E+02 -0.55210235012E+02  0.26317122202E+02  0.13691031724E+03  0.91480510628E+02 0.  0.
        -13    1    4    4    0    0 -0.56413655764E+01  0.23595479773E+02 -0.69449127363E+00  0.24270434472E+02  0.00000000000E+00 0.  1.
         14    1    4    4    0    0 -0.75814083426E+02 -0.78805714786E+02  0.27011613475E+02  0.11263988277E+03  0.00000000000E+00 0. -1.
        -11    1    3    3    0    0  0.20659810987E+02  0.15440383531E+02 -0.16594248222E+01  0.25845443010E+02  0.00000000000E+00 0.  1.
         11    1    3    3    0    0 -0.49317809004E+02  0.11167900046E+03 -0.17779264814E+03  0.21567260179E+03  0.00000000000E+00 0. -1.
          1    1    1    2  501    0  0.11011344702E+03 -0.71909148977E+02 -0.21405386642E+03  0.25122689874E+03  0.00000000000E+00 0. -1.
<scales pt_clust_5="13000.00000" pt_clust_6="13000.00000" pt_clust_7="13000.00000" pt_clust_8="13000.00000" pt_clust_9="131.51393"></scales>
<clustering>
<clus scale="   91.481">  5  6 -1 -1</clus>
<clus scale="   95.642">  7  8 -1 -1</clus>
<clus scale="  131.514">  1  9  2 -1</clus>
<clus scale="  141.020">  1  5  2 -1</clus>
<clus scale="  131.514">  1  5  2 -1</clus>
</clustering>
</event>
<event>
 9    2  0.1488992E-004  0.9849786E+02  0.7546771E-02  0.1291116E+00
          2   -1    0    0  502    0 -0.00000000000E+00  0.00000000000E+00  0.23912374554E+03  0.23912374554E+03  0.00000000000E+00 0. -1.
         21   -1    0    0  501  502  0.00000000000E+00 -0.00000000000E+00 -0.97552836827E+02  0.97552836827E+02  0.00000000000E+00 0. -1.
         23    2    1    2    0    0  0.54375892886E+02  0.68696325096E+01  0.16226427825E+03  0.19332143247E+03  0.89663541519E+02 0.  0.
         24    2    1    2    0    0 -0.56564946219E+01  0.27476590872E+02  0.65447107773E+00  0.80038697639E+02  0.74958694025E+02 0.  0.
        -13    1    4    4    0    0 -0.35631978649E+02  0.20219430830E+02 -0.17164854927E+02  0.44419539959E+02  0.00000000000E+00 0.  1.
         14    1    4    4    0    0  0.29975484027E+02  0.72571600421E+01  0.17819326005E+02  0.35619157679E+02  0.00000000000E+00 0. -1.
        -11    1    3    3    0    0  0.58838865137E+01 -0.35162880646E+02  0.89287588682E+02  0.96142195671E+02  0.00000000000E+00 0. -1.
         11    1    3    3    0    0  0.48492006373E+02  0.42032513156E+02  0.72976689566E+02  0.97179236796E+02  0.00000000000E+00 0.  1.
          1    1    1    2  501    0 -0.48719398264E+02 -0.34346223382E+02 -0.21347840614E+02  0.63316452259E+02  0.00000000000E+00 0. -1.
<scales pt_clust_5="13000.00000" pt_clust_6="13000.00000" pt_clust_7="13000.00000" pt_clust_8="13000.00000" pt_clust_9="59.60908"></scales>
<clustering>
<clus scale="   59.609">  2  9  1 -1</clus>
<clus scale="   74.959">  5  6 -1 -1</clus>
<clus scale="   85.329">  2  5  1 -1</clus>
<clus scale="   89.664">  7  8 -1 -1</clus>
<clus scale="   59.609">  2  5  1 -1</clus>
</clustering>
</event>
<event>
 9    2  0.1488992E-004  0.9543625E+02  0.7546771E-02  0.1296707E+00
         -1   -1    0    0    0  501 -0.00000000000E+00  0.00000000000E+00  0.14279507507E+03  0.14279507507E+03  0.00000000000E+00 0.  1.
         21   -1    0    0  501  502  0.00000000000E+00 -0.00000000000E+00 -0.19497508848E+03  0.19497508848E+03  0.00000000000E+00 0.  1.
         23    2    1    2    0    0  0.11664658092E+02  0.36720991632E+02  0.63526656579E+02  0.11723947180E+03  0.90691577207E+02 0.  0.
         24    2    1    2    0    0 -0.13396264593E+02 -0.15247824380E+02  0.19189009652E+02  0.83925641487E+02  0.79141260758E+02 0.  0.
        -11    1    4    4    0    0  0.17149702425E+02  0.22140408008E+02  0.21927012004E+02  0.35568297899E+02  0.00000000000E+00 0.  1.
         12    1    4    4    0    0 -0.30545967017E+02 -0.37388232388E+02 -0.27380023522E+01  0.48357343589E+02  0.00000000000E+00 0. -1.
        -13    1    3    3    0    0  0.41002755164E+02  0.41477403552E+02  0.14813134344E+02  0.60174993855E+02  0.00000000000E+00 0.  1.
         13    1    3    3    0    0 -0.29338097072E+02 -0.47564119201E+01  0.48713522236E+02  0.57064477941E+02  0.00000000000E+00 0. -1.
         -2    1    1    2    0  502  0.17316065006E+01 -0.21473167252E+02 -0.13489567964E+03  0.13660505027E+03  0.00000000000E+00 0.  1.
<scales pt_clust_5="13000.00000" pt_clust_6="13000.00000" pt_clust_7="13000.00000" pt_clust_8="13000.00000" pt_clust_9="21.54287"></scales>
<clustering>
<clus scale="   21.543">  2  9  1 -1</clus>
<clus scale="   79.141">  5  6 -1 -1</clus>
<clus scale="   84.537">  2  5  1 -1</clus>
<clus scale="   90.692">  7  8 -1 -1</clus>
<clus scale="   21.543">  2  5  1 -1</clus>
</clustering>
</event>
<event>
 9    2  0.1488992E-004  0.1054779E+03  0.7546771E-02  0.1274888E+00
          2   -1    0    0  502    0 -0.00000000000E+00  0.00000000000E+00  0.75314605908E+03  0.75314605908E+03  0.00000000000E+00 0. -1.
         21   -1    0    0  501  502  0.00000000000E+00 -0.00000000000E+00 -0.54131510399E+02  0.54131510399E+02  0.00000000000E+00 0.  1.
         24    2    1    2    0    0  0.38310292808E+02 -0.38138233347E+02  0.64770529264E+03  0.65466352944E+03  0.78358070990E+02 0.  0.
         23    2    1    2    0    0 -0.31834317276E+01  0.49415277624E+02  0.23715657288E+02  0.10654371565E+03  0.91307869560E+02 0.  0.
        -11    1    3    3    0    0  0.22788959103E+02 -0.34835150023E+01  0.43196700694E+02  0.48963521979E+02  0.00000000000E+00 0.  1.
         12    1    3    3    0    0  0.15521333706E+02 -0.34654718344E+02  0.60450859194E+03  0.60570000746E+03  0.00000000000E+00 0. -1.
        -13    1    4    4    0    0  0.11537336137E+02 -0.21703285338E+02 -0.99214514246E+01  0.26506186410E+02  0.00000000000E+00 0. -1.
         13    1    4    4    0    0 -0.14720767865E+02  0.71118562962E+02  0.33637108713E+02  0.80037529240E+02  0.00000000000E+00 0.  1.
          1    1    1    2  501    0 -0.35126861081E+02 -0.11277044277E+02  0.27593598755E+02  0.46070324388E+02  0.00000000000E+00 0. -1.
<scales pt_clust_5="13000.00000" pt_clust_6="13000.00000" pt_clust_7="13000.00000" pt_clust_8="13000.00000" pt_clust_9="36.89266"></scales>
<clustering>
<clus scale="   36.893">  2  9  1 -1</clus>
<clus scale="   78.358">  5  6 -1 -1</clus>
<clus scale="   91.308">  7  8 -1 -1</clus>
<clus scale="   94.490">  1  5  2 -1</clus>
<clus scale="   36.893">  2  5  1 -1</clus>
</clustering>
</event>
<event>
 9    2  0.1488992E-004  0.9130827E+02  0.7546771E-02  0.1306094E+00
         21   -1    0    0  501  502  0.00000000000E+00  0.00000000000E+00  0.37636409133E+02  0.37636409133E+02  0.00000000000E+00 0.  1.
          2   -1    0    0  502    0 -0.00000000000E+00 -0.00000000000E+00 -0.39478759743E+03  0.39478759743E+03  0.00000000000E+00 0. -1.
         23    2    1    2    0    0 -0.34158603331E+01  0.71507067673E+01 -0.11324137327E+03  0.14540045188E+03  0.90856381595E+02 0.  0.
         24    2    1    2    0    0 -0.19000715080E+02 -0.56323951485E+01 -0.61888628607E+02  0.10362093631E+03  0.80711492622E+02 0.  0.
        -13    1    4    4    0    0 -0.61662510424E+01 -0.37914014977E+02 -0.75815443118E+01  0.39153224615E+02  0.00000000000E+00 0.  1.
         14    1    4    4    0    0 -0.12834464038E+02  0.32281619829E+02 -0.54307084295E+02  0.64467711690E+02  0.00000000000E+00 0. -1.
        -13    1    3    3    0    0  0.39364132030E+02 -0.15520659738E+02 -0.45482754831E+02  0.62121709218E+02  0.00000000000E+00 0. -1.
         13    1    3    3    0    0 -0.42779992363E+02  0.22671366506E+02 -0.67758618441E+02  0.83278742659E+02  0.00000000000E+00 0.  1.
          1    1    1    2  501    0  0.22416575413E+02 -0.15183116187E+01 -0.18202118642E+03  0.18340261838E+03  0.00000000000E+00 0. -1.
<scales pt_clust_5="13000.00000" pt_clust_6="13000.00000" pt_clust_7="13000.00000" pt_clust_8="13000.00000" pt_clust_9="22.46795"></scales>
<clustering>
<clus scale="   22.468">  1  9  2 -1</clus>
<clus scale="   80.711">  5  6 -1 -1</clus>
<clus scale="   81.220">  1  5  2 -1</clus>
<clus scale="   90.856">  7  8 -1 -1</clus>
<clus scale="   22.468">  1  5  2 -1</clus>
</clustering>
</event>
<event>
 9    2  0.1488992E-004  0.9992482E+02  0.7546771E-02  0.1281176E+00
         -1   -1    0    0    0  501 -0.00000000000E+00  0.00000000000E+00  0.41014188228E+03  0.41014188228E+03  0.00000000000E+00 0.  1.
         21   -1    0    0  501  502  0.00000000000E+00 -0.00000000000E+00 -0.62130469253E+02  0.62130469253E+02  0.00000000000E+00 0.  1.
         24    2    1    2    0    0  0.79982722590E+01 -0.26061839453E+02  0.29181208486E+03  0.30859146386E+03  0.96598172156E+02 0.  0.
         23    2    1    2    0    0  0.17148902108E+02  0.24021075424E+02  0.80908061125E+02  0.12836705779E+03  0.95188708697E+02 0.  0.
        -13    1    3    3    0    0  0.37733166353E+02  0.20549289596E+02  0.97084172083E+02  0.10616685742E+03  0.00000000000E+00 0.  1.
         14    1    3    3    0    0 -0.29734894094E+02 -0.46611129049E+02  0.19472791277E+03  0.20242460644E+03  0.00000000000E+00 0. -1.
        -13    1    4    4    0    0  0.27474594937E+02 -0.31912107531E+02  0.27144805490E+02  0.50100663061E+02  0.00000000000E+00 0.  1.
         13    1    4    4    0    0 -0.10325692829E+02  0.55933182955E+02  0.53763255635E+02  0.78266394732E+02  0.00000000000E+00 0. -1.
         -2    1    1    2    0  502 -0.25147174367E+02  0.20407640295E+01 -0.24708732956E+02  0.35313829880E+02  0.00000000000E+00 0.  1.
<scales pt_clust_5="13000.00000" pt_clust_6="13000.00000" pt_clust_7="13000.00000" pt_clust_8="13000.00000" pt_clust_9="25.22985"></scales>
<clustering>
<clus scale="   25.230">  2  9  1 -1</clus>
<clus scale="   95.189">  7  8 -1 -1</clus>
<clus scale="   96.598">  5  6 -1 -1</clus>
<clus scale="   98.563">  2  7  1 -1</clus>
<clus scale="   25.230">  2  5  1 -1</clus>
</clustering>
</event>
<event>
 9    2  0.1488992E-004  0.1216862E+03  0.7546771E-02  0.1245377E+00
         21   -1    0    0  501  502  0.00000000000E+00  0.00000000000E+00  0.52321939936E+02  0.52321939936E+02  0.00000000000E+00 0.  1.
          2   -1    0    0  502    0 -0.00000000000E+00 -0.00000000000E+00 -0.35998432163E+03  0.35998432163E+03  0.00000000000E+00 0. -1.
         24    2    1    2    0    0 -0.84586277450E+02  0.57700010462E+01 -0.10028190016E+03  0.14223965206E+03  0.54658282750E+02 0.  0.
         23    2    1    2    0    0  0.10568363416E+03 -0.32841447677E+02 -0.13641731377E+03  0.19123937524E+03  0.75599100070E+02 0.  0.
        -13    1    3    3    0    0 -0.81031312514E+02  0.76632657830E+00 -0.58339920358E+02  0.99850924740E+02  0.00000000000E+00 0.  1.
         14    1    3    3    0    0 -0.35549649363E+01  0.50036744679E+01 -0.41941979805E+02  0.42388727321E+02  0.00000000000E+00 0. -1.
        -11    1    4    4    0    0  0.62820527683E+02 -0.48902139175E-01 -0.25327358357E+02  0.67734010446E+02  0.00000000000E+00 0.  1.
         11    1    4    4    0    0  0.42863106479E+02 -0.32792545538E+02 -0.11108995541E+03  0.12350536479E+03  0.00000000000E+00 0. -1.
          1    1    1    2  501    0 -0.21097356712E+02  0.27071446630E+02 -0.70963167765E+02  0.78827234266E+02  0.00000000000E+00 0. -1.
<scales pt_clust_5="13000.00000" pt_clust_6="13000.00000" pt_clust_7="13000.00000" pt_clust_8="13000.00000" pt_clust_9="34.32146"></scales>
<clustering>
<clus scale="   34.321">  1  9  2 -1</clus>
<clus scale="   54.658">  5  6 -1 -1</clus>
<clus scale="   75.599">  7  8 -1 -1</clus>
<clus scale="  109.908">  2  5  1 -1</clus>
<clus scale="   34.321">  1  5  2 -1</clus>
</clustering>
</event>
<event>
 9    2  0.1488992E-004  0.1464062E+03  0.7546771E-02  0.1227297E+00
          2   -1    0    0  502    0 -0.00000000000E+00  0.00000000000E+00  0.20245051042E+03  0.20245051042E+03  0.00000000000E+00 0. -1.
         21   -1    0    0  501  502  0.00000000000E+00 -0.00000000000E+00 -0.23737070925E+03  0.23737070925E+03  0.00000000000E+00 0.  1.
         24    2    1    2    0    0  0.21123368126E+02 -0.37450788583E+02  0.75774990440E+02  0.11865695488E+03  0.80553494762E+02 0.  0.
         23    2    1    2    0    0  0.54447872130E+02 -0.81501317764E+02 -0.11698803625E+03  0.18009613982E+03  0.95610581925E+02 0.  0.
        -13    1    3    3    0    0 -0.53093459998E+00 -0.53679640509E+02  0.74156756813E+02  0.91547857854E+02  0.00000000000E+00 0.  1.
         14    1    3    3    0    0  0.21654302726E+02  0.16228851926E+02  0.16182336275E+01  0.27109097024E+02  0.00000000000E+00 0. -1.
        -11    1    4    4    0    0  0.77470107015E+02 -0.53141854914E+02 -0.10666509558E+03  0.14213766862E+03  0.00000000000E+00 0.  1.
         11    1    4    4    0    0 -0.23022234884E+02 -0.28359462850E+02 -0.10322940673E+02  0.37958471206E+02  0.00000000000E+00 0. -1.
          1    1    1    2  501    0 -0.75571240257E+02  0.11895210635E+03  0.62928469846E+01  0.14106812497E+03  0.00000000000E+00 0. -1.
<scales pt_clust_5="13000.00000" pt_clust_6="13000.00000" pt_clust_7="13000.00000" pt_clust_8="13000.00000" pt_clust_9="110.87564"></scales>
<clustering>
<clus scale="   80.553">  5  6 -1 -1</clus>
<clus scale="   91.311">  1  5  2 -1</clus>
<clus scale="   95.611">  7  8 -1 -1</clus>
<clus scale="  110.876">  2  9  1 -1</clus>
<clus scale="  110.876">  2  5  1 -1</clus>
</clustering>
</event>
<event>
 9    2  0.1488992E-004  0.9426353E+02  0.7546771E-02  0.1308207E+00
         21   -1    0    0  501  502  0.00000000000E+00  0.00000000000E+00  0.27518056651E+03  0.27518056651E+03  0.00000000000E+00 0.  1.
          2   -1    0    0  502    0 -0.00000000000E+00 -0.00000000000E+00 -0.39000362408E+03  0.39000362408E+03  0.00000000000E+00 0. -1.
         24    2    1    2    0    0 -0.23739730841E+02  0.10382987995E+02 -0.36330395215E+03  0.37015258037E+03  0.65968097183E+02 0.  0.
         23    2    1    2    0    0  0.50985331664E+02  0.12354584512E+02  0.10889411438E+03  0.15100456701E+03  0.90511387729E+02 0.  0.
        -13    1    3    3    0    0 -0.12338135207E+02  0.25257272056E+02 -0.59871901781E+02  0.66142301101E+02  0.00000000000E+00 0.  1.
         14    1    3    3    0    0 -0.11401595634E+02 -0.14874284061E+02 -0.30343205037E+03  0.30401027927E+03  0.00000000000E+00 0. -1.
        -11    1    4    4    0    0  0.76546811721E+02  0.14079364702E+02  0.71579543352E+02  0.10574154303E+03  0.00000000000E+00 0.  1.
         11    1    4    4    0    0 -0.25561480057E+02 -0.17247801899E+01  0.37314571029E+02  0.45263023987E+02  0.00000000000E+00 0. -1.
          1    1    1    2  501    0 -0.27245600823E+02 -0.22737572507E+02  0.13958678020E+03  0.14402704320E+03  0.00000000000E+00 0. -1.
<scales pt_clust_5="13000.00000" pt_clust_6="13000.00000" pt_clust_7="13000.00000" pt_clust_8="13000.00000" pt_clust_9="35.48690"></scales>
<clustering>
<clus scale="   35.487">  1  9  2 -1</clus>
<clus scale="   65.968">  5  6 -1 -1</clus>
<clus scale="   71.029">  2  5  1 -1</clus>
<clus scale="   90.511">  7  8 -1 -1</clus>
<clus scale="   35.487">  1  5  2 -1</clus>
</clustering>
</event>
<event>
 9    2  0.1488992E-004  0.1424571E+03  0.7546771E-02  0.1225475E+00
         21   -1    0    0  501  502  0.00000000000E+00  0.00000000000E+00  0.71932189212E+03  0.71932189212E+03  0.00000000000E+00 0.  1.
         -3   -1    0    0    0  501 -0.00000000000E+00 -0.00000000000E+00 -0.46423895599E+02  0.46423895599E+02  0.00000000000E+00 0.  1.
         24    2    1    2    0    0 -0.59204278038E+02 -0.24235219980E+02  0.21129784170E+03  0.23503954441E+03  0.80649346599E+02 0.  0.
         23    2    1    2    0    0  0.53697026816E+02 -0.91976118726E+02  0.20222723580E+03  0.24643574504E+03  0.92150661584E+02 0.  0.
        -13    1    3    3    0    0 -0.53245641306E+02 -0.48966805404E+02  0.18408328942E+03  0.19778651064E+03  0.00000000000E+00 0.  1.
         14    1    3    3    0    0 -0.59586367326E+01  0.24731585425E+02  0.27214552277E+02  0.37253033769E+02  0.00000000000E+00 0. -1.
        -13    1    4    4    0    0  0.51407430614E+02 -0.39943809893E+02  0.40837142896E+02  0.76849880358E+02  0.00000000000E+00 0.  1.
         13    1    4    4    0    0  0.22895962018E+01 -0.52032308832E+02  0.16139009290E+03  0.16958586468E+03  0.00000000000E+00 0. -1.
         -4    1    1    2    0  502  0.55072512227E+01  0.11621133871E+03  0.25937291903E+03  0.28427049827E+03  0.00000000000E+00 0.  1.
<scales pt_clust_5="13000.00000" pt_clust_6="13000.00000" pt_clust_7="13000.00000" pt_clust_8="13000.00000" pt_clust_9="108.63832"></scales>
<clustering>
<clus scale="   80.649">  5  6 -1 -1</clus>
<clus scale="   92.151">  7  8 -1 -1</clus>
<clus scale="  102.941">  2  5  1 -1</clus>
<clus scale="  108.638">  1  9  2 -1</clus>
<clus scale="  108.638">  1  5  2 -1</clus>
</clustering>
</event>
<event>
 9    2  0.1488992E-004  0.1424597E+03  0.7546771E-02  0.1229216E+00
          2   -1    0    0  502    0 -0.00000000000E+00  0.00000000000E+00  0.75014448613E+03  0.75014448613E+03  0.00000000000E+00 0. -1.
         21   -1    0    0  501  502  0.00000000000E+00 -0.00000000000E+00 -0.13885631558E+03  0.13885631558E+03  0.00000000000E+00 0. -1.
         23    2    1    2    0    0  0.17027075614E+02  0.22622504494E+02  0.16688186684E+01  0.95264361994E+02  0.90944019577E+02 0.  0.
         24    2    1    2    0    0 -0.12316931930E+03 -0.69568504230E+02  0.65059916668E+03  0.67065334580E+03  0.80536802482E+02 0.  0.
        -11    1    4    4    0    0 -0.75771549759E+02 -0.69884328196E+02  0.30800087036E+03  0.32479175362E+03  0.00000000000E+00 0.  1.
         12    1    4    4    0    0 -0.47397769542E+02  0.31582396637E+00  0.34259829632E+03  0.34586159218E+03  0.00000000000E+00 0. -1.
        -11    1    3    3    0    0  0.54634827617E+02  0.11569474704E+02 -0.20953768614E+01  0.55885666659E+02  0.00000000000E+00 0.  1.
         11    1    3    3    0    0 -0.37607752004E+02  0.11053029790E+02  0.37641955298E+01  0.39378695335E+02  0.00000000000E+00 0. -1.
          1    1    1    2  501    0  0.10614224369E+03  0.46945999736E+02 -0.40979814796E+02  0.12308309391E+03  0.00000000000E+00 0. -1.
<scales pt_clust_5="13000.00000" pt_clust_6="13000.00000" pt_clust_7="13000.00000" pt_clust_8="13000.00000" pt_clust_9="117.50994"></scales>
<clustering>
<clus scale="   80.537">  5  6 -1 -1</clus>
<clus scale="   90.944">  7  8 -1 -1</clus>
<clus scale="   95.250">  1  7  2 -1</clus>
<clus scale="  117.510">  2  9  1 -1</clus>
<clus scale="  117.510">  2  5  1 -1</clus>
</clustering>
</event>
<event>
 9    2  0.1488992E-004  0.2908933E+03  0.7546771E-02  0.1090414E+00
         21   -1    0    0  501  502  0.00000000000E+00  0.00000000000E+00  0.22870959803E+03  0.22870959803E+03  0.00000000000E+00 0.  1.
         -1   -1    0    0    0  501 -0.00000000000E+00 -0.00000000000E+00 -0.73887137994E+03  0.73887137994E+03  0.00000000000E+00 0.  1.
         23    2    1    2    0    0 -0.17178709722E+03  0.20811476759E+03 -0.34507606122E+03  0.44795225030E+03  0.93601107158E+02 0.  0.
         24    2    1    2    0    0  0.67193725327E+02 -0.30879638028E+03 -0.40891556171E+02  0.32857703027E+03  0.80128298727E+02 0.  0.
        -11    1    4    4    0    0  0.52041641637E+02 -0.30268681353E+03 -0.47824787970E+02  0.31082929382E+03  0.00000000000E+00 0.  1.
         12    1    4    4    0    0  0.15152083690E+02 -0.61095667477E+01  0.69332317984E+01  0.17747736452E+02  0.00000000000E+00 0. -1.
        -11    1    3    3    0    0  0.11499596411E+02  0.19400914333E+02 -0.27856807083E+02  0.35841845592E+02  0.00000000000E+00 0. -1.
         11    1    3    3    0    0 -0.18328669363E+03  0.18871385325E+03 -0.31721925414E+03  0.41211040471E+03  0.00000000000E+00 0.  1.
         -2    1    1    2    0  502  0.10459337190E+03  0.10068161269E+03 -0.12419416451E+03  0.19105169740E+03  0.00000000000E+00 0.  1.
<scales pt_clust_5="13000.00000" pt_clust_6="13000.00000" pt_clust_7="13000.00000" pt_clust_8="13000.00000" pt_clust_9="145.17776"></scales>
<clustering>
<clus scale="   80.128">  5  6 -1 -1</clus>
<clus scale="   93.601">  7  8 -1 -1</clus>
<clus scale="  145.178">  1  9  2 -1</clus>
<clus scale="  286.842">  1  5  2 -1</clus>
<clus scale="  145.178">  1  5  2 -1</clus>
</clustering>
</event>
<event>
 9    2  0.1488992E-004  0.1639861E+03  0.7546771E-02  0.1212225E+00
         21   -1    0    0  501  502  0.00000000000E+00  0.00000000000E+00  0.22140915802E+03  0.22140915802E+03  0.00000000000E+00 0. -1.
          2   -1    0    0  502    0 -0.00000000000E+00 -0.00000000000E+00 -0.17434359241E+03  0.17434359241E+03  0.00000000000E+00 0. -1.
         24    2    1    2    0    0 -0.15620699912E+02  0.38826101298E+02  0.15260843291E+02  0.90479511412E+02  0.78753896664E+02 0.  0.
         23    2    1    2    0    0 -0.89536297946E+02 -0.11646973579E+03  0.25145664200E+02  0.17438828484E+03  0.90537403639E+02 0.  0.
        -11    1    3    3    0    0 -0.38438020822E+02  0.28652515377E+01 -0.11447622084E+02  0.40208695110E+02  0.00000000000E+00 0.  1.
         12    1    3    3    0    0  0.22817320910E+02  0.35960849760E+02  0.26708465375E+02  0.50270816302E+02  0.00000000000E+00 0. -1.
        -11    1    4    4    0    0  0.31300844759E+01 -0.30560054983E+02  0.36276506810E+02  0.47536294931E+02  0.00000000000E+00 0.  1.
         11    1    4    4    0    0 -0.92666382422E+02 -0.85909680809E+02 -0.11130842611E+02  0.12685198991E+03  0.00000000000E+00 0. -1.
          1    1    1    2  501    0  0.10515699786E+03  0.77643634494E+02  0.66590581215E+01  0.13088495418E+03  0.00000000000E+00 0. -1.
<scales pt_clust_5="13000.00000" pt_clust_6="13000.00000" pt_clust_7="13000.00000" pt_clust_8="13000.00000" pt_clust_9="136.72752"></scales>
<clustering>
<clus scale="   78.754">  5  6 -1 -1</clus>
<clus scale="   89.183">  2  5  1 -1</clus>
<clus scale="   90.537">  7  8 -1 -1</clus>
<clus scale="  136.728">  1  9  2 -1</clus>
<clus scale="  136.728">  1  5  2 -1</clus>
</clustering>
</event>
<event>
 9    2  0.1488992E-004  0.1128354E+03  0.7546771E-02  0.1261451E+00
         21   -1    0    0  501  502  0.00000000000E+00  0.00000000000E+00  0.63385331637E+03  0.63385331637E+03  0.00000000000E+00 0. -1.
          4   -1    0    0  502    0 -0.00000000000E+00 -0.00000000000E+00 -0.59255874624E+02  0.59255874624E+02  0.00000000000E+00 0. -1.
         23    2    1    2    0    0  0.21739311820E+02  0.63705946521E+02  0.77502779678E+01  0.11436055957E+03  0.92126138946E+02 0.  0.
         24    2    1    2    0    0 -0.23958018814E+02 -0.41497654967E+02  0.50622179553E+03  0.51414548792E+03  0.76085704629E+02 0.  0.
        -11    1    4    4    0    0  0.30829070324E+00 -0.43535954443E+02  0.12920322518E+03  0.13634129151E+03  0.00000000000E+00 0.  1.
         12    1    4    4    0    0 -0.24266309518E+02  0.20382994758E+01  0.37701857034E+03  0.37780419641E+03  0.00000000000E+00 0. -1.
        -13    1    3    3    0    0  0.19457535229E+01  0.59526860864E+02 -0.33559859419E+02  0.68362981835E+02  0.00000000000E+00 0. -1.
         13    1    3    3    0    0  0.19793558297E+02  0.41790856568E+01  0.41310137387E+02  0.45997577740E+02  0.00000000000E+00 0.  1.
          3    1    1    2  501    0  0.22187069942E+01 -0.22208291553E+02  0.60625368248E+02  0.64603143496E+02  0.00000000000E+00 0. -1.
<scales pt_clust_5="13000.00000" pt_clust_6="13000.00000" pt_clust_7="13000.00000" pt_clust_8="13000.00000" pt_clust_9="22.31885"></scales>
<clustering>
<clus scale="   22.319">  1  9  2 -1</clus>
<clus scale="   76.086">  5  6 -1 -1</clus>
<clus scale="   92.126">  7  8 -1 -1</clus>
<clus scale="  100.168">  1  5  2 -1</clus>
<clus scale="   22.319">  1  5  2 -1</clus>
</clustering>
</event>
<event>
 9    2  0.1488992E-004  0.1783391E+03  0.7546771E-02  0.1170997E+00
         21   -1    0    0  501  502  0.00000000000E+00  0.00000000000E+00  0.20119406401E+03  0.20119406401E+03  0.00000000000E+00 0. -1.
          2   -1    0    0  502    0 -0.00000000000E+00 -0.00000000000E+00 -0.22637036310E+03  0.22637036310E+03  0.00000000000E+00 0. -1.
         23    2    1    2    0    0 -0.16035286950E+02  0.14592874159E+03 -0.56701220480E+02  0.18207762633E+03  0.91569129919E+02 0.  0.
         24    2    1    2    0    0  0.21404973246E+01 -0.16693443532E+03  0.71799185520E+02  0.19798605659E+03  0.78559965238E+02 0.  0.
        -13    1    4    4    0    0 -0.11100123912E+02 -0.13635245475E+03  0.22743045371E+02  0.13868111183E+03  0.00000000000E+00 0.  1.
         14    1    4    4    0    0  0.13240621236E+02 -0.30581980576E+02  0.49056140149E+02  0.59304944760E+02  0.00000000000E+00 0. -1.
        -11    1    3    3    0    0 -0.53895077841E+02  0.96114173752E+02 -0.31332560066E+02  0.11456152553E+03  0.00000000000E+00 0.  1.
         11    1    3    3    0    0  0.37859790891E+02  0.49814567840E+02 -0.25368660414E+02  0.67516100795E+02  0.00000000000E+00 0. -1.
          1    1    1    2  501    0  0.13894789625E+02  0.21005693730E+02 -0.40274264126E+02  0.47500744191E+02  0.00000000000E+00 0. -1.
<scales pt_clust_5="13000.00000" pt_clust_6="13000.00000" pt_clust_7="13000.00000" pt_clust_8="13000.00000" pt_clust_9="25.18541"></scales>
<clustering>
<clus scale="   25.185">  1  9  2 -1</clus>
<clus scale="   78.560">  5  6 -1 -1</clus>
<clus scale="   91.569">  7  8 -1 -1</clus>
<clus scale="  172.022">  1  5  2 -1</clus>
<clus scale="   25.185">  1  5  2 -1</clus>
</clustering>
</event>
<event>
 9    2  0.1488992E-004  0.1750812E+03  0.7546771E-02  0.1173886E+00
          2   -1    0    0  502    0 -0.00000000000E+00  0.00000000000E+00  0.38752309160E+03  0.38752309160E+03  0.00000000000E+00 0. -1.
         21   -1    0    0  501  502  0.00000000000E+00 -0.00000000000E+00 -0.14953436694E+03  0.14953436694E+03  0.00000000000E+00 0.  1.
         24    2    1    2    0    0 -0.42833931916E+02 -0.13755750269E+03  0.14599617900E+03  0.22057543735E+03  0.81128459929E+02 0.  0.
         23    2    1    2    0    0  0.41506285305E+01  0.17021475871E+03 -0.19555131488E+02  0.19398394524E+03  0.90868454611E+02 0.  0.
        -13    1    3    3    0    0 -0.60107439566E+02 -0.86492749355E+02  0.12309061992E+03  0.16200370580E+03  0.00000000000E+00 0.  1.
         14    1    3    3    0    0  0.17273507650E+02 -0.51064753331E+02  0.22905559079E+02  0.58571731544E+02  0.00000000000E+00 0. -1.
        -11    1    4    4    0    0  0.40632507231E+02  0.13456645078E+03 -0.24689770405E+02  0.14271900743E+03  0.00000000000E+00 0.  1.
         11    1    4    4    0    0 -0.36481878700E+02  0.35648307933E+02  0.51346389176E+01  0.51264937811E+02  0.00000000000E+00 0. -1.
          1    1    1    2  501    0  0.38683303385E+02 -0.32657256027E+02  0.11154767715E+03  0.12249807595E+03  0.00000000000E+00 0. -1.
<scales pt_clust_5="13000.00000" pt_clust_6="13000.00000" pt_clust_7="13000.00000" pt_clust_8="13000.00000" pt_clust_9="50.62506"></scales>
<clustering>
<clus scale="   50.625">  2  9  1 -1</clus>
<clus scale="   81.128">  5  6 -1 -1</clus>
<clus scale="   90.868">  7  8 -1 -1</clus>
<clus scale="  170.230">  1  5  2 -1</clus>
<clus scale="   50.625">  2  5  1 -1</clus>
</clustering>
</event>
<event>
 9    2  0.1488992E-004  0.1061643E+03  0.7546771E-02  0.1268814E+00
          2   -1    0    0  502    0 -0.00000000000E+00  0.00000000000E+00  0.86872628173E+03  0.86872628173E+03  0.00000000000E+00 0. -1.
         21   -1    0    0  501  502  0.00000000000E+00 -0.00000000000E+00 -0.24728787223E+02  0.24728787223E+02  0.00000000000E+00 0. -1.
         24    2    1    2    0    0 -0.34385848806E+02 -0.25705522446E+02  0.35840454028E+03  0.37148258089E+03  0.87762935968E+02 0.  0.
         23    2    1    2    0    0  0.74315446874E+02  0.10039825570E+02  0.45348857821E+03  0.46839564773E+03  0.90105540929E+02 0.  0.
        -11    1    3    3    0    0  0.25545899124E+02 -0.18211892472E+01  0.47597822024E+02  0.54050553686E+02  0.00000000000E+00 0.  1.
         12    1    3    3    0    0 -0.59931747930E+02 -0.23884333199E+02  0.31080671826E+03  0.31743202720E+03  0.00000000000E+00 0. -1.
        -11    1    4    4    0    0  0.94258449003E+02  0.46261640946E-01  0.34548148965E+03  0.35810908539E+03  0.00000000000E+00 0. -1.
         11    1    4    4    0    0 -0.19943002129E+02  0.99935639290E+01  0.10800708855E+03  0.11028656233E+03  0.00000000000E+00 0.  1.
          1    1    1    2  501    0 -0.39929598068E+02  0.15665696876E+02  0.32104376020E+02  0.53576840334E+02  0.00000000000E+00 0. -1.
<scales pt_clust_5="13000.00000" pt_clust_6="13000.00000" pt_clust_7="13000.00000" pt_clust_8="13000.00000" pt_clust_9="42.89274"></scales>
<clustering>
<clus scale="   42.893">  2  9  1 -1</clus>
<clus scale="   87.763">  5  6 -1 -1</clus>
<clus scale="   90.106">  7  8 -1 -1</clus>
<clus scale="  104.183">  1  5  2 -1</clus>
<clus scale="   42.893">  2  5  1 -1</clus>
</clustering>
</event>
<event>
 9    2  0.1488992E-004  0.1378916E+03  0.7546771E-02  0.1218131E+00
         21   -1    0    0  501  502  0.00000000000E+00  0.00000000000E+00  0.36485301271E+02  0.36485301271E+02  0.00000000000E+00 0. -1.
          2   -1    0    0  502    0 -0.00000000000E+00 -0.00000000000E+00 -0.13414318124E+04  0.13414318124E+04  0.00000000000E+00 0. -1.
         24    2    1    2    0    0 -0.10288555915E+03  0.25466257018E+02 -0.10360136788E+04  0.10445644780E+04  0.80973066938E+02 0.  0.
         23    2    1    2    0    0  0.80993958383E+02 -0.68505646657E+02 -0.14727950412E+03  0.20246656492E+03  0.89712945878E+02 0.  0.
        -11    1    3    3    0    0 -0.70011513713E+02  0.11156754178E+02 -0.32477773133E+03  0.33242542019E+03  0.00000000000E+00 0.  1.
         12    1    3    3    0    0 -0.32874045440E+02  0.14309502840E+02 -0.71123594746E+03  0.71213905784E+03  0.00000000000E+00 0. -1.
        -13    1    4    4    0    0 -0.17184510517E+02 -0.27723312988E+02 -0.34811060342E+02  0.47704291284E+02  0.00000000000E+00 0.  1.
         13    1    4    4    0    0  0.98178468901E+02 -0.40782333669E+02 -0.11246844378E+03  0.15476227364E+03  0.00000000000E+00 0. -1.
          1    1    1    2  501    0  0.21891600770E+02  0.43039389639E+02 -0.12165332819E+03  0.13088607071E+03  0.00000000000E+00 0. -1.
<scales pt_clust_5="13000.00000" pt_clust_6="13000.00000" pt_clust_7="13000.00000" pt_clust_8="13000.00000" pt_clust_9="48.28697"></scales>
<clustering>
<clus scale="   48.287">  1  9  2 -1</clus>
<clus scale="   80.973">  5  6 -1 -1</clus>
<clus scale="   89.713">  7  8 -1 -1</clus>
<clus scale="  132.372">  2  5  1 -1</clus>
<clus scale="   48.287">  1  5  2 -1</clus>
</clustering>
</event>
<event>
 9    2  0.1488992E-004  0.1001860E+03  0.7546771E-02  0.1288679E+00
          2   -1    0    0  502    0 -0.00000000000E+00  0.00000000000E+00  0.73787784034E+03  0.73787784034E+03  0.00000000000E+00 0. -1.
         21   -1    0    0  501  502  0.00000000000E+00 -0.00000000000E+00 -0.39482430134E+02  0.39482430134E+02  0.00000000000E+00 0. -1.
         24    2    1    2    0    0 -0.12521864475E+02 -0.11760704699E+02  0.32988265671E+03  0.33999023632E+03  0.80471624349E+02 0.  0.
         23    2    1    2    0    0  0.42227909845E+02  0.75788795511E+02  0.11226685570E+03  0.17158063317E+03  0.96482790662E+02 0.  0.
        -11    1    3    3    0    0 -0.32387544815E+01 -0.45094873743E+02  0.14456427364E+03  0.15146902779E+03  0.00000000000E+00 0.  1.
         12    1    3    3    0    0 -0.92831099938E+01  0.33334169044E+02  0.18531838308E+03  0.18852120852E+03  0.00000000000E+00 0. -1.
        -11    1    4    4    0    0  0.12112528697E+02  0.46973594518E+02 -0.34040215597E+01  0.48629407730E+02  0.00000000000E+00 0. -1.
         11    1    4    4    0    0  0.30115381149E+02  0.28815200993E+02  0.11567087726E+03  0.12295122544E+03  0.00000000000E+00 0.  1.
          1    1    1    2  501    0 -0.29706045370E+02 -0.64028090812E+02  0.25624589779E+03  0.26578940099E+03  0.00000000000E+00 0. -1.
<scales pt_clust_5="13000.00000" pt_clust_6="13000.00000" pt_clust_7="13000.00000" pt_clust_8="13000.00000" pt_clust_9="70.58364"></scales>
<clustering>
<clus scale="   70.584">  2  9  1 -1</clus>
<clus scale="   80.472">  5  6 -1 -1</clus>
<clus scale="   84.876">  1  5  2 -1</clus>
<clus scale="   96.483">  7  8 -1 -1</clus>
<clus scale="   70.584">  2  5  1 -1</clus>
</clustering>
</event>
<event>
 9    2  0.1488992E-004  0.8244733E+02  0.7546771E-02  0.1323891E+00
         -1   -1    0    0    0  501 -0.00000000000E+00  0.00000000000E+00  0.12086207126E+03  0.12086207126E+03  0.00000000000E+00 0.  1.
         21   -1    0    0  501  502  0.00000000000E+00 -0.00000000000E+00 -0.14410619585E+03  0.14410619585E+03  0.00000000000E+00 0. -1.
         24    2    1    2    0    0 -0.11389525863E+02  0.94476101469E+01  0.77883630284E+02  0.11188214511E+03  0.78947931521E+02 0.  0.
         23    2    1    2    0    0  0.16700041503E+02  0.14649492269E+02 -0.54738634236E+02  0.10054259306E+03  0.81357211914E+02 0.  0.
        -11    1    3    3    0    0  0.13978047993E+02 -0.28329559099E+02  0.47930172726E+02  0.57404278603E+02  0.00000000000E+00 0.  1.
         12    1    3    3    0    0 -0.25367573855E+02  0.37777169245E+02  0.29953457558E+02  0.54477866507E+02  0.00000000000E+00 0. -1.
        -11    1    4    4    0    0 -0.25456996453E+02  0.12932824393E+02  0.33483641279E+01  0.28749402733E+02  0.00000000000E+00 0. -1.
         11    1    4    4    0    0  0.42157037955E+02  0.17166678757E+01 -0.58086998364E+02  0.71793190323E+02  0.00000000000E+00 0.  1.
         -2    1    1    2    0  502 -0.53105156401E+01 -0.24097102416E+02 -0.46389120630E+02  0.52543528946E+02  0.00000000000E+00 0.  1.
<scales pt_clust_5="13000.00000" pt_clust_6="13000.00000" pt_clust_7="13000.00000" pt_clust_8="13000.00000" pt_clust_9="24.67533"></scales>
<clustering>
<clus scale="   24.675">  2  9  1 -1</clus>
<clus scale="   78.948">  5  6 -1 -1</clus>
<clus scale="   80.071">  1  5  2 -1</clus>
<clus scale="   81.357">  7  8 -1 -1</clus>
<clus scale="   24.675">  2  5  1 -1</clus>
</clustering>
</event>
<event>
 9    2  0.1488992E-004  0.2910417E+03  0.7546771E-02  0.1090369E+00
         21   -1    0    0  501  502  0.00000000000E+00  0.00000000000E+00  0.86963869682E+02  0.86963869682E+02  0.00000000000E+00 0. -1.
          2   -1    0    0  502    0 -0.00000000000E+00 -0.00000000000E+00 -0.17216686027E+04  0.17216686027E+04  0.00000000000E+00 0. -1.
         23    2    1    2    0    0  0.21531649726E+03 -0.19014559862E+03 -0.75556693052E+03  0.81307805614E+03  0.87738225538E+02 0.  0.
         24    2    1    2    0    0 -0.74267289923E+02  0.26997722721E+03 -0.48024202310E+03  0.56498989072E+03  0.10088529277E+03 0.  0.
        -11    1    4    4    0    0 -0.91905231233E+01  0.17930707927E+03 -0.35080341443E+03  0.39407934477E+03  0.00000000000E+00 0.  1.
         12    1    4    4    0    0 -0.65076766799E+02  0.90670147939E+02 -0.12943860867E+03  0.17091054595E+03  0.00000000000E+00 0. -1.
        -11    1    3    3    0    0  0.16970335924E+03 -0.10984750114E+03 -0.58755409889E+03  0.62135780575E+03  0.00000000000E+00 0. -1.
         11    1    3    3    0    0  0.45613138017E+02 -0.80298097477E+02 -0.16801283163E+03  0.19172025039E+03  0.00000000000E+00 0.  1.
          1    1    1    2  501    0 -0.14104920733E+03 -0.79831628593E+02 -0.39889577936E+03  0.43056452549E+03  0.00000000000E+00 0. -1.
<scales pt_clust_5="13000.00000" pt_clust_6="13000.00000" pt_clust_7="13000.00000" pt_clust_8="13000.00000" pt_clust_9="162.07404"></scales>
<clustering>
<clus scale="   87.738">  7  8 -1 -1</clus>
<clus scale="  100.885">  5  6 -1 -1</clus>
<clus scale="  162.074">  1  9  2 -1</clus>
<clus scale="  286.750">  2  7  1 -1</clus>
<clus scale="  162.074">  1  5  2 -1</clus>
</clustering>
</event>
<event>
 9    2  0.1488992E-004  0.1449525E+03  0.7546771E-02  0.1210191E+00
         21   -1    0    0  501  502  0.00000000000E+00  0.00000000000E+00  0.14839716493E+03  0.14839716493E+03  0.00000000000E+00 0. -1.
          2   -1    0    0  502    0 -0.00000000000E+00 -0.00000000000E+00 -0.16966205703E+03  0.16966205703E+03  0.00000000000E+00 0. -1.
         24    2    1    2    0    0  0.11032818441E+03 -0.45197003111E+02 -0.35350134621E+02  0.14826469500E+03  0.80732338014E+02 0.  0.
         23    2    1    2    0    0 -0.91949132680E+02  0.17709872244E+02  0.20428646185E+02  0.13612598562E+03  0.96667842636E+02 0.  0.
        -13    1    3    3    0    0  0.79816793239E+02 -0.68701971021E+02 -0.22758351798E+02  0.10774332407E+03  0.00000000000E+00 0.  1.
         14    1    3    3    0    0  0.30511391173E+02  0.23504967910E+02 -0.12591782823E+02  0.40521370935E+02  0.00000000000E+00 0. -1.
        -13    1    4    4    0    0 -0.74307633062E+02  0.48278540499E+02 -0.10453572682E+02  0.89228465109E+02  0.00000000000E+00 0.  1.
         13    1    4    4    0    0 -0.17641499618E+02 -0.30568668255E+02  0.30882218867E+02  0.46897520508E+02  0.00000000000E+00 0. -1.
          1    1    1    2  501    0 -0.18379051732E+02  0.27487130867E+02 -0.63434036646E+01  0.33668541339E+02  0.00000000000E+00 0. -1.
<scales pt_clust_5="13000.00000" pt_clust_6="13000.00000" pt_clust_7="13000.00000" pt_clust_8="13000.00000" pt_clust_9="33.06559"></scales>
<clustering>
<clus scale="   33.066">  1  9  2 -1</clus>
<clus scale="   80.732">  5  6 -1 -1</clus>
<clus scale="   96.668">  7  8 -1 -1</clus>
<clus scale="  134.849">  2  5  1 -1</clus>
<clus scale="   33.066">  1  5  2 -1</clus>
</clustering>
</event>
<event>
 9    2  0.1488992E-004  0.9751510E+02  0.7546771E-02  0.1292111E+00
         21   -1    0    0  501  502  0.00000000000E+00  0.00000000000E+00  0.51591827610E+02  0.51591827610E+02  0.00000000000E+00 0.  1.
          2   -1    0    0  502    0 -0.00000000000E+00 -0.00000000000E+00 -0.53969051829E+03  0.53969051829E+03  0.00000000000E+00 0. -1.
         24    2    1    2    0    0 -0.16205107969E+02  0.35851351876E+02 -0.43222803722E+03  0.44108819523E+03  0.78675249324E+02 0.  0.
         23    2    1    2    0    0  0.17581876221E+02 -0.92093130384E+01 -0.73249988589E+02  0.11835494507E+03  0.90820693544E+02 0.  0.
        -13    1    3    3    0    0 -0.30420075786E+02  0.39774216728E+02 -0.14353225754E+03  0.15201604613E+03  0.00000000000E+00 0.  1.
         14    1    3    3    0    0  0.14214967817E+02 -0.39228648524E+01 -0.28869577968E+03  0.28907214909E+03  0.00000000000E+00 0. -1.
        -11    1    4    4    0    0 -0.16423708627E+02  0.33610264056E+02 -0.37847432174E+02  0.53214811633E+02  0.00000000000E+00 0. -1.
         11    1    4    4    0    0  0.34005584847E+02 -0.42819577094E+02 -0.35402556415E+02  0.65140133436E+02  0.00000000000E+00 0.  1.
          1    1    1    2  501    0 -0.13767682516E+01 -0.26642038837E+02  0.17379335126E+02  0.31839205606E+02  0.00000000000E+00 0. -1.
<scales pt_clust_5="13000.00000" pt_clust_6="13000.00000" pt_clust_7="13000.00000" pt_clust_8="13000.00000" pt_clust_9="26.67759"></scales>
<clustering>
<clus scale="   26.678">  1  9  2 -1</clus>
<clus scale="   78.675">  5  6 -1 -1</clus>
<clus scale="   86.317">  2  5  1 -1</clus>
<clus scale="   90.821">  7  8 -1 -1</clus>
<clus scale="   26.678">  1  5  2 -1</clus>
</clustering>
</event>
<event>
 9    2  0.1488992E-004  0.1229120E+03  0.7546771E-02  0.1242447E+00
         21   -1    0    0  501  502  0.00000000000E+00  0.00000000000E+00  0.83362392144E+02  0.83362392144E+02  0.00000000000E+00 0.  1.
          2   -1    0    0  502    0 -0.00000000000E+00 -0.00000000000E+00 -0.64262215868E+03  0.64262215868E+03  0.00000000000E+00 0. -1.
         23    2    1    2    0    0  0.58730836632E+02 -0.12241509170E+02 -0.13738263613E+03  0.17630381389E+03  0.92789441018E+02 0.  0.
         24    2    1    2    0    0 -0.13831148192E+03  0.38146016232E+02 -0.54365062871E+02  0.17275999941E+03  0.79405747583E+02 0.  0.
        -11    1    4    4    0    0 -0.47903929536E+02  0.66086977021E+01  0.19182351215E+02  0.52023301976E+02  0.00000000000E+00 0.  1.
         12    1    4    4    0    0 -0.90407552386E+02  0.31537318530E+02 -0.73547414086E+02  0.12073669743E+03  0.00000000000E+00 0. -1.
        -13    1    3    3    0    0  0.72369288139E+02  0.26337409723E+01 -0.13828839510E+03  0.15610230836E+03  0.00000000000E+00 0.  1.
         13    1    3    3    0    0 -0.13638451507E+02 -0.14875250142E+02  0.90575896899E+00  0.20201505528E+02  0.00000000000E+00 0. -1.
          1    1    1    2  501    0  0.79580645289E+02 -0.25904507062E+02 -0.36751206753E+03  0.37692073752E+03  0.00000000000E+00 0. -1.
<scales pt_clust_5="13000.00000" pt_clust_6="13000.00000" pt_clust_7="13000.00000" pt_clust_8="13000.00000" pt_clust_9="83.69068"></scales>
<clustering>
<clus scale="   79.406">  5  6 -1 -1</clus>
<clus scale="   83.691">  1  9  2 -1</clus>
<clus scale="   92.789">  7  8 -1 -1</clus>
<clus scale="  113.149">  1  5  2 -1</clus>
<clus scale="   83.691">  1  5  2 -1</clus>
</clustering>
</event>
<event>
 9    2  0.1488992E-004  0.9793657E+02  0.7546771E-02  0.1290030E+00
         -1   -1    0    0    0  501 -0.00000000000E+00  0.00000000000E+00  0.11649993094E+03  0.11649993094E+03  0.00000000000E+00 0.  1.
         21   -1    0    0  501  502  0.00000000000E+00 -0.00000000000E+00 -0.12394172672E+03  0.12394172672E+03  0.00000000000E+00 0. -1.
         23    2    1    2    0    0  0.15358121767E+02 -0.19863821986E+02  0.22115130605E+02  0.96379548719E+02  0.90385259204E+02 0.  0.
         24    2    1    2    0    0 -0.54783947348E+02  0.23785196754E+02 -0.11847254806E+02  0.10066389043E+03  0.80161367992E+02 0.  0.
        -11    1    4    4    0    0  0.20175257505E+02 -0.26192427676E+00 -0.84317443901E+01  0.21867874455E+02  0.00000000000E+00 0.  1.
         12    1    4    4    0    0 -0.74959204853E+02  0.24047121031E+02 -0.34155104155E+01  0.78796015975E+02  0.00000000000E+00 0. -1.
        -11    1    3    3    0    0 -0.27163274273E+02  0.16785019728E+02  0.24417183649E+02  0.40196756260E+02  0.00000000000E+00 0.  1.
         11    1    3    3    0    0  0.42521396040E+02 -0.36648841714E+02 -0.23020530441E+01  0.56182792458E+02  0.00000000000E+00 0. -1.
         -2    1    1    2    0  502  0.39425825581E+02 -0.39213747690E+01 -0.17709671582E+02  0.43398218515E+02  0.00000000000E+00 0.  1.
<scales pt_clust_5="13000.00000" pt_clust_6="13000.00000" pt_clust_7="13000.00000" pt_clust_8="13000.00000" pt_clust_9="39.62036"></scales>
<clustering>
<clus scale="   39.620">  2  9  1 -1</clus>
<clus scale="   80.161">  5  6 -1 -1</clus>
<clus scale="   88.588">  2  5  1 -1</clus>
<clus scale="   90.385">  7  8 -1 -1</clus>
<clus scale="   39.620">  2  5  1 -1</clus>
</clustering>
</event>
<event>
 9    2  0.1488992E-004  0.1067259E+03  0.7546771E-02  0.1275756E+00
         21   -1    0    0  501  502  0.00000000000E+00  0.00000000000E+00  0.12221585180E+03  0.12221585180E+03  0.00000000000E+00 0.  1.
          2   -1    0    0  502    0 -0.00000000000E+00 -0.00000000000E+00 -0.26959758768E+03  0.26959758768E+03  0.00000000000E+00 0. -1.
         24    2    1    2    0    0 -0.38569129684E+02  0.42115234655E+02 -0.16086009246E+03  0.18429198603E+03  0.69471548214E+02 0.  0.
         23    2    1    2    0    0 -0.16473557376E+02 -0.82070184728E+02  0.46801912354E+02  0.13178140591E+03  0.90382667744E+02 0.  0.
        -13    1    3    3    0    0 -0.15891874075E+02 -0.14412953728E+02 -0.81366620668E+02  0.84147560011E+02  0.00000000000E+00 0.  1.
         14    1    3    3    0    0 -0.22677255609E+02  0.56528188383E+02 -0.79493471796E+02  0.10014442602E+03  0.00000000000E+00 0. -1.
        -11    1    4    4    0    0 -0.38377894546E+02 -0.67003824339E+02  0.63852934404E+02  0.10019766713E+03  0.00000000000E+00 0.  1.
         11    1    4    4    0    0  0.21904337170E+02 -0.15066360389E+02 -0.17051022050E+02  0.31583738778E+02  0.00000000000E+00 0. -1.
          1    1    1    2  501    0  0.55042687060E+02  0.39954950073E+02 -0.33323555771E+02  0.75740047553E+02  0.00000000000E+00 0. -1.
<scales pt_clust_5="13000.00000" pt_clust_6="13000.00000" pt_clust_7="13000.00000" pt_clust_8="13000.00000" pt_clust_9="68.01544"></scales>
<clustering>
<clus scale="   68.015">  1  9  2 -1</clus>
<clus scale="   69.472">  5  6 -1 -1</clus>
<clus scale="   89.709">  2  5  1 -1</clus>
<clus scale="   90.383">  7  8 -1 -1</clus>
<clus scale="   68.015">  1  5  2 -1</clus>
</clustering>
</event>
<event>
 9    2  0.1488992E-004  0.1960672E+03  0.7546771E-02  0.1179724E+00
          2   -1    0    0  502    0 -0.00000000000E+00  0.00000000000E+00  0.48398220323E+03  0.48398220323E+03  0.00000000000E+00 0. -1.
         21   -1    0    0  501  502  0.00000000000E+00 -0.00000000000E+00 -0.16232824132E+03  0.16232824132E+03  0.00000000000E+00 0. -1.
         23    2    1    2    0    0 -0.32134164815E+02  0.45531124085E+02  0.52039855959E+02  0.11828639561E+03  0.90431393722E+02 0.  0.
         24    2    1    2    0    0  0.18009697986E+03 -0.12659400150E+03  0.27256469122E+03  0.35928492874E+03  0.79581315326E+02 0.  0.
        -13    1    4    4    0    0  0.50700708203E+02 -0.46119661284E+02  0.14566668003E+03  0.16098561004E+03  0.00000000000E+00 0.  1.
         14    1    4    4    0    0  0.12939627165E+03 -0.80474340220E+02  0.12689801118E+03  0.19829931869E+03  0.00000000000E+00 0. -1.
        -11    1    3    3    0    0  0.21666437652E+02  0.95506589014E+01 -0.12592380383E+02  0.26818233530E+02  0.00000000000E+00 0.  1.
         11    1    3    3    0    0 -0.53800602466E+02  0.35980465183E+02  0.64632236342E+02  0.91468162085E+02  0.00000000000E+00 0. -1.
          1    1    1    2  501    0 -0.14796281504E+03  0.81062877420E+02 -0.29505852735E+01  0.16873912020E+03  0.00000000000E+00 0. -1.
<scales pt_clust_5="13000.00000" pt_clust_6="13000.00000" pt_clust_7="13000.00000" pt_clust_8="13000.00000" pt_clust_9="179.19028"></scales>
<clustering>
<clus scale="   79.581">  5  6 -1 -1</clus>
<clus scale="   90.431">  7  8 -1 -1</clus>
<clus scale="  106.224">  1  7  2 -1</clus>
<clus scale="  179.190">  2  9  1 -1</clus>
<clus scale="  179.190">  2  5  1 -1</clus>
</clustering>
</event>
<event>
 9    2  0.1488992E-004  0.1619868E+03  0.7546771E-02  0.1206328E+00
         21   -1    0    0  501  502  0.00000000000E+00  0.00000000000E+00  0.83180824560E+02  0.83180824560E+02  0.00000000000E+00 0. -1.
          2   -1    0    0  502    0 -0.00000000000E+00 -0.00000000000E+00 -0.86932235273E+03  0.86932235273E+03  0.00000000000E+00 0. -1.
         24    2    1    2    0    0  0.11618254880E+02  0.66429101289E+02 -0.32644338079E+03  0.34290199666E+03  0.80428161184E+02 0.  0.
         23    2    1    2    0    0 -0.66415447250E+02  0.10139140057E+03 -0.47558255306E+02  0.16124223539E+03  0.95110688585E+02 0.  0.
        -11    1    3    3    0    0  0.15146188841E+02 -0.14761141438E+02 -0.41248207791E+02  0.46354212095E+02  0.00000000000E+00 0.  1.
         12    1    3    3    0    0 -0.35279339615E+01  0.81190242728E+02 -0.28519517299E+03  0.29654778457E+03  0.00000000000E+00 0. -1.
        -13    1    4    4    0    0 -0.42134114810E+02  0.29063745018E+01 -0.42142850689E+02  0.59663644775E+02  0.00000000000E+00 0.  1.
         13    1    4    4    0    0 -0.24281332440E+02  0.98485026063E+02 -0.54154046163E+01  0.10157859061E+03  0.00000000000E+00 0. -1.
          1    1    1    2  501    0  0.54797192371E+02 -0.16782050185E+03 -0.41213989208E+03  0.44835894524E+03  0.00000000000E+00 0. -1.
<scales pt_clust_5="13000.00000" pt_clust_6="13000.00000" pt_clust_7="13000.00000" pt_clust_8="13000.00000" pt_clust_9="131.12475"></scales>
<clustering>
<clus scale="   80.428">  5  6 -1 -1</clus>
<clus scale="   95.111">  7  8 -1 -1</clus>
<clus scale="  104.960">  2  5  1 -1</clus>
<clus scale="  131.125">  1  9  2 -1</clus>
<clus scale="  131.125">  1  5  2 -1</clus>
</clustering>
</event>
<event>
 9    2  0.1488992E-004  0.1015709E+03  0.7546771E-02  0.1280413E+00
          4   -1    0    0  502    0 -0.00000000000E+00  0.00000000000E+00  0.84981770955E+02  0.84981770955E+02  0.00000000000E+00 0. -1.
         21   -1    0    0  501  502  0.00000000000E+00 -0.00000000000E+00 -0.17836953299E+03  0.17836953299E+03  0.00000000000E+00 0. -1.
         23    2    1    2    0    0  0.41887464420E+02 -0.52207944395E+02 -0.31967993790E+02  0.11620927428E+03  0.89456210896E+02 0.  0.
         24    2    1    2    0    0 -0.27588328172E+01  0.32349397409E+02 -0.51090134749E+02  0.10206306531E+03  0.82174039452E+02 0.  0.
        -13    1    4    4    0    0 -0.24284033493E+02  0.55469446357E+01  0.13911796975E+02  0.28531052777E+02  0.00000000000E+00 0.  1.
         14    1    4    4    0    0  0.21525200676E+02  0.26802452773E+02 -0.65001931724E+02  0.73532012530E+02  0.00000000000E+00 0. -1.
        -11    1    3    3    0    0  0.13870979433E+02 -0.70630517452E+02 -0.32362049954E+01  0.72052391277E+02  0.00000000000E+00 0. -1.
         11    1    3    3    0    0  0.28016484987E+02  0.18422573057E+02 -0.28731788794E+02  0.44156883001E+02  0.00000000000E+00 0.  1.
          3    1    1    2  501    0 -0.39128631603E+02  0.19858546986E+02 -0.10329633494E+02  0.45078964358E+02  0.00000000000E+00 0. -1.
<scales pt_clust_5="13000.00000" pt_clust_6="13000.00000" pt_clust_7="13000.00000" pt_clust_8="13000.00000" pt_clust_9="43.87954"></scales>
<clustering>
<clus scale="   43.880">  2  9  1 -1</clus>
<clus scale="   82.174">  5  6 -1 -1</clus>
<clus scale="   89.456">  7  8 -1 -1</clus>
<clus scale="   95.220">  2  5  1 -1</clus>
<clus scale="   43.880">  2  5  1 -1</clus>
</clustering>
</event>
<event>
 9    2  0.1488992E-004  0.1621751E+03  0.7546771E-02  0.1188057E+00
         21   -1    0    0  501  502  0.00000000000E+00  0.00000000000E+00  0.82255770500E+02  0.82255770500E+02  0.00000000000E+00 0. -1.
          2   -1    0    0  502    0 -0.00000000000E+00 -0.00000000000E+00 -0.38208812456E+03  0.38208812456E+03  0.00000000000E+00 0. -1.
         23    2    1    2    0    0 -0.55465886895E+02 -0.12920228305E+03 -0.15513204776E+03  0.22872753077E+03  0.92090371564E+02 0.  0.
         24    2    1    2    0    0  0.35628085259E+02  0.12040493602E+03 -0.83974537959E+02  0.17112953906E+03  0.80416957385E+02 0.  0.
        -13    1    4    4    0    0  0.13589012379E+02  0.23923692306E+02 -0.64695215890E+02  0.70302740132E+02  0.00000000000E+00 0.  1.
         14    1    4    4    0    0  0.22039072880E+02  0.96481243712E+02 -0.19279322069E+02  0.10082679892E+03  0.00000000000E+00 0. -1.
        -11    1    3    3    0    0  0.20783824434E+02 -0.46573864434E+02 -0.74846604329E+02  0.90571001905E+02  0.00000000000E+00 0.  1.
         11    1    3    3    0    0 -0.76249711329E+02 -0.82628418618E+02 -0.80285443436E+02  0.13815652887E+03  0.00000000000E+00 0. -1.
          1    1    1    2  501    0  0.19837801636E+02  0.87973470344E+01 -0.60725768336E+02  0.64486825233E+02  0.00000000000E+00 0. -1.
<scales pt_clust_5="13000.00000" pt_clust_6="13000.00000" pt_clust_7="13000.00000" pt_clust_8="13000.00000" pt_clust_9="21.70097"></scales>
<clustering>
<clus scale="   21.701">  1  9  2 -1</clus>
<clus scale="   80.417">  5  6 -1 -1</clus>
<clus scale="   92.090">  7  8 -1 -1</clus>
<clus scale="  155.843">  1  5  2 -1</clus>
<clus scale="   21.701">  1  5  2 -1</clus>
</clustering>
</event>
<event>
 9    2  0.1488992E-004  0.1132945E+03  0.7546771E-02  0.1258730E+00
         21   -1    0    0  501  502  0.00000000000E+00  0.00000000000E+00  0.14244675617E+03  0.14244675617E+03  0.00000000000E+00 0. -1.
          4   -1    0    0  502    0 -0.00000000000E+00 -0.00000000000E+00 -0.33481087484E+03  0.33481087484E+03  0.00000000000E+00 0. -1.
         24    2    1    2    0    0 -0.64626986992E+02 -0.11541263898E+02 -0.28034354472E+03  0.29915163241E+03  0.81174798362E+02 0.  0.
         23    2    1    2    0    0  0.68401125047E+02 -0.13345313149E+02  0.37362106924E+02  0.12157548623E+03  0.92346415884E+02 0.  0.
        -11    1    3    3    0    0 -0.17481399418E+02 -0.43840242809E+02 -0.12203834969E+03  0.13084695262E+03  0.00000000000E+00 0.  1.
         12    1    3    3    0    0 -0.47145587574E+02  0.32298978910E+02 -0.15830519503E+03  0.16830467979E+03  0.00000000000E+00 0. -1.
        -13    1    4    4    0    0  0.51564083500E+02  0.34838727617E+02  0.81374393621E+01  0.62759936014E+02  0.00000000000E+00 0.  1.
         13    1    4    4    0    0  0.16837041547E+02 -0.48184040766E+02  0.29224667562E+02  0.58815550212E+02  0.00000000000E+00 0. -1.
          3    1    1    2  501    0 -0.37741380550E+01  0.24886577048E+02  0.50617319118E+02  0.56530512380E+02  0.00000000000E+00 0. -1.
<scales pt_clust_5="13000.00000" pt_clust_6="13000.00000" pt_clust_7="13000.00000" pt_clust_8="13000.00000" pt_clust_9="25.17113"></scales>
<clustering>
<clus scale="   25.171">  1  9  2 -1</clus>
<clus scale="   81.175">  5  6 -1 -1</clus>
<clus scale="   92.346">  7  8 -1 -1</clus>
<clus scale="  104.389">  2  5  1 -1</clus>
<clus scale="   25.171">  1  5  2 -1</clus>
</clustering>
</event>
<event>
 9    2  0.1488992E-004  0.1424314E+03  0.7546771E-02  0.1211724E+00
         21   -1    0    0  501  502  0.00000000000E+00  0.00000000000E+00  0.10502367377E+03  0.10502367377E+03  0.00000000000E+00 0. -1.
         -1   -1    0    0    0  501 -0.00000000000E+00 -0.00000000000E+00 -0.23810940627E+03  0.23810940627E+03  0.00000000000E+00 0.  1.
         24    2    1    2    0    0  0.50963848998E+01 -0.97152788252E+02 -0.57242437086E+02  0.13862833934E+03  0.80476595725E+02 0.  0.
         23    2    1    2    0    0 -0.43563654266E+01  0.12929143583E+03 -0.70633375484E+02  0.17193813875E+03  0.88534719331E+02 0.  0.
        -11    1    3    3    0    0  0.79463488387E+01 -0.96971376108E+02 -0.73615866596E+02  0.12200773770E+03  0.00000000000E+00 0.  1.
         12    1    3    3    0    0 -0.28499639388E+01 -0.18141214353E+00  0.16373429510E+02  0.16620601636E+02  0.00000000000E+00 0. -1.
        -13    1    4    4    0    0 -0.72574034451E+01  0.37515870943E+02  0.19820819727E+02  0.43046200436E+02  0.00000000000E+00 0.  1.
         13    1    4    4    0    0  0.29010380185E+01  0.91775564886E+02 -0.90454195211E+02  0.12889193832E+03  0.00000000000E+00 0. -1.
         -2    1    1    2    0  502 -0.74001947323E+00 -0.32138647578E+02 -0.52099199331E+01  0.32566601951E+02  0.00000000000E+00 0.  1.
<scales pt_clust_5="13000.00000" pt_clust_6="13000.00000" pt_clust_7="13000.00000" pt_clust_8="13000.00000" pt_clust_9="32.14717"></scales>
<clustering>
<clus scale="   32.147">  1  9  2 -1</clus>
<clus scale="   80.477">  5  6 -1 -1</clus>
<clus scale="   88.535">  7  8 -1 -1</clus>
<clus scale="  137.567">  2  5  1 -1</clus>
<clus scale="   32.147">  1  5  2 -1</clus>
</clustering>
</event>
<event>
 9    2  0.1488992E-004  0.9663442E+02  0.7546771E-02  0.1290508E+00
          4   -1    0    0  502    0 -0.00000000000E+00  0.00000000000E+00  0.89999611468E+02  0.89999611468E+02  0.00000000000E+00 0. -1.
         21   -1    0    0  501  502  0.00000000000E+00 -0.00000000000E+00 -0.37336042380E+03  0.37336042380E+03  0.00000000000E+00 0. -1.
         23    2    1    2    0    0  0.42413260281E+02 -0.17373542673E+02  0.11703476327E+02  0.98992900850E+02  0.86959176790E+02 0.  0.
         24    2    1    2    0    0  0.10306124650E+02  0.58456680559E+02 -0.27767836985E+03  0.29530608940E+03  0.81098764770E+02 0.  0.
        -13    1    4    4    0    0  0.53262139311E+01  0.36963870633E+02 -0.33610263362E+02  0.50242871039E+02  0.00000000000E+00 0.  1.
         14    1    4    4    0    0  0.49799107188E+01  0.21492809927E+02 -0.24406810648E+03  0.24506321836E+03  0.00000000000E+00 0. -1.
        -11    1    3    3    0    0  0.51312399372E+02  0.22159332867E+02  0.16274188078E+02  0.58213809015E+02  0.00000000000E+00 0. -1.
         11    1    3    3    0    0 -0.88991390918E+01 -0.39532875539E+02 -0.45707117511E+01  0.40779091835E+02  0.00000000000E+00 0.  1.
          3    1    1    2  501    0 -0.52719384931E+02 -0.41083137887E+02 -0.17385918811E+02  0.69061045018E+02  0.00000000000E+00 0. -1.
<scales pt_clust_5="13000.00000" pt_clust_6="13000.00000" pt_clust_7="13000.00000" pt_clust_8="13000.00000" pt_clust_9="66.83683"></scales>
<clustering>
<clus scale="   66.837">  2  9  1 -1</clus>
<clus scale="   81.099">  5  6 -1 -1</clus>
<clus scale="   86.959">  7  8 -1 -1</clus>
<clus scale="   91.397">  2  5  1 -1</clus>
<clus scale="   66.837">  2  5  1 -1</clus>
</clustering>
</event>
<event>
 9    2  0.1488992E-004  0.1147781E+03  0.7546771E-02  0.1256759E+00
         -1   -1    0    0    0  501 -0.00000000000E+00  0.00000000000E+00  0.61756774083E+03  0.61756774083E+03  0.00000000000E+00 0.  1.
         21   -1    0    0  501  502  0.00000000000E+00 -0.00000000000E+00 -0.29809959641E+02  0.29809959641E+02  0.00000000000E+00 0.  1.
         23    2    1    2    0    0 -0.59110097729E+02  0.48627425483E+02  0.36250621108E+03  0.38183516058E+03  0.92350996878E+02 0.  0.
         24    2    1    2    0    0  0.60170128962E+02 -0.86771525847E+01  0.14631996557E+03  0.17707024950E+03  0.79048109008E+02 0.  0.
        -13    1    4    4    0    0  0.46258359963E+02  0.29406448154E+02  0.57537375756E+02  0.79467758673E+02  0.00000000000E+00 0.  1.
         14    1    4    4    0    0  0.13911768998E+02 -0.38083600739E+02  0.88782589811E+02  0.97602490826E+02  0.00000000000E+00 0. -1.
        -13    1    3    3    0    0 -0.62927903984E+02 -0.48649740224E+01  0.23889504914E+03  0.24709195368E+03  0.00000000000E+00 0.  1.
         13    1    3    3    0    0  0.38178062552E+01  0.53492399506E+02  0.12361116194E+03  0.13474320690E+03  0.00000000000E+00 0. -1.
         -2    1    1    2    0  502 -0.10600312329E+01 -0.39950272899E+02  0.78931604543E+02  0.88472290389E+02  0.00000000000E+00 0.  1.
<scales pt_clust_5="13000.00000" pt_clust_6="13000.00000" pt_clust_7="13000.00000" pt_clust_8="13000.00000" pt_clust_9="39.96433"></scales>
<clustering>
<clus scale="   39.964">  2  9  1 -1</clus>
<clus scale="   79.048">  5  6 -1 -1</clus>
<clus scale="   92.351">  7  8 -1 -1</clus>
<clus scale="  104.374">  2  5  1 -1</clus>
<clus scale="   39.964">  2  5  1 -1</clus>
</clustering>
</event>
<event>
 9    2  0.1488992E-004  0.1472052E+03  0.7546771E-02  0.1209714E+00
          2   -1    0    0  502    0 -0.00000000000E+00  0.00000000000E+00  0.52784864436E+03  0.52784864436E+03  0.00000000000E+00 0. -1.
         21   -1    0    0  501  502  0.00000000000E+00 -0.00000000000E+00 -0.58316221059E+02  0.58316221059E+02  0.00000000000E+00 0. -1.
         23    2    1    2    0    0  0.82356485297E+02  0.43270249801E+02  0.18085877354E+03  0.22846236732E+03  0.10406849729E+03 0.  0.
         24    2    1    2    0    0 -0.11973900453E+03 -0.21519353402E+02  0.13389977210E+03  0.19699933246E+03  0.77968431079E+02 0.  0.
        -13    1    4    4    0    0 -0.22776483664E+02 -0.15312984382E+02 -0.45891641628E+01  0.27826536372E+02  0.00000000000E+00 0.  1.
         14    1    4    4    0    0 -0.96962520869E+02 -0.62063690203E+01  0.13848893626E+03  0.16917279609E+03  0.00000000000E+00 0. -1.
        -11    1    3    3    0    0 -0.27661855484E+01 -0.25075197904E+02  0.13403932158E+02  0.28567161737E+02  0.00000000000E+00 0.  1.
         11    1    3    3    0    0  0.85122670845E+02  0.68345447705E+02  0.16745484138E+03  0.19989520558E+03  0.00000000000E+00 0. -1.
          1    1    1    2  501    0  0.37382519235E+02 -0.21750896398E+02  0.15477387766E+03  0.16070316563E+03  0.00000000000E+00 0. -1.
<scales pt_clust_5="13000.00000" pt_clust_6="13000.00000" pt_clust_7="13000.00000" pt_clust_8="13000.00000" pt_clust_9="43.24993"></scales>
<clustering>
<clus scale="   43.250">  2  9  1 -1</clus>
<clus scale="   77.968">  5  6 -1 -1</clus>
<clus scale="  104.068">  7  8 -1 -1</clus>
<clus scale="  130.070">  2  5  1 -1</clus>
<clus scale="   43.250">  2  5  1 -1</clus>
</clustering>
</event>
<event>
 9    2  0.1488992E-004  0.1557168E+03  0.7546771E-02  0.1194729E+00
         21   -1    0    0  501  502  0.00000000000E+00  0.00000000000E+00  0.31690602714E+03  0.31690602714E+03  0.00000000000E+00 0. -1.
          2   -1    0    0  502    0 -0.00000000000E+00 -0.00000000000E+00 -0.36400333550E+03  0.36400333550E+03  0.00000000000E+00 0. -1.
         24    2    1    2    0    0 -0.33723760739E+02  0.12520200634E+03  0.21319773838E+03  0.26181754871E+03  0.79261079555E+02 0.  0.
         23    2    1    2    0    0 -0.11976386284E+03 -0.91816167028E+02 -0.95768605368E+02  0.19162310230E+03  0.69095558401E+02 0.  0.
        -11    1    3    3    0    0  0.22360258598E+02  0.41385342264E+02  0.98051484000E+02  0.10875118957E+03  0.00000000000E+00 0.  1.
         12    1    3    3    0    0 -0.56084019338E+02  0.83816664074E+02  0.11514625438E+03  0.15306635914E+03  0.00000000000E+00 0. -1.
        -11    1    4    4    0    0 -0.40410221929E+02 -0.66205255021E+02 -0.22867389988E+02  0.80864326830E+02  0.00000000000E+00 0. -1.
         11    1    4    4    0    0 -0.79353640913E+02 -0.25610912007E+02 -0.72901215381E+02  0.11075877547E+03  0.00000000000E+00 0.  1.
          1    1    1    2  501    0  0.15348762358E+03 -0.33385839310E+02 -0.16452644137E+03  0.22746871163E+03  0.00000000000E+00 0. -1.
<scales pt_clust_5="13000.00000" pt_clust_6="13000.00000" pt_clust_7="13000.00000" pt_clust_8="13000.00000" pt_clust_9="139.54767"></scales>
<clustering>
<clus scale="   69.096">  7  8 -1 -1</clus>
<clus scale="   79.261">  5  6 -1 -1</clus>
<clus scale="  151.971">  2  5  1 -1</clus>
<clus scale="  139.548">  1  9  2 -1</clus>
<clus scale="  139.548">  1  5  2 -1</clus>
</clustering>
</event>
<event>
 9    2  0.1488992E-004  0.1011426E+03  0.7546771E-02  0.1283136E+00
         21   -1    0    0  501  502  0.00000000000E+00  0.00000000000E+00  0.21417000314E+03  0.21417000314E+03  0.00000000000E+00 0.  1.
         -1   -1    0    0    0  501 -0.00000000000E+00 -0.00000000000E+00 -0.64938165250E+02  0.64938165250E+02  0.00000000000E+00 0.  1.
         23    2    1    2    0    0  0.35939051859E+02  0.93124843331E+01  0.55538020626E+02  0.11319895612E+03  0.91384868103E+02 0.  0.
         24    2    1    2    0    0 -0.49699680631E+02  0.26448599120E+02  0.63046540432E+02  0.11684328141E+03  0.80671553232E+02 0.  0.
        -11    1    4    4    0    0 -0.59401322245E+02  0.33696193180E+02  0.18605952678E+02  0.70782285880E+02  0.00000000000E+00 0.  1.
         12    1    4    4    0    0  0.97016416142E+01 -0.72475940602E+01  0.44440587754E+02  0.46060995534E+02  0.00000000000E+00 0. -1.
        -11    1    3    3    0    0  0.50500135454E+02  0.26881919341E+02  0.46128014626E+01  0.57394940593E+02  0.00000000000E+00 0. -1.
         11    1    3    3    0    0 -0.14561083595E+02 -0.17569435008E+02  0.50925219163E+02  0.55804015526E+02  0.00000000000E+00 0.  1.
         -2    1    1    2    0  502  0.13760628771E+02 -0.35761083453E+02  0.30647276835E+02  0.49065930862E+02  0.00000000000E+00 0.  1.
<scales pt_clust_5="13000.00000" pt_clust_6="13000.00000" pt_clust_7="13000.00000" pt_clust_8="13000.00000" pt_clust_9="38.31723"></scales>
<clustering>
<clus scale="   38.317">  1  9  2 -1</clus>
<clus scale="   80.672">  5  6 -1 -1</clus>
<clus scale="   91.385">  7  8 -1 -1</clus>
<clus scale="   91.578">  1  5  2 -1</clus>
<clus scale="   38.317">  1  5  2 -1</clus>
</clustering>
</event>
<event>
 9    2  0.1488992E-004  0.1867741E+03  0.7546771E-02  0.1162450E+00
         21   -1    0    0  501  502  0.00000000000E+00  0.00000000000E+00  0.10818809455E+03  0.10818809455E+03  0.00000000000E+00 0.  1.
          2   -1    0    0  502    0 -0.00000000000E+00 -0.00000000000E+00 -0.11500238684E+04  0.11500238684E+04  0.00000000000E+00 0. -1.
         23    2    1    2    0    0  0.10654453527E+03  0.13165278519E+03 -0.73790721007E+03  0.76233042996E+03  0.89198878582E+02 0.  0.
         24    2    1    2    0    0 -0.20678685750E+03  0.53251340622E+01 -0.18464559774E+03  0.28842093546E+03  0.79394444133E+02 0.  0.
        -11    1    4    4    0    0 -0.69895332912E+02  0.37970738781E+02 -0.52013206646E+02  0.95039508796E+02  0.00000000000E+00 0.  1.
         12    1    4    4    0    0 -0.13689152459E+03 -0.32645604719E+02 -0.13263239109E+03  0.19338142667E+03  0.00000000000E+00 0. -1.
        -11    1    3    3    0    0 -0.11985162503E+02  0.29729561774E+02 -0.18466783440E+03  0.18742918670E+03  0.00000000000E+00 0.  1.
         11    1    3    3    0    0  0.11852969778E+03  0.10192322341E+03 -0.55323937566E+03  0.57490124327E+03  0.00000000000E+00 0. -1.
          1    1    1    2  501    0  0.10024232223E+03 -0.13697791925E+03 -0.11928296600E+03  0.20746059748E+03  0.00000000000E+00 0. -1.
<scales pt_clust_5="13000.00000" pt_clust_6="13000.00000" pt_clust_7="13000.00000" pt_clust_8="13000.00000" pt_clust_9="169.73943"></scales>
<clustering>
<clus scale="   79.394">  5  6 -1 -1</clus>
<clus scale="   89.199">  7  8 -1 -1</clus>
<clus scale="  169.739">  1  9  2 -1</clus>
<clus scale="  182.295">  1  5  2 -1</clus>
<clus scale="  169.739">  1  5  2 -1</clus>
</clustering>
</event>
<event>
 9    2  0.1488992E-004  0.1007724E+03  0.7546771E-02  0.1279135E+00
         21   -1    0    0  501  502  0.00000000000E+00  0.00000000000E+00  0.16797830026E+03  0.16797830026E+03  0.00000000000E+00 0.  1.
          2   -1    0    0  502    0 -0.00000000000E+00 -0.00000000000E+00 -0.20980750317E+03  0.20980750317E+03  0.00000000000E+00 0. -1.
         24    2    1    2    0    0  0.45869397536E+02 -0.32392455425E+02 -0.13587721453E+03  0.17024508093E+03  0.85834126978E+02 0.  0.
         23    2    1    2    0    0  0.13105787106E+02  0.38993716254E+02  0.11002764373E+03  0.14608343904E+03  0.86844788071E+02 0.  0.
        -13    1    3    3    0    0  0.66493228309E+02 -0.40491757019E+02 -0.88031909169E+02  0.11751829147E+03  0.00000000000E+00 0.  1.
         14    1    3    3    0    0 -0.20623830773E+02  0.80993015939E+01 -0.47845305362E+02  0.52726789465E+02  0.00000000000E+00 0. -1.
        -13    1    4    4    0    0 -0.18916264376E+02 -0.15152274587E+02  0.67554337534E+01  0.25160531956E+02  0.00000000000E+00 0. -1.
         13    1    4    4    0    0  0.32022051482E+02  0.54145990841E+02  0.10327220997E+03  0.12092290709E+03  0.00000000000E+00 0.  1.
          1    1    1    2  501    0 -0.58975184642E+02 -0.66012608292E+01 -0.15979632104E+02  0.61457283460E+02  0.00000000000E+00 0. -1.
<scales pt_clust_5="13000.00000" pt_clust_6="13000.00000" pt_clust_7="13000.00000" pt_clust_8="13000.00000" pt_clust_9="59.34351"></scales>
<clustering>
<clus scale="   59.344">  1  9  2 -1</clus>
<clus scale="   85.834">  5  6 -1 -1</clus>
<clus scale="   86.845">  7  8 -1 -1</clus>
<clus scale="   99.903">  2  5  1 -1</clus>
<clus scale="   59.344">  1  5  2 -1</clus>
</clustering>
</event>
<event>
 9    2  0.1488992E-004  0.1493518E+03  0.7546771E-02  0.1203464E+00
         21   -1    0    0  501  502  0.00000000000E+00  0.00000000000E+00  0.16701658562E+03  0.16701658562E+03  0.00000000000E+00 0. -1.
          2   -1    0    0  502    0 -0.00000000000E+00 -0.00000000000E+00 -0.81931282887E+03  0.81931282887E+03  0.00000000000E+00 0. -1.
         24    2    1    2    0    0 -0.10298686179E+02  0.12670241499E+03 -0.67101683109E+03  0.68798620485E+03  0.83077467179E+02 0.  0.
         23    2    1    2    0    0  0.17877498052E+02 -0.76645954933E+02 -0.10689131499E+03  0.16291264547E+03  0.94448766474E+02 0.  0.
        -13    1    3    3    0    0 -0.36786556782E+02  0.92812781583E+02 -0.56184784224E+03  0.57064915755E+03  0.00000000000E+00 0.  1.
         14    1    3    3    0    0  0.26487870603E+02  0.33889633403E+02 -0.10916898885E+03  0.11733704729E+03  0.00000000000E+00 0. -1.
        -13    1    4    4    0    0  0.57258106355E+01 -0.95116571553E+02 -0.64389743761E+02  0.11500428772E+03  0.00000000000E+00 0.  1.
         13    1    4    4    0    0  0.12151687417E+02  0.18470616620E+02 -0.42501571232E+02  0.47908357753E+02  0.00000000000E+00 0. -1.
          1    1    1    2  501    0 -0.75788118735E+01 -0.50056460053E+02  0.12561190283E+03  0.13543056418E+03  0.00000000000E+00 0. -1.
<scales pt_clust_5="13000.00000" pt_clust_6="13000.00000" pt_clust_7="13000.00000" pt_clust_8="13000.00000" pt_clust_9="50.62695"></scales>
<clustering>
<clus scale="   50.627">  1  9  2 -1</clus>
<clus scale="   83.077">  5  6 -1 -1</clus>
<clus scale="   94.449">  7  8 -1 -1</clus>
<clus scale="  142.433">  2  5  1 -1</clus>
<clus scale="   50.627">  1  5  2 -1</clus>
</clustering>
</event>
<event>
 9    2  0.1488992E-004  0.1318995E+03  0.7546771E-02  0.1226751E+00
          2   -1    0    0  502    0 -0.00000000000E+00  0.00000000000E+00  0.22262121309E+03  0.22262121309E+03  0.00000000000E+00 0. -1.
         21   -1    0    0  501  502  0.00000000000E+00 -0.00000000000E+00 -0.17403614506E+03  0.17403614506E+03  0.00000000000E+00 0.  1.
         23    2    1    2    0    0  0.85281919808E+02 -0.77344133626E+02  0.87161363140E+02  0.16965089503E+03  0.89046067336E+02 0.  0.
         24    2    1    2    0    0 -0.82543059094E+01  0.61066413164E+02 -0.87829498435E+02  0.13414045468E+03  0.80513355445E+02 0.  0.
        -11    1    4    4    0    0 -0.38432419875E+02  0.37530144674E+02 -0.77859442535E+02  0.94592047491E+02  0.00000000000E+00 0.  1.
         12    1    4    4    0    0  0.30178113965E+02  0.23536268490E+02 -0.99700559000E+01  0.39548407194E+02  0.00000000000E+00 0. -1.
        -11    1    3    3    0    0  0.81255366462E+02 -0.29147792155E+02  0.23062115415E+02  0.89352613469E+02  0.00000000000E+00 0. -1.
         11    1    3    3    0    0  0.40265533466E+01 -0.48196341471E+02  0.64099247725E+02  0.80298281562E+02  0.00000000000E+00 0.  1.
          1    1    1    2  501    0 -0.77027613899E+02  0.16277720462E+02  0.49253203325E+02  0.92866008443E+02  0.00000000000E+00 0. -1.
<scales pt_clust_5="13000.00000" pt_clust_6="13000.00000" pt_clust_7="13000.00000" pt_clust_8="13000.00000" pt_clust_9="78.72880"></scales>
<clustering>
<clus scale="   78.729">  2  9  1 -1</clus>
<clus scale="   80.513">  5  6 -1 -1</clus>
<clus scale="   89.046">  7  8 -1 -1</clus>
<clus scale="  126.296">  2  5  1 -1</clus>
<clus scale="   78.729">  2  5  1 -1</clus>
</clustering>
</event>
<event>
 9    2  0.1488992E-004  0.1626549E+03  0.7546771E-02  0.1189694E+00
         -1   -1    0    0    0  501 -0.00000000000E+00  0.00000000000E+00  0.61471671227E+03  0.61471671227E+03  0.00000000000E+00 0.  1.
         21   -1    0    0  501  502  0.00000000000E+00 -0.00000000000E+00 -0.78510230124E+02  0.78510230124E+02  0.00000000000E+00 0.  1.
         23    2    1    2    0    0  0.36692895817E+02 -0.13368516193E+03  0.27614355429E+03  0.32689752002E+03  0.10671754726E+03 0.  0.
         24    2    1    2    0    0 -0.84820586399E+02  0.68448274471E+02  0.59772053285E+02  0.15025406395E+03  0.84403123302E+02 0.  0.
        -11    1    4    4    0    0 -0.82538547291E+02  0.85434717594E+02  0.43173265190E+02  0.12639475300E+03  0.00000000000E+00 0.  1.
         12    1    4    4    0    0 -0.22820391076E+01 -0.16986443123E+02  0.16598788096E+02  0.23859310943E+02  0.00000000000E+00 0. -1.
        -11    1    3    3    0    0  0.70446768626E+01 -0.11334062914E+03  0.11435251922E+03  0.16115900327E+03  0.00000000000E+00 0.  1.
         11    1    3    3    0    0  0.29648218955E+02 -0.20344532790E+02  0.16179103508E+03  0.16573851674E+03  0.00000000000E+00 0. -1.
         -2    1    1    2    0  502  0.48127690581E+02  0.65236887455E+02  0.20029087457E+03  0.21607535843E+03  0.00000000000E+00 0.  1.
<scales pt_clust_5="13000.00000" pt_clust_6="13000.00000" pt_clust_7="13000.00000" pt_clust_8="13000.00000" pt_clust_9="81.06869"></scales>
<clustering>
<clus scale="   81.069">  2  9  1 -1</clus>
<clus scale="   84.403">  5  6 -1 -1</clus>
<clus scale="  106.718">  7  8 -1 -1</clus>
<clus scale="  148.969">  2  5  1 -1</clus>
<clus scale="   81.069">  2  5  1 -1</clus>
</clustering>
</event>
<event>
 9    2  0.1488992E-004  0.9196001E+02  0.7546771E-02  0.1298883E+00
         -1   -1    0    0    0  501 -0.00000000000E+00  0.00000000000E+00  0.77052836627E+03  0.77052836627E+03  0.00000000000E+00 0.  1.
         21   -1    0    0  501  502  0.00000000000E+00 -0.00000000000E+00 -0.27151038695E+02  0.27151038695E+02  0.00000000000E+00 0. -1.
         23    2    1    2    0    0 -0.44661921132E+00 -0.36182875781E+02  0.29247327673E+03  0.30575590552E+03  0.81465674948E+02 0.  0.
         24    2    1    2    0    0  0.47298733116E+02  0.53295359376E+02  0.13642726037E+03  0.17351557017E+03  0.80110487666E+02 0.  0.
        -13    1    4    4    0    0  0.53252492474E+02  0.13949729858E+02  0.11684808303E+03  0.12916616208E+03  0.00000000000E+00 0.  1.
         14    1    4    4    0    0 -0.59537593582E+01  0.39345629519E+02  0.19579177333E+02  0.44349408088E+02  0.00000000000E+00 0. -1.
        -13    1    3    3    0    0 -0.33762893953E+02 -0.42215681999E+02  0.15430428467E+03  0.16349895744E+03  0.00000000000E+00 0.  1.
         13    1    3    3    0    0  0.33316274742E+02  0.60328062187E+01  0.13816899205E+03  0.14225694808E+03  0.00000000000E+00 0. -1.
         -2    1    1    2    0  502 -0.46852113905E+02 -0.17112483596E+02  0.31447679048E+03  0.31840792927E+03  0.00000000000E+00 0.  1.
<scales pt_clust_5="13000.00000" pt_clust_6="13000.00000" pt_clust_7="13000.00000" pt_clust_8="13000.00000" pt_clust_9="49.87946"></scales>
<clustering>
<clus scale="   49.879">  2  9  1 -1</clus>
<clus scale="   80.110">  5  6 -1 -1</clus>
<clus scale="   81.466">  7  8 -1 -1</clus>
<clus scale="   90.762">  2  5  1 -1</clus>
<clus scale="   49.879">  2  5  1 -1</clus>
</clustering>
</event>
<event>
 9    2  0.1488992E-004  0.1433632E+03  0.7546771E-02  0.1210776E+00
         21   -1    0    0  501  502  0.00000000000E+00  0.00000000000E+00  0.77359701152E+02  0.77359701152E+02  0.00000000000E+00 0.  1.
          2   -1    0    0  502    0 -0.00000000000E+00 -0.00000000000E+00 -0.60810209051E+03  0.60810209051E+03  0.00000000000E+00 0. -1.
         23    2    1    2    0    0 -0.11384906954E+03  0.24009865906E+02 -0.37069941747E+03  0.39904529350E+03  0.91000021193E+02 0.  0.
         24    2    1    2    0    0  0.10563172845E+03  0.33443229446E+02 -0.17858359516E+03  0.22548918433E+03  0.81711444354E+02 0.  0.
        -11    1    4    4    0    0  0.26194718223E+02  0.17729092137E+02 -0.25610949045E+01  0.31733943624E+02  0.00000000000E+00 0.  1.
         12    1    4    4    0    0  0.79437010228E+02  0.15714137308E+02 -0.17602250025E+03  0.19375524070E+03  0.00000000000E+00 0. -1.
        -13    1    3    3    0    0 -0.96003653177E+02 -0.21609226933E+02 -0.25963444235E+03  0.27765752964E+03  0.00000000000E+00 0. -1.
         13    1    3    3    0    0 -0.17845416361E+02  0.45619092838E+02 -0.11106497512E+03  0.12138776386E+03  0.00000000000E+00 0.  1.
          1    1    1    2  501    0  0.82173410874E+01 -0.57453095351E+02  0.18540623268E+02  0.60927313835E+02  0.00000000000E+00 0. -1.
<scales pt_clust_5="13000.00000" pt_clust_6="13000.00000" pt_clust_7="13000.00000" pt_clust_8="13000.00000" pt_clust_9="58.03777"></scales>
<clustering>
<clus scale="   58.038">  1  9  2 -1</clus>
<clus scale="   81.711">  5  6 -1 -1</clus>
<clus scale="   91.000">  7  8 -1 -1</clus>
<clus scale="  137.654">  1  5  2 -1</clus>
<clus scale="   58.038">  1  5  2 -1</clus>
</clustering>
</event>
<event>
 9    2  0.1488992E-004  0.1379835E+03  0.7546771E-02  0.1235167E+00
         21   -1    0    0  501  502  0.00000000000E+00  0.00000000000E+00  0.34973211944E+03  0.34973211944E+03  0.00000000000E+00 0.  1.
         -1   -1    0    0    0  501 -0.00000000000E+00 -0.00000000000E+00 -0.13018285724E+03  0.13018285724E+03  0.00000000000E+00 0.  1.
         23    2    1    2    0    0  0.23713664444E+02 -0.68269608164E+01 -0.46637798773E+02  0.10381108091E+03  0.89401962898E+02 0.  0.
         24    2    1    2    0    0  0.95430977747E+02  0.43800744954E+02  0.18488562823E+03  0.22719980099E+03  0.80071700806E+02 0.  0.
        -13    1    4    4    0    0  0.61435552379E+02  0.46041460698E+02  0.17596224098E+03  0.19198138829E+03  0.00000000000E+00 0.  1.
         14    1    4    4    0    0  0.33995425368E+02 -0.22407157440E+01  0.89233872548E+01  0.35218412700E+02  0.00000000000E+00 0. -1.
        -13    1    3    3    0    0  0.48271001093E+02  0.68982525163E+01 -0.55913340074E+02  0.74188793174E+02  0.00000000000E+00 0.  1.
         13    1    3    3    0    0 -0.24557336649E+02 -0.13725213333E+02  0.92755413011E+01  0.29622287737E+02  0.00000000000E+00 0. -1.
         -2    1    1    2    0  502 -0.11914464219E+03 -0.36973784138E+02  0.81301432741E+02  0.14890409478E+03  0.00000000000E+00 0.  1.
<scales pt_clust_5="13000.00000" pt_clust_6="13000.00000" pt_clust_7="13000.00000" pt_clust_8="13000.00000" pt_clust_9="112.37425"></scales>
<clustering>
<clus scale="   80.072">  5  6 -1 -1</clus>
<clus scale="   89.402">  7  8 -1 -1</clus>
<clus scale="   92.745">  2  7  1 -1</clus>
<clus scale="  112.374">  1  9  2 -1</clus>
<clus scale="  112.374">  1  5  2 -1</clus>
</clustering>
</event>
<event>
 9    2  0.1488992E-004  0.1472645E+03  0.7546771E-02  0.1231133E+00
         -1   -1    0    0    0  501 -0.00000000000E+00  0.00000000000E+00  0.60505692386E+03  0.60505692386E+03  0.00000000000E+00 0.  1.
         21   -1    0    0  501  502  0.00000000000E+00 -0.00000000000E+00 -0.58776703649E+02  0.58776703649E+02  0.00000000000E+00 0.  1.
         24    2    1    2    0    0 -0.96370391478E+01 -0.23628810286E+02  0.75511290101E+02  0.11212222968E+03  0.78855857472E+02 0.  0.
         23    2    1    2    0    0  0.11982623955E+03  0.45269502349E+02  0.36551185577E+03  0.39779898398E+03  0.90760450723E+02 0.  0.
        -13    1    3    3    0    0  0.32231600783E+01 -0.48729156208E+02  0.26465852076E+02  0.55546023726E+02  0.00000000000E+00 0.  1.
         14    1    3    3    0    0 -0.12860199226E+02  0.25100345922E+02  0.49045438026E+02  0.56576205958E+02  0.00000000000E+00 0. -1.
        -11    1    4    4    0    0  0.22053083986E+02 -0.27308425909E+02  0.75465579433E+02  0.83229455832E+02  0.00000000000E+00 0. -1.
         11    1    4    4    0    0  0.97773155565E+02  0.72577928258E+02  0.29004627634E+03  0.31456952815E+03  0.00000000000E+00 0.  1.
         -2    1    1    2    0  502 -0.11018920040E+03 -0.21640692063E+02  0.10525707434E+03  0.15391241385E+03  0.00000000000E+00 0.  1.
<scales pt_clust_5="13000.00000" pt_clust_6="13000.00000" pt_clust_7="13000.00000" pt_clust_8="13000.00000" pt_clust_9="115.97138"></scales>
<clustering>
<clus scale="   78.856">  5  6 -1 -1</clus>
<clus scale="   82.882">  1  5  2 -1</clus>
<clus scale="   90.760">  7  8 -1 -1</clus>
<clus scale="  115.971">  2  9  1 -1</clus>
<clus scale="  115.971">  2  5  1 -1</clus>
</clustering>
</event>
<event>
 9    2  0.1488992E-004  0.1202751E+03  0.7546771E-02  0.1245813E+00
          2   -1    0    0  502    0 -0.00000000000E+00  0.00000000000E+00  0.10685212407E+03  0.10685212407E+03  0.00000000000E+00 0. -1.
         21   -1    0    0  501  502  0.00000000000E+00 -0.00000000000E+00 -0.23704595055E+03  0.23704595055E+03  0.00000000000E+00 0. -1.
         24    2    1    2    0    0  0.70741009668E+02 -0.65390738806E+00 -0.13532233466E+02  0.10728189610E+03  0.79508275319E+02 0.  0.
         23    2    1    2    0    0 -0.10571300106E+03  0.33739568344E+01 -0.13790532199E+03  0.19560721764E+03  0.89764600937E+02 0.  0.
        -11    1    3    3    0    0  0.16893928281E+02  0.36357767253E+02  0.19278675776E+01  0.40137373180E+02  0.00000000000E+00 0.  1.
         12    1    3    3    0    0  0.53847081387E+02 -0.37011674641E+02 -0.15460101044E+02  0.67144522918E+02  0.00000000000E+00 0. -1.
        -13    1    4    4    0    0 -0.11277904974E+03 -0.19440300850E+02 -0.11944462900E+03  0.16542085344E+03  0.00000000000E+00 0. -1.
         13    1    4    4    0    0  0.70660486800E+01  0.22814257684E+02 -0.18460692999E+02  0.30186364200E+02  0.00000000000E+00 0.  1.
          1    1    1    2  501    0  0.34971991395E+02 -0.27200494464E+01  0.21243728979E+02  0.41008960875E+02  0.00000000000E+00 0. -1.
<scales pt_clust_5="13000.00000" pt_clust_6="13000.00000" pt_clust_7="13000.00000" pt_clust_8="13000.00000" pt_clust_9="35.07763"></scales>
<clustering>
<clus scale="   35.078">  2  9  1 -1</clus>
<clus scale="   79.508">  5  6 -1 -1</clus>
<clus scale="   89.765">  7  8 -1 -1</clus>
<clus scale="  112.827">  1  5  2 -1</clus>
<clus scale="   35.078">  2  5  1 -1</clus>
</clustering>
</event>
<event>
 9    2  0.1488992E-004  0.3108783E+03  0.7546771E-02  0.1101157E+00
         21   -1    0    0  501  502  0.00000000000E+00  0.00000000000E+00  0.30827938657E+03  0.30827938657E+03  0.00000000000E+00 0. -1.
          2   -1    0    0  502    0 -0.00000000000E+00 -0.00000000000E+00 -0.12823037217E+04  0.12823037217E+04  0.00000000000E+00 0. -1.
         23    2    1    2    0    0  0.12455054168E+03 -0.93263001014E+02 -0.31266996356E+03  0.35951278291E+03  0.85300118276E+02 0.  0.
         24    2    1    2    0    0  0.27941967952E+03 -0.75200224561E+02  0.13235730623E+03  0.32467635723E+03  0.64543391292E+02 0.  0.
        -11    1    4    4    0    0  0.69037391353E+02 -0.48473946993E+02  0.35142464150E+02  0.91383137003E+02  0.00000000000E+00 0.  1.
         12    1    4    4    0    0  0.21038228816E+03 -0.26726277568E+02  0.97214842079E+02  0.23329322023E+03  0.00000000000E+00 0. -1.
        -11    1    3    3    0    0  0.55092100895E+02 -0.92848517959E+02 -0.18742732194E+03  0.21629837696E+03  0.00000000000E+00 0.  1.
         11    1    3    3    0    0  0.69458440784E+02 -0.41448305499E+00 -0.12524264162E+03  0.14321440595E+03  0.00000000000E+00 0. -1.
          1    1    1    2  501    0 -0.40397022119E+03  0.16846322558E+03 -0.79371167780E+03  0.90639396813E+03  0.00000000000E+00 0. -1.
<scales pt_clust_5="13000.00000" pt_clust_6="13000.00000" pt_clust_7="13000.00000" pt_clust_8="13000.00000" pt_clust_9="304.10456"></scales>
<clustering>
<clus scale="   64.543">  5  6 -1 -1</clus>
<clus scale="   85.300">  7  8 -1 -1</clus>
<clus scale="  177.446">  2  7  1 -1</clus>
<clus scale="  304.105">  1  9  2 -1</clus>
<clus scale="  304.105">  1  5  2 -1</clus>
</clustering>
</event>
<event>
 9    2  0.1488992E-004  0.1581647E+03  0.7546771E-02  0.1199421E+00
         21   -1    0    0  501  502  0.00000000000E+00  0.00000000000E+00  0.25363266236E+03  0.25363266236E+03  0.00000000000E+00 0.  1.
          2   -1    0    0  502    0 -0.00000000000E+00 -0.00000000000E+00 -0.51180103364E+03  0.51180103364E+03  0.00000000000E+00 0. -1.
         24    2    1    2    0    0 -0.27938737586E+02 -0.99838588756E+02  0.40289040348E+02  0.13696675930E+03  0.79927276428E+02 0.  0.
         23    2    1    2    0    0  0.95226909316E+02 -0.17310516548E+02 -0.42404236456E+03  0.44401317195E+03  0.89263383728E+02 0.  0.
        -11    1    3    3    0    0  0.56794718493E+01 -0.95808766049E+02  0.21928753097E+02  0.98450222268E+02  0.00000000000E+00 0.  1.
         12    1    3    3    0    0 -0.33618209435E+02 -0.40298227072E+01  0.18360287251E+02  0.38516537028E+02  0.00000000000E+00 0. -1.
        -11    1    4    4    0    0  0.65083841603E+02  0.30388653272E+02 -0.28604587192E+03  0.29492646122E+03  0.00000000000E+00 0. -1.
         11    1    4    4    0    0  0.30143067714E+02 -0.47699169820E+02 -0.13799649265E+03  0.14908671073E+03  0.00000000000E+00 0.  1.
          1    1    1    2  501    0 -0.67288171730E+02  0.11714910530E+03  0.12558495293E+03  0.18445376475E+03  0.00000000000E+00 0. -1.
<scales pt_clust_5="13000.00000" pt_clust_6="13000.00000" pt_clust_7="13000.00000" pt_clust_8="13000.00000" pt_clust_9="130.56850"></scales>
<clustering>
<clus scale="   79.927">  5  6 -1 -1</clus>
<clus scale="   89.263">  7  8 -1 -1</clus>
<clus scale="  130.907">  2  5  1 -1</clus>
<clus scale="  130.568">  1  9  2 -1</clus>
<clus scale="  130.568">  1  5  2 -1</clus>
</clustering>
</event>
<event>
 9    2  0.1488992E-004  0.2044833E+03  0.7546771E-02  0.1185553E+00
         -1   -1    0    0    0  501 -0.00000000000E+00  0.00000000000E+00  0.23886695012E+03  0.23886695012E+03  0.00000000000E+00 0.  1.
         21   -1    0    0  501  502  0.00000000000E+00 -0.00000000000E+00 -0.23771878338E+03  0.23771878338E+03  0.00000000000E+00 0.  1.
         24    2    1    2    0    0 -0.18165495442E+02 -0.13910558248E+02  0.28250990847E+02  0.86910247371E+02  0.78941647809E+02 0.  0.
         23    2    1    2    0    0  0.63545660308E+01 -0.17508352435E+03 -0.25783012110E+02  0.20030810981E+03  0.93615992948E+02 0.  0.
        -11    1    3    3    0    0  0.68352831355E+01 -0.30559055260E+02  0.43202754792E+02  0.53357801449E+02  0.00000000000E+00 0.  1.
         12    1    3    3    0    0 -0.25000778578E+02  0.16648497012E+02 -0.14951763945E+02  0.33552445922E+02  0.00000000000E+00 0. -1.
        -13    1    4    4    0    0 -0.21674642379E+02 -0.35874936700E+00 -0.32795070829E+01  0.21924278553E+02  0.00000000000E+00 0. -1.
         13    1    4    4    0    0  0.28029208410E+02 -0.17472477498E+03 -0.22503505028E+02  0.17838383126E+03  0.00000000000E+00 0.  1.
         -2    1    1    2    0  502  0.11810929412E+02  0.18899408260E+03 -0.13198120031E+01  0.18936737632E+03  0.00000000000E+00 0.  1.
<scales pt_clust_5="13000.00000" pt_clust_6="13000.00000" pt_clust_7="13000.00000" pt_clust_8="13000.00000" pt_clust_9="181.79519"></scales>
<clustering>
<clus scale="   78.942">  5  6 -1 -1</clus>
<clus scale="   82.190">  1  5  2 -1</clus>
<clus scale="   93.616">  7  8 -1 -1</clus>
<clus scale="  181.795">  2  9  1 -1</clus>
<clus scale="  181.795">  2  5  1 -1</clus>
</clustering>
</event>
<event>
 9    2  0.1488992E-004  0.8268694E+02  0.7546771E-02  0.1323361E+00
         21   -1    0    0  501  502  0.00000000000E+00  0.00000000000E+00  0.28672882841E+03  0.28672882841E+03  0.00000000000E+00 0. -1.
          2   -1    0    0  502    0 -0.00000000000E+00 -0.00000000000E+00 -0.28880102762E+03  0.28880102762E+03  0.00000000000E+00 0. -1.
         23    2    1    2    0    0  0.32463747454E+01  0.98244953377E+01 -0.21623233005E+03  0.23166756758E+03  0.82500797892E+02 0.  0.
         24    2    1    2    0    0 -0.15234171874E+02  0.39456776880E+02 -0.29386694608E+02  0.95090490892E+02  0.79935639133E+02 0.  0.
        -11    1    4    4    0    0 -0.33872611230E+02 -0.37611815437E+01  0.79712220604E+01  0.35000580842E+02  0.00000000000E+00 0.  1.
         12    1    4    4    0    0  0.18638439357E+02  0.43217958424E+02 -0.37357916668E+02  0.60089910050E+02  0.00000000000E+00 0. -1.
        -11    1    3    3    0    0 -0.43277860849E+01 -0.33823364774E+02 -0.57318659903E+02  0.66694666279E+02  0.00000000000E+00 0.  1.
         11    1    3    3    0    0  0.75741608303E+01  0.43647860112E+02 -0.15891367015E+03  0.16497290130E+03  0.00000000000E+00 0. -1.
          1    1    1    2  501    0  0.11987797128E+02 -0.49281272218E+02  0.24354682545E+03  0.24877179755E+03  0.00000000000E+00 0. -1.
<scales pt_clust_5="13000.00000" pt_clust_6="13000.00000" pt_clust_7="13000.00000" pt_clust_8="13000.00000" pt_clust_9="50.71835"></scales>
<clustering>
<clus scale="   50.718">  1  9  2 -1</clus>
<clus scale="   79.936">  5  6 -1 -1</clus>
<clus scale="   80.128">  1  5  2 -1</clus>
<clus scale="   82.501">  7  8 -1 -1</clus>
<clus scale="   50.718">  1  5  2 -1</clus>
</clustering>
</event>
<event>
 9    2  0.1488992E-004  0.1113352E+03  0.7546771E-02  0.1263266E+00
          2   -1    0    0  502    0 -0.00000000000E+00  0.00000000000E+00  0.15161923788E+03  0.15161923788E+03  0.00000000000E+00 0. -1.
         21   -1    0    0  501  502  0.00000000000E+00 -0.00000000000E+00 -0.30566243618E+03  0.30566243618E+03  0.00000000000E+00 0. -1.
         24    2    1    2    0    0 -0.53460404732E+02  0.27017279679E+02  0.68302164607E+02  0.12159373269E+03  0.80820182286E+02 0.  0.
         23    2    1    2    0    0  0.30304701956E+02 -0.70115574886E+02 -0.25125272036E+03  0.27886114368E+03  0.93813853795E+02 0.  0.
        -13    1    3    3    0    0 -0.24342778057E+01  0.23585834082E+02 -0.11856560621E+02  0.26510286825E+02  0.00000000000E+00 0.  1.
         14    1    3    3    0    0 -0.51026126926E+02  0.34314455973E+01  0.80158725228E+02  0.95083445868E+02  0.00000000000E+00 0. -1.
        -13    1    4    4    0    0  0.50865289371E+02 -0.20887598717E+02 -0.18919753561E+03  0.19702608184E+03  0.00000000000E+00 0. -1.
         13    1    4    4    0    0 -0.20560587415E+02 -0.49227976169E+02 -0.62055184750E+02  0.81835061843E+02  0.00000000000E+00 0.  1.
          1    1    1    2  501    0  0.23155702776E+02  0.43098295206E+02  0.28907357459E+02  0.56826797692E+02  0.00000000000E+00 0. -1.
<scales pt_clust_5="13000.00000" pt_clust_6="13000.00000" pt_clust_7="13000.00000" pt_clust_8="13000.00000" pt_clust_9="48.92496"></scales>
<clustering>
<clus scale="   48.925">  2  9  1 -1</clus>
<clus scale="   80.820">  5  6 -1 -1</clus>
<clus scale="   93.814">  7  8 -1 -1</clus>
<clus scale="  100.630">  1  5  2 -1</clus>
<clus scale="   48.925">  2  5  1 -1</clus>
</clustering>
</event>
<event>
 9    2  0.1488992E-004  0.1330008E+03  0.7546771E-02  0.1245284E+00
          2   -1    0    0  502    0 -0.00000000000E+00  0.00000000000E+00  0.84216852412E+03  0.84216852412E+03  0.00000000000E+00 0. -1.
         21   -1    0    0  501  502  0.00000000000E+00 -0.00000000000E+00 -0.66641489304E+02  0.66641489304E+02  0.00000000000E+00 0.  1.
         24    2    1    2    0    0 -0.19073992662E+02  0.16983225172E+02 -0.14269600014E+02  0.85533291867E+02  0.80374594243E+02 0.  0.
         23    2    1    2    0    0  0.73508145238E+02  0.65147070658E+02  0.43100076755E+03  0.45119751381E+03  0.90387756959E+02 0.  0.
        -11    1    3    3    0    0  0.24932653222E+02 -0.87463852604E+01 -0.21476896990E+02  0.34049868665E+02  0.00000000000E+00 0.  1.
         12    1    3    3    0    0 -0.44006645883E+02  0.25729610432E+02  0.72072969763E+01  0.51483423202E+02  0.00000000000E+00 0. -1.
        -13    1    4    4    0    0  0.34934199571E+02 -0.18650652611E+02  0.16385491637E+03  0.16857247332E+03  0.00000000000E+00 0.  1.
         13    1    4    4    0    0  0.38573945667E+02  0.83797723269E+02  0.26714585118E+03  0.28262504049E+03  0.00000000000E+00 0. -1.
          1    1    1    2  501    0 -0.54434152576E+02 -0.82130295830E+02  0.35879586728E+03  0.37207920775E+03  0.00000000000E+00 0. -1.
<scales pt_clust_5="13000.00000" pt_clust_6="13000.00000" pt_clust_7="13000.00000" pt_clust_8="13000.00000" pt_clust_9="97.56671"></scales>
<clustering>
<clus scale="   80.375">  5  6 -1 -1</clus>
<clus scale="   84.335">  1  5  2 -1</clus>
<clus scale="   90.388">  7  8 -1 -1</clus>
<clus scale="   97.567">  2  9  1 -1</clus>
<clus scale="   97.567">  2  5  1 -1</clus>
</clustering>
</event>
<event>
 9    2  0.1488992E-004  0.1638374E+03  0.7546771E-02  0.1198522E+00
         21   -1    0    0  501  502  0.00000000000E+00  0.00000000000E+00  0.11912495456E+03  0.11912495456E+03  0.00000000000E+00 0.  1.
          2   -1    0    0  502    0 -0.00000000000E+00 -0.00000000000E+00 -0.56198361154E+03  0.56198361154E+03  0.00000000000E+00 0. -1.
         23    2    1    2    0    0  0.60295667795E+02  0.47968196471E+02 -0.17489829771E+03  0.21216364900E+03  0.92127541965E+02 0.  0.
         24    2    1    2    0    0 -0.13053150886E+03  0.64930952712E+02  0.40408947133E+00  0.16944739023E+03  0.86358273165E+02 0.  0.
        -13    1    4    4    0    0  0.29538656048E+01  0.29629987430E+02 -0.88476192791E+01  0.31063513066E+02  0.00000000000E+00 0.  1.
         14    1    4    4    0    0 -0.13348537446E+03  0.35300965282E+02  0.92517087504E+01  0.13838387717E+03  0.00000000000E+00 0. -1.
        -13    1    3    3    0    0 -0.18582598829E+02  0.33870490388E+02 -0.72393298753E+02  0.82056765734E+02  0.00000000000E+00 0. -1.
         13    1    3    3    0    0  0.78878266625E+02  0.14097706082E+02 -0.10250499895E+03  0.13010688326E+03  0.00000000000E+00 0.  1.
          1    1    1    2  501    0  0.70235841061E+02 -0.11289914918E+03 -0.26836444874E+03  0.29949752688E+03  0.00000000000E+00 0. -1.
<scales pt_clust_5="13000.00000" pt_clust_6="13000.00000" pt_clust_7="13000.00000" pt_clust_8="13000.00000" pt_clust_9="139.22989"></scales>
<clustering>
<clus scale="   86.358">  5  6 -1 -1</clus>
<clus scale="   92.128">  7  8 -1 -1</clus>
<clus scale="  120.100">  2  7  1 -1</clus>
<clus scale="  139.230">  1  9  2 -1</clus>
<clus scale="  139.230">  1  5  2 -1</clus>
</clustering>
</event>
<event>
 9    2  0.1488992E-004  0.3919387E+03  0.7546771E-02  0.1094261E+00
         21   -1    0    0  501  502  0.00000000000E+00  0.00000000000E+00  0.95336813758E+02  0.95336813758E+02  0.00000000000E+00 0. -1.
          2   -1    0    0  502    0 -0.00000000000E+00 -0.00000000000E+00 -0.23493329927E+04  0.23493329927E+04  0.00000000000E+00 0. -1.
         24    2    1    2    0    0  0.68541793860E+02 -0.51841848251E+01 -0.45364948267E+03  0.46586404275E+03  0.80663498081E+02 0.  0.
         23    2    1    2    0    0  0.11798232117E+03 -0.35247503399E+03 -0.59092565367E+03  0.70388983684E+03  0.90051632638E+02 0.  0.
        -11    1    3    3    0    0  0.35443641778E+02  0.98536290626E+01 -0.58903603170E+02  0.69447679692E+02  0.00000000000E+00 0.  1.
         12    1    3    3    0    0  0.33098152082E+02 -0.15037813888E+02 -0.39474587950E+03  0.39641636306E+03  0.00000000000E+00 0. -1.
        -11    1    4    4    0    0  0.30193396646E+02 -0.11858750891E+03 -0.12330316662E+03  0.17371905299E+03  0.00000000000E+00 0.  1.
         11    1    4    4    0    0  0.87788924522E+02 -0.23388752508E+03 -0.46762248704E+03  0.53017078385E+03  0.00000000000E+00 0. -1.
          1    1    1    2  501    0 -0.18652411503E+03  0.35765921882E+03 -0.12094210426E+04  0.12749159268E+04  0.00000000000E+00 0. -1.
<scales pt_clust_5="13000.00000" pt_clust_6="13000.00000" pt_clust_7="13000.00000" pt_clust_8="13000.00000" pt_clust_9="381.45348"></scales>
<clustering>
<clus scale="   80.663">  5  6 -1 -1</clus>
<clus scale="   90.052">  7  8 -1 -1</clus>
<clus scale="  105.979">  2  5  1 -1</clus>
<clus scale="  381.453">  1  9  2 -1</clus>
<clus scale="  381.453">  1  5  2 -1</clus>
</clustering>
</event>
<event>
 9    2  0.1488992E-004  0.2278582E+03  0.7546771E-02  0.1150188E+00
         21   -1    0    0  501  502  0.00000000000E+00  0.00000000000E+00  0.47975139199E+03  0.47975139199E+03  0.00000000000E+00 0. -1.
          2   -1    0    0  502    0 -0.00000000000E+00 -0.00000000000E+00 -0.33777394342E+03  0.33777394342E+03  0.00000000000E+00 0. -1.
         24    2    1    2    0    0  0.66237489541E+02  0.83313313984E+02 -0.20810364239E+03  0.24741441081E+03  0.81106420168E+02 0.  0.
         23    2    1    2    0    0 -0.12685794194E+03  0.14494005362E+03  0.15943474913E+03  0.26659738830E+03  0.92488764945E+02 0.  0.
        -13    1    3    3    0    0  0.22792487389E+02  0.83152203892E+02 -0.10730941729E+03  0.13765572103E+03  0.00000000000E+00 0.  1.
         14    1    3    3    0    0  0.43445002152E+02  0.16111009201E+00 -0.10079422509E+03  0.10975868977E+03  0.00000000000E+00 0. -1.
        -11    1    4    4    0    0 -0.48299252528E+02  0.11438189824E+02  0.75676368583E+02  0.90501727846E+02  0.00000000000E+00 0.  1.
         11    1    4    4    0    0 -0.78558689415E+02  0.13350186379E+03  0.83758380551E+02  0.17609566045E+03  0.00000000000E+00 0. -1.
          1    1    1    2  501    0  0.60620452402E+02 -0.22825336760E+03  0.19064634183E+03  0.30351353631E+03  0.00000000000E+00 0. -1.
<scales pt_clust_5="13000.00000" pt_clust_6="13000.00000" pt_clust_7="13000.00000" pt_clust_8="13000.00000" pt_clust_9="208.24323"></scales>
<clustering>
<clus scale="   81.106">  5  6 -1 -1</clus>
<clus scale="   92.489">  7  8 -1 -1</clus>
<clus scale="  133.816">  2  5  1 -1</clus>
<clus scale="  208.243">  1  9  2 -1</clus>
<clus scale="  208.243">  1  5  2 -1</clus>
</clustering>
</event>
<event>
 9    2  0.1488992E-004  0.1283832E+03  0.7546771E-02  0.1232681E+00
          2   -1    0    0  502    0 -0.00000000000E+00  0.00000000000E+00  0.65267648468E+03  0.65267648468E+03  0.00000000000E+00 0. -1.
         21   -1    0    0  501  502  0.00000000000E+00 -0.00000000000E+00 -0.10415430451E+03  0.10415430451E+03  0.00000000000E+00 0.  1.
         24    2    1    2    0    0 -0.90830111130E+02 -0.27990449895E+02  0.55031281664E+03  0.56425176371E+03  0.80636730629E+02 0.  0.
         23    2    1    2    0    0  0.57566361578E+02 -0.38131189417E+02 -0.20700699244E+02  0.11618440071E+03  0.91117629613E+02 0.  0.
        -11    1    3    3    0    0 -0.77016791077E+02 -0.54418867101E+02  0.39488821902E+03  0.40599224712E+03  0.00000000000E+00 0.  1.
         12    1    3    3    0    0 -0.13813320054E+02  0.26428417206E+02  0.15542459762E+03  0.15825951659E+03  0.00000000000E+00 0. -1.
        -13    1    4    4    0    0  0.78301602126E+02 -0.14987722120E+02 -0.16586848631E+01  0.79740353306E+02  0.00000000000E+00 0.  1.
         13    1    4    4    0    0 -0.20735240549E+02 -0.23143467298E+02 -0.19042014381E+02  0.36444047399E+02  0.00000000000E+00 0. -1.
          1    1    1    2  501    0  0.33263749553E+02  0.66121639313E+02  0.18910062781E+02  0.76394624772E+02  0.00000000000E+00 0. -1.
<scales pt_clust_5="13000.00000" pt_clust_6="13000.00000" pt_clust_7="13000.00000" pt_clust_8="13000.00000" pt_clust_9="74.01722"></scales>
<clustering>
<clus scale="   74.017">  2  9  1 -1</clus>
<clus scale="   80.637">  5  6 -1 -1</clus>
<clus scale="   91.118">  7  8 -1 -1</clus>
<clus scale="  121.170">  1  5  2 -1</clus>
<clus scale="   74.017">  2  5  1 -1</clus>
</clustering>
</event>
<event>
 9    2  0.1488992E-004  0.1232184E+03  0.7546771E-02  0.1239088E+00
         -3   -1    0    0    0  501 -0.00000000000E+00  0.00000000000E+00  0.34352008827E+02  0.34352008827E+02  0.00000000000E+00 0.  1.
         21   -1    0    0  501  502  0.00000000000E+00 -0.00000000000E+00 -0.11172396659E+04  0.11172396659E+04  0.00000000000E+00 0.  1.
         23    2    1    2    0    0  0.43520722829E+02 -0.62992675420E+02 -0.30510228277E+03  0.32827487618E+03  0.93887490713E+02 0.  0.
         24    2    1    2    0    0  0.71207190685E+02  0.98934639038E+02 -0.36580639465E+03  0.39415366107E+03  0.81757344382E+02 0.  0.
        -13    1    4    4    0    0  0.87775393534E+02  0.95199504842E+02 -0.31470719295E+03  0.34030586643E+03  0.00000000000E+00 0.  1.
         14    1    4    4    0    0 -0.16568202848E+02  0.37351341954E+01 -0.51099201702E+02  0.53847794641E+02  0.00000000000E+00 0. -1.
        -13    1    3    3    0    0  0.65041431319E+01  0.21244045366E+02 -0.24992339245E+02  0.33439951590E+02  0.00000000000E+00 0. -1.
         13    1    3    3    0    0  0.37016579697E+02 -0.84236720786E+02 -0.28010994352E+03  0.29483492459E+03  0.00000000000E+00 0.  1.
         -4    1    1    2    0  502 -0.11472791351E+03 -0.35941963617E+02 -0.41197897968E+03  0.42916313750E+03  0.00000000000E+00 0.  1.
<scales pt_clust_5="13000.00000" pt_clust_6="13000.00000" pt_clust_7="13000.00000" pt_clust_8="13000.00000" pt_clust_9="120.22612"></scales>
<clustering>
<clus scale="   81.757">  5  6 -1 -1</clus>
<clus scale="   93.887">  7  8 -1 -1</clus>
<clus scale="  120.226">  2  9  1 -1</clus>
<clus scale="  120.226">  2  5  1 -1</clus>
<clus scale="  120.226">  2  5  1 -1</clus>
</clustering>
</event>
<event>
 9    2  0.1488992E-004  0.1722306E+03  0.7546771E-02  0.1175714E+00
         -3   -1    0    0    0  501 -0.00000000000E+00  0.00000000000E+00  0.58979255082E+03  0.58979255082E+03  0.00000000000E+00 0.  1.
         21   -1    0    0  501  502  0.00000000000E+00 -0.00000000000E+00 -0.19485785847E+03  0.19485785847E+03  0.00000000000E+00 0.  1.
         23    2    1    2    0    0  0.11504293828E+03  0.40345781636E+02  0.87871849158E+02  0.17350802735E+03  0.86723202993E+02 0.  0.
         24    2    1    2    0    0 -0.24007838906E+03 -0.23860531652E+02 -0.23829178118E+02  0.25703059566E+03  0.85381142600E+02 0.  0.
        -13    1    4    4    0    0 -0.24282352054E+03 -0.30166687212E+02 -0.31521205551E+02  0.24671213498E+03  0.00000000000E+00 0.  1.
         14    1    4    4    0    0  0.27451314836E+01  0.63061555599E+01  0.76920274335E+01  0.10318460682E+02  0.00000000000E+00 0. -1.
        -13    1    3    3    0    0  0.33193518634E+02 -0.26358239336E+02  0.37182105460E+02  0.56383290314E+02  0.00000000000E+00 0. -1.
         13    1    3    3    0    0  0.81849419643E+02  0.66704020972E+02  0.50689743698E+02  0.11712473704E+03  0.00000000000E+00 0.  1.
         -4    1    1    2    0  502  0.12503545078E+03 -0.16485249984E+02  0.33089202131E+03  0.35411178629E+03  0.00000000000E+00 0.  1.
<scales pt_clust_5="13000.00000" pt_clust_6="13000.00000" pt_clust_7="13000.00000" pt_clust_8="13000.00000" pt_clust_9="126.11758"></scales>
<clustering>
<clus scale="   85.381">  5  6 -1 -1</clus>
<clus scale="   86.723">  7  8 -1 -1</clus>
<clus scale="  126.118">  2  9  1 -1</clus>
<clus scale="  171.559">  2  5  1 -1</clus>
<clus scale="  126.118">  2  5  1 -1</clus>
</clustering>
</event>
<event>
 9    2  0.1488992E-004  0.1319431E+03  0.7546771E-02  0.1241786E+00
         -1   -1    0    0    0  501 -0.00000000000E+00  0.00000000000E+00  0.21926343478E+03  0.21926343478E+03  0.00000000000E+00 0.  1.
         21   -1    0    0  501  502  0.00000000000E+00 -0.00000000000E+00 -0.30656572571E+03  0.30656572571E+03  0.00000000000E+00 0.  1.
         24    2    1    2    0    0 -0.11479596372E+02 -0.41900901661E+02  0.15258947450E+03  0.17854068231E+03  0.81888709963E+02 0.  0.
         23    2    1    2    0    0  0.78120211010E+02 -0.34127991192E+02 -0.54098094705E+02  0.13576861588E+03  0.90769080946E+02 0.  0.
        -11    1    3    3    0    0  0.26220255493E+02 -0.43919791950E+02  0.11188417850E+03  0.12302243422E+03  0.00000000000E+00 0.  1.
         12    1    3    3    0    0 -0.37699851865E+02  0.20188902889E+01  0.40705295998E+02  0.55518248090E+02  0.00000000000E+00 0. -1.
        -11    1    4    4    0    0  0.42990905995E+02  0.29281537018E+02 -0.21424495614E+02  0.56255092398E+02  0.00000000000E+00 0. -1.
         11    1    4    4    0    0  0.35129305015E+02 -0.63409528210E+02 -0.32673599091E+02  0.79513523480E+02  0.00000000000E+00 0.  1.
         -2    1    1    2    0  502 -0.66640614638E+02  0.76028892853E+02 -0.18579367073E+03  0.21151986231E+03  0.00000000000E+00 0.  1.
<scales pt_clust_5="13000.00000" pt_clust_6="13000.00000" pt_clust_7="13000.00000" pt_clust_8="13000.00000" pt_clust_9="95.75989"></scales>
<clustering>
<clus scale="   81.889">  5  6 -1 -1</clus>
<clus scale="   90.769">  7  8 -1 -1</clus>
<clus scale="   92.700">  1  5  2 -1</clus>
<clus scale="   95.760">  2  9  1 -1</clus>
<clus scale="   95.760">  2  5  1 -1</clus>
</clustering>
</event>
<event>
 9    2  0.5029276E-004  0.1309116E+03  0.7546771E-02  0.1246641E+00
         21   -1    0    0  501  502  0.00000000000E+00  0.00000000000E+00  0.19773948464E+03  0.19773948464E+03  0.00000000000E+00 0.  1.
          2   -1    0    0  502    0 -0.00000000000E+00 -0.00000000000E+00 -0.98129599201E+03  0.98129599201E+03  0.00000000000E+00 0. -1.
         24    2    1    2    0    0  0.31225606879E+02  0.10628252737E+02 -0.18608018172E+03  0.20501598330E+03  0.79484093369E+02 0.  0.
         23    2    1    2    0    0  0.72889151306E+02 -0.54583808380E+02  0.16094717520E+03  0.20722214048E+03  0.93513644909E+02 0.  0.
        -11    1    3    3    0    0 -0.19975766726E+02  0.23169025334E+02 -0.45041738400E+02  0.54448077921E+02  0.00000000000E+00 0.  1.
         12    1    3    3    0    0  0.51201373605E+02 -0.12540772597E+02 -0.14103844332E+03  0.15056790538E+03  0.00000000000E+00 0. -1.
        -11    1    4    4    0    0  0.65452431998E+02 -0.12238783069E+02  0.14805220472E+03  0.16233688425E+03  0.00000000000E+00 0.  1.
         11    1    4    4    0    0  0.74367193087E+01 -0.42345025311E+02  0.12894970473E+02  0.44885256222E+02  0.00000000000E+00 0. -1.
          1    1    1    2  501    0 -0.10411475819E+03  0.43955555643E+02 -0.75842350085E+03  0.76679735288E+03  0.00000000000E+00 0. -1.
<scales pt_clust_5="13000.00000" pt_clust_6="13000.00000" pt_clust_7="13000.00000" pt_clust_8="13000.00000" pt_clust_9="91.61358"></scales>
<clustering>
<clus scale="   79.484">  5  6 -1 -1</clus>
<clus scale="   86.056">  2  5  1 -1</clus>
<clus scale="   91.614">  1  9  2 -1</clus>
<clus scale="   93.514">  7  8 -1 -1</clus>
<clus scale="   91.614">  1  5  2 -1</clus>
</clustering>
</event>
<event>
 9    2  0.1488992E-004  0.1203004E+03  0.7546771E-02  0.1248160E+00
         21   -1    0    0  501  502  0.00000000000E+00  0.00000000000E+00  0.39364246684E+02  0.39364246684E+02  0.00000000000E+00 0. -1.
          2   -1    0    0  502    0 -0.00000000000E+00 -0.00000000000E+00 -0.80394093244E+03  0.80394093244E+03  0.00000000000E+00 0. -1.
         24    2    1    2    0    0  0.52610915878E+02  0.65180700651E+02 -0.39159477113E+03  0.40729638010E+03  0.74346783825E+02 0.  0.
         23    2    1    2    0    0 -0.70574867544E+02 -0.10539873214E+02 -0.89455576718E+02  0.14670703983E+03  0.91808248393E+02 0.  0.
        -11    1    3    3    0    0  0.65190056257E+02  0.68536760536E+02 -0.29411137205E+03  0.30894745532E+03  0.00000000000E+00 0.  1.
         12    1    3    3    0    0 -0.12579140379E+02 -0.33560598848E+01 -0.97483399073E+02  0.98348924781E+02  0.00000000000E+00 0. -1.
        -11    1    4    4    0    0 -0.40258088590E+02  0.40348947322E+02 -0.45921020381E+02  0.73194886158E+02  0.00000000000E+00 0.  1.
         11    1    4    4    0    0 -0.30316778954E+02 -0.50888820536E+02 -0.43534556337E+02  0.73512153670E+02  0.00000000000E+00 0. -1.
          1    1    1    2  501    0  0.17963951666E+02 -0.54640827437E+02 -0.28352633791E+03  0.28930175919E+03  0.00000000000E+00 0. -1.
<scales pt_clust_5="13000.00000" pt_clust_6="13000.00000" pt_clust_7="13000.00000" pt_clust_8="13000.00000" pt_clust_9="57.51806"></scales>
<clustering>
<clus scale="   57.518">  1  9  2 -1</clus>
<clus scale="   74.347">  5  6 -1 -1</clus>
<clus scale="   91.808">  7  8 -1 -1</clus>
<clus scale="  107.568">  2  5  1 -1</clus>
<clus scale="   57.518">  1  5  2 -1</clus>
</clustering>
</event>
<event>
 9    2  0.1488992E-004  0.1900718E+03  0.7546771E-02  0.1182049E+00
         21   -1    0    0  501  502  0.00000000000E+00  0.00000000000E+00  0.25018303343E+03  0.25018303343E+03  0.00000000000E+00 0. -1.
          2   -1    0    0  502    0 -0.00000000000E+00 -0.00000000000E+00 -0.28817806166E+03  0.28817806166E+03  0.00000000000E+00 0. -1.
         24    2    1    2    0    0  0.70191504838E+02  0.22758723608E+02  0.92107149414E+02  0.14398380882E+03  0.82479108740E+02 0.  0.
         23    2    1    2    0    0 -0.13867345721E+02 -0.17860459965E+03 -0.10552822797E+03  0.22685347607E+03  0.90743519967E+02 0.  0.
        -11    1    3    3    0    0  0.39497241710E+01 -0.27261330010E+02  0.25863587977E+02  0.37784991967E+02  0.00000000000E+00 0.  1.
         12    1    3    3    0    0  0.66241780667E+02  0.50020053618E+02  0.66243561437E+02  0.10619881686E+03  0.00000000000E+00 0. -1.
        -13    1    4    4    0    0  0.23101321368E+02 -0.82903651036E+01 -0.31968160550E+01  0.24751178465E+02  0.00000000000E+00 0.  1.
         13    1    4    4    0    0 -0.36968667089E+02 -0.17031423454E+03 -0.10233141192E+03  0.20210229761E+03  0.00000000000E+00 0. -1.
          1    1    1    2  501    0 -0.56324159117E+02  0.15584587604E+03 -0.24573949672E+02  0.16752381019E+03  0.00000000000E+00 0. -1.
<scales pt_clust_5="13000.00000" pt_clust_6="13000.00000" pt_clust_7="13000.00000" pt_clust_8="13000.00000" pt_clust_9="167.01168"></scales>
<clustering>
<clus scale="   82.479">  5  6 -1 -1</clus>
<clus scale="   90.744">  7  8 -1 -1</clus>
<clus scale="  110.669">  2  5  1 -1</clus>
<clus scale="  167.012">  1  9  2 -1</clus>
<clus scale="  167.012">  1  5  2 -1</clus>
</clustering>
</event>
<event>
 9    2  0.1488992E-004  0.9239608E+02  0.7546771E-02  0.1300411E+00
         -3   -1    0    0    0  501 -0.00000000000E+00  0.00000000000E+00  0.23213912007E+03  0.23213912007E+03  0.00000000000E+00 0.  1.
         21   -1    0    0  501  502  0.00000000000E+00 -0.00000000000E+00 -0.62866623267E+02  0.62866623267E+02  0.00000000000E+00 0.  1.
         23    2    1    2    0    0 -0.16214694668E+02 -0.36256622878E+02  0.14610951348E+03  0.17389281470E+03  0.85517612513E+02 0.  0.
         24    2    1    2    0    0 -0.15551420958E+02  0.29223091868E+02  0.18851717366E+02  0.88293061563E+02  0.79652003617E+02 0.  0.
        -13    1    4    4    0    0 -0.28273564518E+02  0.16266496412E+02 -0.24825617730E+02  0.40991519266E+02  0.00000000000E+00 0.  1.
         14    1    4    4    0    0  0.12722143560E+02  0.12956595457E+02  0.43677335096E+02  0.47301542297E+02  0.00000000000E+00 0. -1.
        -11    1    3    3    0    0  0.85593884628E+01 -0.26230014844E+02  0.14450827527E+03  0.14711872223E+03  0.00000000000E+00 0.  1.
         11    1    3    3    0    0 -0.24774083131E+02 -0.10026608034E+02  0.16012382065E+01  0.26774092467E+02  0.00000000000E+00 0. -1.
         -4    1    1    2    0  502  0.31766115626E+02  0.70335310096E+01  0.43112659579E+01  0.32819867072E+02  0.00000000000E+00 0.  1.
<scales pt_clust_5="13000.00000" pt_clust_6="13000.00000" pt_clust_7="13000.00000" pt_clust_8="13000.00000" pt_clust_9="32.53547"></scales>
<clustering>
<clus scale="   32.535">  2  9  1 -1</clus>
<clus scale="   79.652">  5  6 -1 -1</clus>
<clus scale="   85.518">  7  8 -1 -1</clus>
<clus scale="   86.995">  2  5  1 -1</clus>
<clus scale="   32.535">  2  5  1 -1</clus>
</clustering>
</event>
<event>
 9    2  0.1488992E-004  0.1037845E+03  0.7546771E-02  0.1281967E+00
         21   -1    0    0  501  502  0.00000000000E+00  0.00000000000E+00  0.97583239325E+02  0.97583239325E+02  0.00000000000E+00 0.  1.
         -1   -1    0    0    0  501 -0.00000000000E+00 -0.00000000000E+00 -0.65320672423E+03  0.65320672423E+03  0.00000000000E+00 0.  1.
         24    2    1    2    0    0 -0.40466767188E+02  0.50624141224E+01 -0.54329288543E+03  0.55052249057E+03  0.79023199004E+02 0.  0.
         23    2    1    2    0    0 -0.35029017363E+00  0.26037697279E+02 -0.70193851333E+02  0.12292792930E+03  0.97498793098E+02 0.  0.
        -11    1    3    3    0    0  0.27258561183E+01  0.35443710589E+02 -0.18873017752E+03  0.19204886571E+03  0.00000000000E+00 0.  1.
         12    1    3    3    0    0 -0.43192623306E+02 -0.30381296467E+02 -0.35456270790E+03  0.35847362486E+03  0.00000000000E+00 0. -1.
        -11    1    4    4    0    0 -0.25019373769E+02 -0.73684227691E+01 -0.76591455615E+02  0.80910529544E+02  0.00000000000E+00 0.  1.
         11    1    4    4    0    0  0.24669083596E+02  0.33406120048E+02  0.63976042825E+01  0.42017399761E+02  0.00000000000E+00 0. -1.
         -2    1    1    2    0  502  0.40817057362E+02 -0.31100111401E+02  0.57863251859E+02  0.77339543679E+02  0.00000000000E+00 0.  1.
<scales pt_clust_5="13000.00000" pt_clust_6="13000.00000" pt_clust_7="13000.00000" pt_clust_8="13000.00000" pt_clust_9="51.31519"></scales>
<clustering>
<clus scale="   51.315">  1  9  2 -1</clus>
<clus scale="   79.023">  5  6 -1 -1</clus>
<clus scale="   86.660">  2  5  1 -1</clus>
<clus scale="   97.499">  7  8 -1 -1</clus>
<clus scale="   51.315">  1  5  2 -1</clus>
</clustering>
</event>
<event>
 9    2  0.1488992E-004  0.1181827E+03  0.7546771E-02  0.1248345E+00
          2   -1    0    0  502    0 -0.00000000000E+00  0.00000000000E+00  0.12139174018E+04  0.12139174018E+04  0.00000000000E+00 0. -1.
         21   -1    0    0  501  502  0.00000000000E+00 -0.00000000000E+00 -0.19986721783E+02  0.19986721783E+02  0.00000000000E+00 0.  1.
         24    2    1    2    0    0  0.12476915253E+02  0.98262952217E+02  0.64094323702E+03  0.65349806628E+03  0.80250908776E+02 0.  0.
         23    2    1    2    0    0  0.33096791760E+02 -0.50092330053E+02  0.27762024674E+03  0.29716682205E+03  0.87352616290E+02 0.  0.
        -11    1    3    3    0    0 -0.21505248784E+02  0.34455183706E+02  0.10299588719E+03  0.11071489596E+03  0.00000000000E+00 0.  1.
         12    1    3    3    0    0  0.33982164037E+02  0.63807768512E+02  0.53794734983E+03  0.54278317032E+03  0.00000000000E+00 0. -1.
        -11    1    4    4    0    0  0.49117311064E+02 -0.17960390946E+02  0.75265178987E+02  0.91651148695E+02  0.00000000000E+00 0.  1.
         11    1    4    4    0    0 -0.16020519304E+02 -0.32131939108E+02  0.20235506776E+03  0.20551567336E+03  0.00000000000E+00 0. -1.
          1    1    1    2  501    0 -0.45573707013E+02 -0.48170622164E+02  0.27536719624E+03  0.28323923524E+03  0.00000000000E+00 0. -1.
<scales pt_clust_5="13000.00000" pt_clust_6="13000.00000" pt_clust_7="13000.00000" pt_clust_8="13000.00000" pt_clust_9="66.31271"></scales>
<clustering>
<clus scale="   66.313">  2  9  1 -1</clus>
<clus scale="   80.251">  5  6 -1 -1</clus>
<clus scale="   87.353">  7  8 -1 -1</clus>
<clus scale="  113.035">  1  5  2 -1</clus>
<clus scale="   66.313">  2  5  1 -1</clus>
</clustering>
</event>
<event>
 9    2  0.1488992E-004  0.2483805E+03  0.7546771E-02  0.1138177E+00
          2   -1    0    0  502    0 -0.00000000000E+00  0.00000000000E+00  0.30644698092E+03  0.30644698092E+03  0.00000000000E+00 0. -1.
         21   -1    0    0  501  502  0.00000000000E+00 -0.00000000000E+00 -0.48331633400E+03  0.48331633400E+03  0.00000000000E+00 0. -1.
         24    2    1    2    0    0 -0.35070374579E+02  0.10699757083E+03  0.29076267446E+02  0.14076894198E+03  0.79322470720E+02 0.  0.
         23    2    1    2    0    0  0.25086931499E+03 -0.14822122728E+03  0.51942771032E+02  0.31020978794E+03  0.92882267678E+02 0.  0.
        -13    1    3    3    0    0  0.44152862930E+01  0.45762960571E+02  0.46987076602E+02  0.65738334942E+02  0.00000000000E+00 0.  1.
         14    1    3    3    0    0 -0.39485660873E+02  0.61234610260E+02 -0.17910809156E+02  0.75030607041E+02  0.00000000000E+00 0. -1.
        -11    1    4    4    0    0 -0.32259817331E+01 -0.21660904497E+02  0.21341478480E+01  0.22003552641E+02  0.00000000000E+00 0.  1.
         11    1    4    4    0    0  0.25409529673E+03 -0.12656032278E+03  0.49808623184E+02  0.28820623530E+03  0.00000000000E+00 0. -1.
          1    1    1    2  501    0 -0.21579894041E+03  0.41223656448E+02 -0.25788839155E+03  0.33878458500E+03  0.00000000000E+00 0. -1.
<scales pt_clust_5="13000.00000" pt_clust_6="13000.00000" pt_clust_7="13000.00000" pt_clust_8="13000.00000" pt_clust_9="230.36002"></scales>
<clustering>
<clus scale="   79.322">  5  6 -1 -1</clus>
<clus scale="   92.882">  7  8 -1 -1</clus>
<clus scale="  137.733">  1  5  2 -1</clus>
<clus scale="  230.360">  2  9  1 -1</clus>
<clus scale="  230.360">  2  5  1 -1</clus>
</clustering>
</event>
<event>
 9    2  0.1488992E-004  0.1755397E+03  0.7546771E-02  0.1190407E+00
         21   -1    0    0  501  502  0.00000000000E+00  0.00000000000E+00  0.10683479995E+03  0.10683479995E+03  0.00000000000E+00 0. -1.
          2   -1    0    0  502    0 -0.00000000000E+00 -0.00000000000E+00 -0.62266992475E+03  0.62266992475E+03  0.00000000000E+00 0. -1.
         24    2    1    2    0    0 -0.74605145481E+02  0.39537113449E+02 -0.23315973092E+03  0.26071793588E+03  0.80506340715E+02 0.  0.
         23    2    1    2    0    0  0.77475605185E+02  0.13369875004E+03 -0.55344834960E+02  0.18295801673E+03  0.80825490832E+02 0.  0.
        -11    1    3    3    0    0 -0.19708323360E+02  0.82430864044E+01 -0.24403201274E+01  0.21501666108E+02  0.00000000000E+00 0.  1.
         12    1    3    3    0    0 -0.54896822122E+02  0.31294027044E+02 -0.23071941079E+03  0.23921626977E+03  0.00000000000E+00 0. -1.
        -13    1    4    4    0    0  0.23961492979E+02  0.78033799637E+01  0.14800728679E+02  0.29225116836E+02  0.00000000000E+00 0.  1.
         13    1    4    4    0    0  0.53514112207E+02  0.12589537008E+03 -0.70145563639E+02  0.15373289989E+03  0.00000000000E+00 0. -1.
          1    1    1    2  501    0 -0.28704597040E+01 -0.17323586349E+03 -0.22733055892E+03  0.28582877209E+03  0.00000000000E+00 0. -1.
<scales pt_clust_5="13000.00000" pt_clust_6="13000.00000" pt_clust_7="13000.00000" pt_clust_8="13000.00000" pt_clust_9="155.82510"></scales>
<clustering>
<clus scale="   80.506">  5  6 -1 -1</clus>
<clus scale="   80.825">  7  8 -1 -1</clus>
<clus scale="  116.664">  2  5  1 -1</clus>
<clus scale="  155.825">  1  9  2 -1</clus>
<clus scale="  155.825">  1  5  2 -1</clus>
</clustering>
</event>
<event>
 9    2  0.1488992E-004  0.1102368E+03  0.7546771E-02  0.1264850E+00
          2   -1    0    0  502    0 -0.00000000000E+00  0.00000000000E+00  0.26531174350E+03  0.26531174350E+03  0.00000000000E+00 0. -1.
         21   -1    0    0  501  502  0.00000000000E+00 -0.00000000000E+00 -0.18008179818E+03  0.18008179818E+03  0.00000000000E+00 0. -1.
         24    2    1    2    0    0 -0.39866183669E+02 -0.42401272072E+02  0.14517583813E+03  0.17553655102E+03  0.79686111046E+02 0.  0.
         23    2    1    2    0    0  0.22670083934E+02  0.68605361833E+02  0.70064373692E+02  0.13612206791E+03  0.91649181851E+02 0.  0.
        -11    1    3    3    0    0 -0.32882277766E+02  0.73098700939E+01  0.16691212213E+02  0.37593549407E+02  0.00000000000E+00 0.  1.
         12    1    3    3    0    0 -0.69839059032E+01 -0.49711142166E+02  0.12848462591E+03  0.13794300161E+03  0.00000000000E+00 0. -1.
        -11    1    4    4    0    0 -0.62980902058E+01  0.80226913146E+02  0.67083810351E+02  0.10476765314E+03  0.00000000000E+00 0. -1.
         11    1    4    4    0    0  0.28968174140E+02 -0.11621551313E+02  0.29805633413E+01  0.31354414773E+02  0.00000000000E+00 0.  1.
          1    1    1    2  501    0  0.17196099735E+02 -0.26204089762E+02 -0.13001026650E+03  0.13373492275E+03  0.00000000000E+00 0. -1.
<scales pt_clust_5="13000.00000" pt_clust_6="13000.00000" pt_clust_7="13000.00000" pt_clust_8="13000.00000" pt_clust_9="31.34263"></scales>
<clustering>
<clus scale="   31.343">  2  9  1 -1</clus>
<clus scale="   79.686">  5  6 -1 -1</clus>
<clus scale="   91.649">  7  8 -1 -1</clus>
<clus scale="  100.511">  1  5  2 -1</clus>
<clus scale="   31.343">  2  5  1 -1</clus>
</clustering>
</event>
<event>
 9    2  0.1488992E-004  0.1599505E+03  0.7546771E-02  0.1210174E+00
         21   -1    0    0  501  502  0.00000000000E+00  0.00000000000E+00  0.68580131989E+02  0.68580131989E+02  0.00000000000E+00 0. -1.
          2   -1    0    0  502    0 -0.00000000000E+00 -0.00000000000E+00 -0.73150972940E+03  0.73150972940E+03  0.00000000000E+00 0. -1.
         23    2    1    2    0    0 -0.40871483896E+02  0.75333230710E+01 -0.17883134283E+03  0.20508701532E+03  0.91393684246E+02 0.  0.
         24    2    1    2    0    0  0.12532751559E+03  0.76202050105E+02 -0.10463754187E+03  0.19734109722E+03  0.80503135828E+02 0.  0.
        -13    1    4    4    0    0  0.40396633524E+02  0.20566516841E+02 -0.81421133932E+02  0.93189434303E+02  0.00000000000E+00 0.  1.
         14    1    4    4    0    0  0.84930882069E+02  0.55635533264E+02 -0.23216407938E+02  0.10415166292E+03  0.00000000000E+00 0. -1.
        -13    1    3    3    0    0 -0.65756646406E+02  0.64312227306E+01 -0.83081362249E+02  0.10614994077E+03  0.00000000000E+00 0. -1.
         13    1    3    3    0    0  0.24885162509E+02  0.11021003404E+01 -0.95749980581E+02  0.98937074545E+02  0.00000000000E+00 0.  1.
          1    1    1    2  501    0 -0.84456031697E+02 -0.83735373176E+02 -0.37946071271E+03  0.39766174886E+03  0.00000000000E+00 0. -1.
<scales pt_clust_5="13000.00000" pt_clust_6="13000.00000" pt_clust_7="13000.00000" pt_clust_8="13000.00000" pt_clust_9="138.21513"></scales>
<clustering>
<clus scale="   80.503">  5  6 -1 -1</clus>
<clus scale="   91.394">  7  8 -1 -1</clus>
<clus scale="  100.399">  2  7  1 -1</clus>
<clus scale="  138.215">  1  9  2 -1</clus>
<clus scale="  138.215">  1  5  2 -1</clus>
</clustering>
</event>
<event>
 9    2  0.1488992E-004  0.1280885E+03  0.7546771E-02  0.1232991E+00
          2   -1    0    0  502    0 -0.00000000000E+00  0.00000000000E+00  0.62453866227E+03  0.62453866227E+03  0.00000000000E+00 0. -1.
         21   -1    0    0  501  502  0.00000000000E+00 -0.00000000000E+00 -0.16349905917E+03  0.16349905917E+03  0.00000000000E+00 0. -1.
         23    2    1    2    0    0 -0.70099053470E+02 -0.60385460288E+02  0.58513804455E+03  0.59938193610E+03  0.91169583922E+02 0.  0.
         24    2    1    2    0    0  0.29370306908E+02  0.47798118233E+02 -0.77705587054E+02  0.12565127029E+03  0.81257666914E+02 0.  0.
        -11    1    4    4    0    0  0.54176325565E+01  0.55073125341E+02 -0.13823327307E+02  0.57039322008E+02  0.00000000000E+00 0.  1.
         12    1    4    4    0    0  0.23952674351E+02 -0.72750071082E+01 -0.63882259747E+02  0.68611948284E+02  0.00000000000E+00 0. -1.
        -13    1    3    3    0    0 -0.89146654034E+02 -0.49413877607E+02  0.53521413548E+03  0.54483302768E+03  0.00000000000E+00 0. -1.
         13    1    3    3    0    0  0.19047600565E+02 -0.10971582681E+02  0.49923909065E+02  0.54548908423E+02  0.00000000000E+00 0.  1.
          1    1    1    2  501    0  0.40728746562E+02  0.12587342055E+02 -0.46392854401E+02  0.63004515045E+02  0.00000000000E+00 0. -1.
<scales pt_clust_5="13000.00000" pt_clust_6="13000.00000" pt_clust_7="13000.00000" pt_clust_8="13000.00000" pt_clust_9="42.62947"></scales>
<clustering>
<clus scale="   42.629">  2  9  1 -1</clus>
<clus scale="   81.258">  5  6 -1 -1</clus>
<clus scale="   91.170">  7  8 -1 -1</clus>
<clus scale="  121.234">  2  5  1 -1</clus>
<clus scale="   42.629">  2  5  1 -1</clus>
</clustering>
</event>
<event>
 9    2  0.1488992E-004  0.2303034E+03  0.7546771E-02  0.1126426E+00
         21   -1    0    0  501  502  0.00000000000E+00  0.00000000000E+00  0.37082534002E+03  0.37082534002E+03  0.00000000000E+00 0. -1.
          4   -1    0    0  502    0 -0.00000000000E+00 -0.00000000000E+00 -0.92240198545E+02  0.92240198545E+02  0.00000000000E+00 0. -1.
         24    2    1    2    0    0  0.19147525364E+02 -0.10196335275E+03  0.77958438563E+02  0.15273949448E+03  0.80552355639E+02 0.  0.
         23    2    1    2    0    0  0.37386159495E+02 -0.15992860156E+02  0.49603053833E+02  0.11053147892E+03  0.90018044779E+02 0.  0.
        -13    1    3    3    0    0  0.49881431130E+02 -0.70855600001E+02  0.60353293270E+02  0.10559921037E+03  0.00000000000E+00 0.  1.
         14    1    3    3    0    0 -0.30733905766E+02 -0.31107752751E+02  0.17605145292E+02  0.47140284106E+02  0.00000000000E+00 0. -1.
        -13    1    4    4    0    0  0.65853176594E+02 -0.20883207454E+02  0.28372784261E+02  0.74684430156E+02  0.00000000000E+00 0. -1.
         13    1    4    4    0    0 -0.28467017099E+02  0.48903472986E+01  0.21230269572E+02  0.35847048767E+02  0.00000000000E+00 0.  1.
          3    1    1    2  501    0 -0.56533684859E+02  0.11795621291E+03  0.15102364908E+03  0.19979456516E+03  0.00000000000E+00 0. -1.
<scales pt_clust_5="13000.00000" pt_clust_6="13000.00000" pt_clust_7="13000.00000" pt_clust_8="13000.00000" pt_clust_9="130.80415"></scales>
<clustering>
<clus scale="   80.552">  5  6 -1 -1</clus>
<clus scale="   90.018">  7  8 -1 -1</clus>
<clus scale="   98.765">  5  7 -1 -1</clus>
<clus scale="  130.804">  1  9  2 -1</clus>
<clus scale="  130.804">  1  5  2 -1</clus>
</clustering>
</event>
<event>
 9    2  0.1488992E-004  0.1015808E+03  0.7546771E-02  0.1283390E+00
         -1   -1    0    0    0  501 -0.00000000000E+00  0.00000000000E+00  0.96254857497E+02  0.96254857497E+02  0.00000000000E+00 0.  1.
         21   -1    0    0  501  502  0.00000000000E+00 -0.00000000000E+00 -0.19628083968E+03  0.19628083968E+03  0.00000000000E+00 0. -1.
         24    2    1    2    0    0 -0.42499340908E+02 -0.10712973390E+02  0.40968022167E+02  0.99745882786E+02  0.79686263032E+02 0.  0.
         23    2    1    2    0    0  0.35995213671E+02 -0.17756566423E+02 -0.12013224008E+03  0.15690065757E+03  0.92601890817E+02 0.  0.
        -11    1    3    3    0    0 -0.35506776404E+02 -0.42544958858E+02  0.13285907509E+02  0.56985261543E+02  0.00000000000E+00 0.  1.
         12    1    3    3    0    0 -0.69925645039E+01  0.31831985468E+02  0.27682114657E+02  0.42760621243E+02  0.00000000000E+00 0. -1.
        -11    1    4    4    0    0  0.74730109984E+01  0.36367050162E+02 -0.28875607182E+02  0.47034125068E+02  0.00000000000E+00 0.  1.
         11    1    4    4    0    0  0.28522202673E+02 -0.54123616584E+02 -0.91256632896E+02  0.10986653251E+03  0.00000000000E+00 0. -1.
         -2    1    1    2    0  502  0.65041272370E+01  0.28469539813E+02 -0.20861764268E+02  0.35889156811E+02  0.00000000000E+00 0.  1.
<scales pt_clust_5="13000.00000" pt_clust_6="13000.00000" pt_clust_7="13000.00000" pt_clust_8="13000.00000" pt_clust_9="29.20305"></scales>
<clustering>
<clus scale="   29.203">  2  9  1 -1</clus>
<clus scale="   79.686">  5  6 -1 -1</clus>
<clus scale="   89.964">  1  5  2 -1</clus>
<clus scale="   92.602">  7  8 -1 -1</clus>
<clus scale="   29.203">  2  5  1 -1</clus>
</clustering>
</event>
<event>
 9    2  0.1488992E-004  0.4379704E+03  0.7546771E-02  0.1031512E+00
         21   -1    0    0  501  502  0.00000000000E+00  0.00000000000E+00  0.29425748437E+03  0.29425748437E+03  0.00000000000E+00 0.  1.
          4   -1    0    0  502    0 -0.00000000000E+00 -0.00000000000E+00 -0.27967521210E+04  0.27967521210E+04  0.00000000000E+00 0. -1.
         24    2    1    2    0    0  0.40910979584E+03 -0.11977041902E+03 -0.23792477888E+04  0.24185306618E+04  0.82187245917E+02 0.  0.
         23    2    1    2    0    0 -0.40927337377E+03  0.17388844147E+03 -0.26157771105E+03  0.52393866342E+03  0.91361586867E+02 0.  0.
        -11    1    3    3    0    0  0.24197611131E+03 -0.28488664579E+02 -0.13175475745E+04  0.13398864330E+04  0.00000000000E+00 0.  1.
         12    1    3    3    0    0  0.16713368453E+03 -0.91281754444E+02 -0.10617002143E+04  0.10786442288E+04  0.00000000000E+00 0. -1.
        -13    1    4    4    0    0 -0.29621193597E+03  0.13224073772E+03 -0.23496407529E+03  0.40054617762E+03  0.00000000000E+00 0.  1.
         13    1    4    4    0    0 -0.11306143780E+03  0.41647703743E+02 -0.26613635754E+02  0.12339248580E+03  0.00000000000E+00 0. -1.
          3    1    1    2  501    0  0.16357793144E+00 -0.54118022443E+02  0.13833086320E+03  0.14854028014E+03  0.00000000000E+00 0. -1.
<scales pt_clust_5="13000.00000" pt_clust_6="13000.00000" pt_clust_7="13000.00000" pt_clust_8="13000.00000" pt_clust_9="54.11827"></scales>
<clustering>
<clus scale="   54.118">  1  9  2 -1</clus>
<clus scale="   82.187">  5  6 -1 -1</clus>
<clus scale="   91.362">  7  8 -1 -1</clus>
<clus scale="  436.149">  2  5  1 -1</clus>
<clus scale="   54.118">  1  5  2 -1</clus>
</clustering>
</event>
<event>
 9    2  0.1488992E-004  0.9168301E+02  0.7546771E-02  0.1305302E+00
         21   -1    0    0  501  502  0.00000000000E+00  0.00000000000E+00  0.15732944674E+02  0.15732944674E+02  0.00000000000E+00 0.  1.
          2   -1    0    0  502    0 -0.00000000000E+00 -0.00000000000E+00 -0.11053548244E+04  0.11053548244E+04  0.00000000000E+00 0. -1.
         24    2    1    2    0    0 -0.87967537512E+01 -0.32993028940E+02 -0.52789680243E+03  0.53460439317E+03  0.77206867171E+02 0.  0.
         23    2    1    2    0    0 -0.43859908040E+02  0.34610372231E+01 -0.24418385265E+03  0.26325390337E+03  0.87984052161E+02 0.  0.
        -11    1    3    3    0    0  0.31108060191E+02  0.11394054335E+01 -0.16263220204E+03  0.16558454878E+03  0.00000000000E+00 0.  1.
         12    1    3    3    0    0 -0.39904813942E+02 -0.34132434374E+02 -0.36526460039E+03  0.36901984439E+03  0.00000000000E+00 0. -1.
        -11    1    4    4    0    0 -0.10668028899E+02  0.39131148977E+02 -0.16795944169E+03  0.17278723250E+03  0.00000000000E+00 0. -1.
         11    1    4    4    0    0 -0.33191879141E+02 -0.35670111754E+02 -0.76224410956E+02  0.90466670874E+02  0.00000000000E+00 0.  1.
          1    1    1    2  501    0  0.52656661791E+02  0.29531991717E+02 -0.31754122462E+03  0.32322947251E+03  0.00000000000E+00 0. -1.
<scales pt_clust_5="13000.00000" pt_clust_6="13000.00000" pt_clust_7="13000.00000" pt_clust_8="13000.00000" pt_clust_9="60.37273"></scales>
<clustering>
<clus scale="   60.373">  1  9  2 -1</clus>
<clus scale="   77.207">  5  6 -1 -1</clus>
<clus scale="   81.397">  2  5  1 -1</clus>
<clus scale="   87.984">  7  8 -1 -1</clus>
<clus scale="   60.373">  1  5  2 -1</clus>
</clustering>
</event>
<event>
 9    2  0.1488992E-004  0.9867554E+02  0.7546771E-02  0.1283985E+00
         21   -1    0    0  501  502  0.00000000000E+00  0.00000000000E+00  0.39508335160E+02  0.39508335160E+02  0.00000000000E+00 0. -1.
          2   -1    0    0  502    0 -0.00000000000E+00 -0.00000000000E+00 -0.41104812920E+03  0.41104812920E+03  0.00000000000E+00 0. -1.
         24    2    1    2    0    0 -0.16791806623E+02  0.44003427797E+02 -0.14413349760E+03  0.17231403697E+03  0.81849836768E+02 0.  0.
         23    2    1    2    0    0  0.62787439726E+02 -0.29067069844E+02 -0.12948838908E+03  0.16903340929E+03  0.83772867994E+02 0.  0.
        -13    1    3    3    0    0 -0.34845124859E+02 -0.10576597857E+02 -0.47188070784E+02  0.59605043184E+02  0.00000000000E+00 0.  1.
         14    1    3    3    0    0  0.18053318236E+02  0.54580025654E+02 -0.96945426813E+02  0.11270899378E+03  0.00000000000E+00 0. -1.
        -11    1    4    4    0    0  0.30000194953E+02 -0.56427436945E+02 -0.93132065950E+02  0.11294976337E+03  0.00000000000E+00 0. -1.
         11    1    4    4    0    0  0.32787244773E+02  0.27360367101E+02 -0.36356323132E+02  0.56083645918E+02  0.00000000000E+00 0.  1.
          1    1    1    2  501    0 -0.45995633103E+02 -0.14936357953E+02 -0.97917907364E+02  0.10920901811E+03  0.00000000000E+00 0. -1.
<scales pt_clust_5="13000.00000" pt_clust_6="13000.00000" pt_clust_7="13000.00000" pt_clust_8="13000.00000" pt_clust_9="48.36006"></scales>
<clustering>
<clus scale="   48.360">  1  9  2 -1</clus>
<clus scale="   81.850">  5  6 -1 -1</clus>
<clus scale="   83.773">  7  8 -1 -1</clus>
<clus scale="   97.048">  2  5  1 -1</clus>
<clus scale="   48.360">  1  5  2 -1</clus>
</clustering>
</event>
<event>
 9    2  0.1488992E-004  0.9401157E+02  0.7546771E-02  0.1299495E+00
         -3   -1    0    0    0  501 -0.00000000000E+00  0.00000000000E+00  0.16905767441E+03  0.16905767441E+03  0.00000000000E+00 0.  1.
         21   -1    0    0  501  502  0.00000000000E+00 -0.00000000000E+00 -0.78174045791E+02  0.78174045791E+02  0.00000000000E+00 0.  1.
         23    2    1    2    0    0  0.27399130217E+02  0.95610317161E+01  0.87013196353E+02  0.12947126597E+03  0.91374978564E+02 0.  0.
         24    2    1    2    0    0 -0.44432361362E+01 -0.29143093023E+01 -0.20366453089E+02  0.83722554715E+02  0.81033562247E+02 0.  0.
        -11    1    4    4    0    0 -0.30659630845E+02  0.21913724338E+02 -0.27835092691E+02  0.46851004931E+02  0.00000000000E+00 0.  1.
         12    1    4    4    0    0  0.26216394709E+02 -0.24828033640E+02  0.74686396022E+01  0.36871549784E+02  0.00000000000E+00 0. -1.
        -11    1    3    3    0    0  0.53341981336E+02  0.22463419312E+02  0.29253391804E+02  0.64851623820E+02  0.00000000000E+00 0.  1.
         11    1    3    3    0    0 -0.25942851118E+02 -0.12902387596E+02  0.57759804549E+02  0.64619642148E+02  0.00000000000E+00 0. -1.
         -4    1    1    2    0  502 -0.22955894081E+02 -0.66467224138E+01  0.24236885352E+02  0.34037899517E+02  0.00000000000E+00 0.  1.
<scales pt_clust_5="13000.00000" pt_clust_6="13000.00000" pt_clust_7="13000.00000" pt_clust_8="13000.00000" pt_clust_9="23.89880"></scales>
<clustering>
<clus scale="   23.899">  2  9  1 -1</clus>
<clus scale="   81.034">  5  6 -1 -1</clus>
<clus scale="   83.995">  2  5  1 -1</clus>
<clus scale="   91.375">  7  8 -1 -1</clus>
<clus scale="   23.899">  2  5  1 -1</clus>
</clustering>
</event>
<event>
 9    2  0.1488992E-004  0.9901877E+02  0.7546771E-02  0.1287922E+00
         21   -1    0    0  501  502  0.00000000000E+00  0.00000000000E+00  0.33709545207E+02  0.33709545207E+02  0.00000000000E+00 0.  1.
          2   -1    0    0  502    0 -0.00000000000E+00 -0.00000000000E+00 -0.64327034282E+03  0.64327034282E+03  0.00000000000E+00 0. -1.
         24    2    1    2    0    0  0.27073382595E+02  0.52610982646E+01 -0.36975094912E+03  0.37956573426E+03  0.81201816778E+02 0.  0.
         23    2    1    2    0    0 -0.59611212601E+02 -0.22042741013E+01 -0.24097203594E+03  0.26471239181E+03  0.91906326125E+02 0.  0.
        -11    1    3    3    0    0  0.43288051282E+02  0.23233477815E+02 -0.13668432034E+03  0.14524549322E+03  0.00000000000E+00 0.  1.
         12    1    3    3    0    0 -0.16214668688E+02 -0.17972379551E+02 -0.23306662878E+03  0.23432024104E+03  0.00000000000E+00 0. -1.
        -13    1    4    4    0    0 -0.79794375048E+02  0.17083672984E+02 -0.17608764041E+03  0.19407692103E+03  0.00000000000E+00 0.  1.
         13    1    4    4    0    0  0.20183162447E+02 -0.19287947085E+02 -0.64884395529E+02  0.70635470780E+02  0.00000000000E+00 0. -1.
          1    1    1    2  501    0  0.32537830006E+02 -0.30568241633E+01  0.11621874460E+01  0.32701761957E+02  0.00000000000E+00 0. -1.
<scales pt_clust_5="13000.00000" pt_clust_6="13000.00000" pt_clust_7="13000.00000" pt_clust_8="13000.00000" pt_clust_9="32.68110"></scales>
<clustering>
<clus scale="   32.681">  1  9  2 -1</clus>
<clus scale="   81.202">  5  6 -1 -1</clus>
<clus scale="   89.172">  2  5  1 -1</clus>
<clus scale="   91.906">  7  8 -1 -1</clus>
<clus scale="   32.681">  1  5  2 -1</clus>
</clustering>
</event>
<event>
 9    2  0.1488992E-004  0.1005365E+03  0.7546771E-02  0.1279417E+00
          2   -1    0    0  502    0 -0.00000000000E+00  0.00000000000E+00  0.11122058527E+04  0.11122058527E+04  0.00000000000E+00 0. -1.
         21   -1    0    0  501  502  0.00000000000E+00 -0.00000000000E+00 -0.18415247962E+02  0.18415247962E+02  0.00000000000E+00 0.  1.
         24    2    1    2    0    0 -0.74638228576E+01  0.56187088929E+02  0.31969524604E+03  0.33440403833E+03  0.80051938763E+02 0.  0.
         23    2    1    2    0    0  0.63120647663E+02 -0.45999815392E+02  0.32494197229E+03  0.34351381823E+03  0.79462310469E+02 0.  0.
        -11    1    3    3    0    0 -0.16715809974E+02  0.70089708173E+02  0.30023575461E+03  0.30876122464E+03  0.00000000000E+00 0.  1.
         12    1    3    3    0    0  0.92519871168E+01 -0.13902619243E+02  0.19459491428E+02  0.25642813692E+02  0.00000000000E+00 0. -1.
        -11    1    4    4    0    0  0.39763433930E+02  0.10076035119E+02  0.20502858579E+03  0.20909179360E+03  0.00000000000E+00 0. -1.
         11    1    4    4    0    0  0.23357213733E+02 -0.56075850511E+02  0.11991338650E+03  0.13442202463E+03  0.00000000000E+00 0.  1.
          1    1    1    2  501    0 -0.55656824805E+02 -0.10187273537E+02  0.44915338636E+03  0.45270324405E+03  0.00000000000E+00 0. -1.
<scales pt_clust_5="13000.00000" pt_clust_6="13000.00000" pt_clust_7="13000.00000" pt_clust_8="13000.00000" pt_clust_9="56.58150"></scales>
<clustering>
<clus scale="   56.581">  2  9  1 -1</clus>
<clus scale="   79.462">  7  8 -1 -1</clus>
<clus scale="   80.052">  5  6 -1 -1</clus>
<clus scale="  100.068">  2  7  1 -1</clus>
<clus scale="   56.581">  2  5  1 -1</clus>
</clustering>
</event>
<event>
 9    2  0.1488992E-004  0.9815084E+02  0.7546771E-02  0.1289924E+00
          2   -1    0    0  502    0 -0.00000000000E+00  0.00000000000E+00  0.84729041939E+02  0.84729041939E+02  0.00000000000E+00 0. -1.
         21   -1    0    0  501  502  0.00000000000E+00 -0.00000000000E+00 -0.16396873119E+03  0.16396873119E+03  0.00000000000E+00 0.  1.
         23    2    1    2    0    0 -0.22299673021E+02  0.52151008968E+01  0.83973834117E+00  0.94718659712E+02  0.91904551807E+02 0.  0.
         24    2    1    2    0    0  0.54755542987E+02 -0.11009244426E+02 -0.58944429829E+02  0.11481734986E+03  0.81173918658E+02 0.  0.
        -13    1    4    4    0    0  0.16971753727E+02 -0.13175273871E+02 -0.71723317172E+02  0.74872307913E+02  0.00000000000E+00 0.  1.
         14    1    4    4    0    0  0.37783789260E+02  0.21660294443E+01  0.12778887343E+02  0.39945041947E+02  0.00000000000E+00 0. -1.
        -13    1    3    3    0    0  0.35514098582E+01  0.25887948913E+02 -0.36455452799E+02  0.44853076257E+02  0.00000000000E+00 0. -1.
         13    1    3    3    0    0 -0.25851082879E+02 -0.20672848016E+02  0.37295191140E+02  0.49865583455E+02  0.00000000000E+00 0.  1.
          1    1    1    2  501    0 -0.32455869966E+02  0.57941435296E+01 -0.21134997762E+02  0.39161763557E+02  0.00000000000E+00 0. -1.
<scales pt_clust_5="13000.00000" pt_clust_6="13000.00000" pt_clust_7="13000.00000" pt_clust_8="13000.00000" pt_clust_9="32.96901"></scales>
<clustering>
<clus scale="   32.969">  2  9  1 -1</clus>
<clus scale="   81.174">  5  6 -1 -1</clus>
<clus scale="   88.184">  2  5  1 -1</clus>
<clus scale="   91.905">  7  8 -1 -1</clus>
<clus scale="   32.969">  2  5  1 -1</clus>
</clustering>
</event>
<event>
 9    2  0.1488992E-004  0.9554105E+02  0.7546771E-02  0.1296323E+00
         21   -1    0    0  501  502  0.00000000000E+00  0.00000000000E+00  0.23958649364E+03  0.23958649364E+03  0.00000000000E+00 0.  1.
          2   -1    0    0  502    0 -0.00000000000E+00 -0.00000000000E+00 -0.82368862880E+02  0.82368862880E+02  0.00000000000E+00 0. -1.
         24    2    1    2    0    0 -0.37011065693E+02  0.35781501539E+01 -0.11988855863E+02  0.87262460518E+02  0.78028086024E+02 0.  0.
         23    2    1    2    0    0  0.12571968414E+02 -0.92625303813E+01  0.18424538682E+03  0.20543968808E+03  0.89527951036E+02 0.  0.
        -11    1    3    3    0    0 -0.29959124700E+02 -0.35583253569E+02 -0.88258426323E+01  0.47345671244E+02  0.00000000000E+00 0.  1.
         12    1    3    3    0    0 -0.70519409935E+01  0.39161403723E+02 -0.31630132305E+01  0.39916789275E+02  0.00000000000E+00 0. -1.
        -11    1    4    4    0    0  0.13490523569E+02  0.35032477145E+02  0.13047406558E+03  0.13576726582E+03  0.00000000000E+00 0.  1.
         11    1    4    4    0    0 -0.91855515549E+00 -0.44295007526E+02  0.53771321240E+02  0.69672422258E+02  0.00000000000E+00 0. -1.
          1    1    1    2  501    0  0.24439097280E+02  0.56843802273E+01 -0.15038900196E+02  0.29253207918E+02  0.00000000000E+00 0. -1.
<scales pt_clust_5="13000.00000" pt_clust_6="13000.00000" pt_clust_7="13000.00000" pt_clust_8="13000.00000" pt_clust_9="25.09148"></scales>
<clustering>
<clus scale="   25.091">  1  9  2 -1</clus>
<clus scale="   78.028">  5  6 -1 -1</clus>
<clus scale="   84.860">  2  5  1 -1</clus>
<clus scale="   89.528">  7  8 -1 -1</clus>
<clus scale="   25.091">  1  5  2 -1</clus>
</clustering>
</event>
<event>
 9    2  0.1488992E-004  0.1154847E+03  0.7546771E-02  0.1255719E+00
          2   -1    0    0  502    0 -0.00000000000E+00  0.00000000000E+00  0.91223605986E+03  0.91223605986E+03  0.00000000000E+00 0. -1.
         21   -1    0    0  501  502  0.00000000000E+00 -0.00000000000E+00 -0.29439736152E+02  0.29439736152E+02  0.00000000000E+00 0.  1.
         23    2    1    2    0    0  0.33929071589E+02 -0.59104367098E+02  0.47128841930E+03  0.48516539815E+03  0.92888004024E+02 0.  0.
         24    2    1    2    0    0 -0.92063116304E+02  0.10730044925E+02  0.26518063708E+03  0.29179454748E+03  0.78946414809E+02 0.  0.
        -11    1    4    4    0    0 -0.89808156959E+02  0.66935404914E+01  0.13959400216E+03  0.16612282799E+03  0.00000000000E+00 0.  1.
         12    1    4    4    0    0 -0.22549593446E+01  0.40365044339E+01  0.12558663492E+03  0.12567171949E+03  0.00000000000E+00 0. -1.
        -13    1    3    3    0    0  0.59731488490E+02 -0.19612723381E+02  0.19516087010E+03  0.20503725236E+03  0.00000000000E+00 0. -1.
         13    1    3    3    0    0 -0.25802416901E+02 -0.39491643717E+02  0.27612754920E+03  0.28012814580E+03  0.00000000000E+00 0.  1.
          1    1    1    2  501    0  0.58134044714E+02  0.48374322173E+02  0.14632726733E+03  0.16471585037E+03  0.00000000000E+00 0. -1.
<scales pt_clust_5="13000.00000" pt_clust_6="13000.00000" pt_clust_7="13000.00000" pt_clust_8="13000.00000" pt_clust_9="75.62832"></scales>
<clustering>
<clus scale="   75.628">  2  9  1 -1</clus>
<clus scale="   78.946">  5  6 -1 -1</clus>
<clus scale="   92.888">  7  8 -1 -1</clus>
<clus scale="  104.600">  2  5  1 -1</clus>
<clus scale="   75.628">  2  5  1 -1</clus>
</clustering>
</event>
<event>
 9    2  0.1488992E-004  0.1997440E+03  0.7546771E-02  0.1151011E+00
          2   -1    0    0  502    0 -0.00000000000E+00  0.00000000000E+00  0.89773628370E+03  0.89773628370E+03  0.00000000000E+00 0. -1.
         21   -1    0    0  501  502  0.00000000000E+00 -0.00000000000E+00 -0.14526381330E+03  0.14526381330E+03  0.00000000000E+00 0. -1.
         23    2    1    2    0    0  0.17474044427E+03 -0.76827742123E+02  0.72193326943E+03  0.75229016316E+03  0.91192758857E+02 0.  0.
         24    2    1    2    0    0 -0.57278627151E+02  0.12453750591E+03 -0.61090349756E+01  0.15873799274E+03  0.79812270504E+02 0.  0.
        -11    1    4    4    0    0 -0.28990493696E+02  0.75648279858E+02 -0.42562014206E+02  0.91513037452E+02  0.00000000000E+00 0.  1.
         12    1    4    4    0    0 -0.28288133454E+02  0.48889226051E+02  0.36452979231E+02  0.67224955284E+02  0.00000000000E+00 0. -1.
        -13    1    3    3    0    0  0.63568645438E+02 -0.68638121247E+02  0.42368287597E+03  0.43388863060E+03  0.00000000000E+00 0.  1.
         13    1    3    3    0    0  0.11117179883E+03 -0.81896208767E+01  0.29825039346E+03  0.31840153257E+03  0.00000000000E+00 0. -1.
          1    1    1    2  501    0 -0.11746181711E+03 -0.47709763786E+02  0.36648235953E+02  0.13197194110E+03  0.00000000000E+00 0. -1.
<scales pt_clust_5="13000.00000" pt_clust_6="13000.00000" pt_clust_7="13000.00000" pt_clust_8="13000.00000" pt_clust_9="126.78131"></scales>
<clustering>
<clus scale="   79.812">  5  6 -1 -1</clus>
<clus scale="   91.193">  7  8 -1 -1</clus>
<clus scale="  126.781">  2  9  1 -1</clus>
<clus scale="  194.812">  2  5  1 -1</clus>
<clus scale="  126.781">  2  5  1 -1</clus>
</clustering>
</event>
<event>
 9    2  0.1488992E-004  0.9073507E+02  0.7546771E-02  0.1305065E+00
         21   -1    0    0  501  502  0.00000000000E+00  0.00000000000E+00  0.19942908489E+03  0.19942908489E+03  0.00000000000E+00 0. -1.
          2   -1    0    0  502    0 -0.00000000000E+00 -0.00000000000E+00 -0.11703866571E+03  0.11703866571E+03  0.00000000000E+00 0. -1.
         23    2    1    2    0    0  0.17568407969E+02 -0.15621638551E+00 -0.38934309125E+02  0.96732734914E+02  0.86790945466E+02 0.  0.
         24    2    1    2    0    0 -0.35184313635E+02  0.24021558054E+02 -0.41490836174E+01  0.90802660778E+02  0.80080816256E+02 0.  0.
        -11    1    4    4    0    0 -0.27503934717E+02 -0.14216939503E+02  0.26850009394E+02  0.40981834979E+02  0.00000000000E+00 0.  1.
         12    1    4    4    0    0 -0.76803789183E+01  0.38238497558E+02 -0.30999093012E+02  0.49820825799E+02  0.00000000000E+00 0. -1.
        -13    1    3    3    0    0 -0.28289723431E+02  0.11598908327E+02 -0.38790445921E+02  0.49391718141E+02  0.00000000000E+00 0.  1.
         13    1    3    3    0    0  0.45858131400E+02 -0.11755124712E+02 -0.14386320425E+00  0.47341016773E+02  0.00000000000E+00 0. -1.
          1    1    1    2  501    0  0.17615905667E+02 -0.23865341669E+02  0.12547381192E+03  0.12893235491E+03  0.00000000000E+00 0. -1.
<scales pt_clust_5="13000.00000" pt_clust_6="13000.00000" pt_clust_7="13000.00000" pt_clust_8="13000.00000" pt_clust_9="29.66268"></scales>
<clustering>
<clus scale="   29.663">  1  9  2 -1</clus>
<clus scale="   80.081">  5  6 -1 -1</clus>
<clus scale="   84.339">  1  5  2 -1</clus>
<clus scale="   86.791">  7  8 -1 -1</clus>
<clus scale="   29.663">  1  5  2 -1</clus>
</clustering>
</event>
<event>
 9    2  0.1488992E-004  0.1450021E+03  0.7546771E-02  0.1209078E+00
          2   -1    0    0  502    0 -0.00000000000E+00  0.00000000000E+00  0.30300065201E+03  0.30300065201E+03  0.00000000000E+00 0. -1.
         21   -1    0    0  501  502  0.00000000000E+00 -0.00000000000E+00 -0.20140189451E+03  0.20140189451E+03  0.00000000000E+00 0. -1.
         24    2    1    2    0    0 -0.43994316687E+02 -0.11062872758E+03 -0.11236376307E+02  0.14408950135E+03  0.80382292701E+02 0.  0.
         23    2    1    2    0    0  0.72452475402E+01  0.10415690906E+03 -0.82296076388E+02  0.16164606827E+03  0.91954618607E+02 0.  0.
        -11    1    3    3    0    0 -0.26861637083E+02 -0.10390765129E+02 -0.28984286880E+02  0.40860793344E+02  0.00000000000E+00 0.  1.
         12    1    3    3    0    0 -0.17132679604E+02 -0.10023796245E+03  0.17747910574E+02  0.10322870800E+03  0.00000000000E+00 0. -1.
        -11    1    4    4    0    0  0.13690307259E+02  0.28518514874E+02  0.17583247560E+02  0.36192551696E+02  0.00000000000E+00 0.  1.
         11    1    4    4    0    0 -0.64450597190E+01  0.75638394182E+02 -0.99879323948E+02  0.12545351658E+03  0.00000000000E+00 0. -1.
          1    1    1    2  501    0  0.36749069147E+02  0.64718185190E+01  0.19513121019E+03  0.19866697690E+03  0.00000000000E+00 0. -1.
<scales pt_clust_5="13000.00000" pt_clust_6="13000.00000" pt_clust_7="13000.00000" pt_clust_8="13000.00000" pt_clust_9="37.31461"></scales>
<clustering>
<clus scale="   37.315">  2  9  1 -1</clus>
<clus scale="   80.382">  5  6 -1 -1</clus>
<clus scale="   91.955">  7  8 -1 -1</clus>
<clus scale="  137.954">  1  5  2 -1</clus>
<clus scale="   37.315">  2  5  1 -1</clus>
</clustering>
</event>
<event>
 9    2  0.1488992E-004  0.2155420E+03  0.7546771E-02  0.1137969E+00
         21   -1    0    0  501  502  0.00000000000E+00  0.00000000000E+00  0.14747456081E+03  0.14747456081E+03  0.00000000000E+00 0.  1.
          2   -1    0    0  502    0 -0.00000000000E+00 -0.00000000000E+00 -0.84915941657E+03  0.84915941657E+03  0.00000000000E+00 0. -1.
         24    2    1    2    0    0  0.70949446130E+02  0.19335200319E+03 -0.33289047573E+03  0.40057113455E+03  0.84984374799E+02 0.  0.
         23    2    1    2    0    0  0.76466046130E+01 -0.16575261311E+03  0.26152080867E+02  0.19242715004E+03  0.93871600736E+02 0.  0.
        -11    1    3    3    0    0  0.88494061233E+02  0.17091931598E+03 -0.30539181957E+03  0.36098306735E+03  0.00000000000E+00 0.  1.
         12    1    3    3    0    0 -0.17544615103E+02  0.22432687210E+02 -0.27498656161E+02  0.39588067207E+02  0.00000000000E+00 0. -1.
        -13    1    4    4    0    0  0.38634786837E+02 -0.29416132293E+02  0.19886170493E+02  0.52472996578E+02  0.00000000000E+00 0. -1.
         13    1    4    4    0    0 -0.30988182224E+02 -0.13633648081E+03  0.62659103738E+01  0.13995415346E+03  0.00000000000E+00 0.  1.
          1    1    1    2  501    0 -0.78596050743E+02 -0.27599390080E+02 -0.39494646089E+03  0.40363569279E+03  0.00000000000E+00 0. -1.
<scales pt_clust_5="13000.00000" pt_clust_6="13000.00000" pt_clust_7="13000.00000" pt_clust_8="13000.00000" pt_clust_9="83.30110"></scales>
<clustering>
<clus scale="   83.301">  1  9  2 -1</clus>
<clus scale="   84.984">  5  6 -1 -1</clus>
<clus scale="   93.872">  7  8 -1 -1</clus>
<clus scale="  211.823">  2  5  1 -1</clus>
<clus scale="   83.301">  1  5  2 -1</clus>
</clustering>
</event>
<event>
 9    2  0.1488992E-004  0.1593818E+03  0.7546771E-02  0.1191761E+00
         21   -1    0    0  501  502  0.00000000000E+00  0.00000000000E+00  0.16050208425E+03  0.16050208425E+03  0.00000000000E+00 0.  1.
          2   -1    0    0  502    0 -0.00000000000E+00 -0.00000000000E+00 -0.25541428764E+03  0.25541428764E+03  0.00000000000E+00 0. -1.
         24    2    1    2    0    0  0.14006796047E+03  0.50330209113E+02 -0.83618149223E+02  0.18735749321E+03  0.77192434112E+02 0.  0.
         23    2    1    2    0    0 -0.78459120582E+02 -0.61067623284E+02  0.46641972658E+02  0.14330910203E+03  0.92070282363E+02 0.  0.
        -13    1    3    3    0    0  0.23838533067E+02 -0.18298768285E+02 -0.28951472528E+02  0.41728986821E+02  0.00000000000E+00 0.  1.
         14    1    3    3    0    0  0.11622942740E+03  0.68628977398E+02 -0.54666676694E+02  0.14562850639E+03  0.00000000000E+00 0. -1.
        -13    1    4    4    0    0 -0.43303046857E+02 -0.51694522191E+02 -0.17408614014E+02  0.69645799109E+02  0.00000000000E+00 0. -1.
         13    1    4    4    0    0 -0.35156073726E+02 -0.93731010927E+01  0.64050586671E+02  0.73663302918E+02  0.00000000000E+00 0.  1.
          1    1    1    2  501    0 -0.61608839887E+02  0.10737414171E+02 -0.57936026819E+02  0.85249776650E+02  0.00000000000E+00 0. -1.
<scales pt_clust_5="13000.00000" pt_clust_6="13000.00000" pt_clust_7="13000.00000" pt_clust_8="13000.00000" pt_clust_9="62.53755"></scales>
<clustering>
<clus scale="   62.538">  1  9  2 -1</clus>
<clus scale="   77.192">  5  6 -1 -1</clus>
<clus scale="   92.070">  7  8 -1 -1</clus>
<clus scale="  151.276">  2  5  1 -1</clus>
<clus scale="   62.538">  1  5  2 -1</clus>
</clustering>
</event>
<event>
 9    2  0.1488992E-004  0.1765516E+03  0.7546771E-02  0.1197556E+00
          2   -1    0    0  502    0 -0.00000000000E+00  0.00000000000E+00  0.57114833177E+03  0.57114833177E+03  0.00000000000E+00 0. -1.
         21   -1    0    0  501  502  0.00000000000E+00 -0.00000000000E+00 -0.14391448771E+03  0.14391448771E+03  0.00000000000E+00 0. -1.
         24    2    1    2    0    0 -0.61487422592E+02  0.43205728491E+02  0.30197437449E+03  0.31748454711E+03  0.62932318359E+02 0.  0.
         23    2    1    2    0    0 -0.11105717619E+03 -0.91663794421E+02 -0.13877659138E+02  0.17068851211E+03  0.90587146734E+02 0.  0.
        -11    1    3    3    0    0 -0.71069492583E+02  0.28103897720E+02  0.27244548539E+03  0.28296155985E+03  0.00000000000E+00 0.  1.
         12    1    3    3    0    0  0.95820699911E+01  0.15101830772E+02  0.29528889101E+02  0.34522987263E+02  0.00000000000E+00 0. -1.
        -13    1    4    4    0    0 -0.11312943217E+03 -0.66488599493E+02 -0.37111390639E+02  0.13636809598E+03  0.00000000000E+00 0. -1.
         13    1    4    4    0    0  0.20722559752E+01 -0.25175194928E+02  0.23233731501E+02  0.34320416139E+02  0.00000000000E+00 0.  1.
          1    1    1    2  501    0  0.17254459878E+03  0.48458065930E+02  0.13913712870E+03  0.22688976025E+03  0.00000000000E+00 0. -1.
<scales pt_clust_5="13000.00000" pt_clust_6="13000.00000" pt_clust_7="13000.00000" pt_clust_8="13000.00000" pt_clust_9="151.54031"></scales>
<clustering>
<clus scale="   62.932">  5  6 -1 -1</clus>
<clus scale="   90.587">  7  8 -1 -1</clus>
<clus scale="   98.020">  1  5  2 -1</clus>
<clus scale="  151.540">  2  9  1 -1</clus>
<clus scale="  151.540">  2  5  1 -1</clus>
</clustering>
</event>
<event>
 9    2  0.1488992E-004  0.1113429E+03  0.7546771E-02  0.1263587E+00
         21   -1    0    0  501  502  0.00000000000E+00  0.00000000000E+00  0.11998560713E+03  0.11998560713E+03  0.00000000000E+00 0.  1.
          4   -1    0    0  502    0 -0.00000000000E+00 -0.00000000000E+00 -0.33309945907E+03  0.33309945907E+03  0.00000000000E+00 0. -1.
         23    2    1    2    0    0 -0.47821750302E+02 -0.46877524477E+02 -0.18980942531E+03  0.22162914551E+03  0.92776279825E+02 0.  0.
         24    2    1    2    0    0  0.12494437271E+02  0.26374966020E+02  0.82679713156E+02  0.11787329951E+03  0.78780898534E+02 0.  0.
        -11    1    4    4    0    0  0.54628165250E+01  0.37126669358E+02  0.93707635977E+02  0.10094232503E+03  0.00000000000E+00 0.  1.
         12    1    4    4    0    0  0.70316207455E+01 -0.10751703338E+02 -0.11027922822E+02  0.16930974477E+02  0.00000000000E+00 0. -1.
        -11    1    3    3    0    0  0.16193456816E+01 -0.62151900033E+02 -0.93210596651E+02  0.11204327863E+03  0.00000000000E+00 0.  1.
         11    1    3    3    0    0 -0.49441095984E+02  0.15274375556E+02 -0.96598828663E+02  0.10958586688E+03  0.00000000000E+00 0. -1.
          3    1    1    2  501    0  0.35327313031E+02  0.20502558457E+02 -0.10598413978E+03  0.11358262118E+03  0.00000000000E+00 0. -1.
<scales pt_clust_5="13000.00000" pt_clust_6="13000.00000" pt_clust_7="13000.00000" pt_clust_8="13000.00000" pt_clust_9="40.84575"></scales>
<clustering>
<clus scale="   40.846">  1  9  2 -1</clus>
<clus scale="   78.781">  5  6 -1 -1</clus>
<clus scale="   92.776">  7  8 -1 -1</clus>
<clus scale="   99.981">  1  5  2 -1</clus>
<clus scale="   40.846">  1  5  2 -1</clus>
</clustering>
</event>
<event>
 9    2  0.1488992E-004  0.1107515E+03  0.7546771E-02  0.1263768E+00
         21   -1    0    0  501  502  0.00000000000E+00  0.00000000000E+00  0.48798409681E+02  0.48798409681E+02  0.00000000000E+00 0. -1.
          2   -1    0    0  502    0 -0.00000000000E+00 -0.00000000000E+00 -0.41098301884E+03  0.41098301884E+03  0.00000000000E+00 0. -1.
         24    2    1    2    0    0 -0.47038274361E+02 -0.49737765027E+02 -0.29691391558E+03  0.31485582758E+03  0.79308728238E+02 0.  0.
         23    2    1    2    0    0  0.36705641393E+02  0.27730298926E+02 -0.64167525904E+02  0.12058820487E+03  0.91146970249E+02 0.  0.
        -11    1    3    3    0    0  0.64404985451E+01 -0.20366323603E+02 -0.14239346724E+02  0.25671504703E+02  0.00000000000E+00 0.  1.
         12    1    3    3    0    0 -0.53478772906E+02 -0.29371441424E+02 -0.28267456886E+03  0.28918432288E+03  0.00000000000E+00 0. -1.
        -11    1    4    4    0    0  0.63782845878E+02  0.25196728228E+02 -0.63379352053E+02  0.93381308667E+02  0.00000000000E+00 0.  1.
         11    1    4    4    0    0 -0.27077204485E+02  0.25335706988E+01 -0.78817385132E+00  0.27206896207E+02  0.00000000000E+00 0. -1.
          1    1    1    2  501    0  0.10332632968E+02  0.22007466100E+02 -0.11031676770E+01  0.24337396063E+02  0.00000000000E+00 0. -1.
<scales pt_clust_5="13000.00000" pt_clust_6="13000.00000" pt_clust_7="13000.00000" pt_clust_8="13000.00000" pt_clust_9="24.31238"></scales>
<clustering>
<clus scale="   24.312">  1  9  2 -1</clus>
<clus scale="   79.309">  5  6 -1 -1</clus>
<clus scale="   91.147">  7  8 -1 -1</clus>
<clus scale="  101.232">  2  5  1 -1</clus>
<clus scale="   24.312">  1  5  2 -1</clus>
</clustering>
</event>
<event>
 9    2  0.1488992E-004  0.1709781E+03  0.7546771E-02  0.1178356E+00
         21   -1    0    0  501  502  0.00000000000E+00  0.00000000000E+00  0.17388480867E+03  0.17388480867E+03  0.00000000000E+00 0.  1.
          2   -1    0    0  502    0 -0.00000000000E+00 -0.00000000000E+00 -0.69269237669E+03  0.69269237669E+03  0.00000000000E+00 0. -1.
         23    2    1    2    0    0  0.14881385163E+03  0.31218632666E+02 -0.58938368034E+03  0.61570072566E+03  0.92704344361E+02 0.  0.
         24    2    1    2    0    0 -0.11055643351E+03  0.20753430276E+02 -0.19257364223E+02  0.14026552499E+03  0.81548400143E+02 0.  0.
        -11    1    4    4    0    0 -0.10302566649E+03  0.32623799072E+02  0.92680934933E+01  0.10846426959E+03  0.00000000000E+00 0.  1.
         12    1    4    4    0    0 -0.75307670275E+01 -0.11870368796E+02 -0.28525457717E+02  0.31801255405E+02  0.00000000000E+00 0. -1.
        -13    1    3    3    0    0  0.11023456783E+03  0.58352621892E+02 -0.49101831701E+03  0.50661195807E+03  0.00000000000E+00 0. -1.
         13    1    3    3    0    0  0.38579283798E+02 -0.27133989226E+02 -0.98365363335E+02  0.10908876759E+03  0.00000000000E+00 0.  1.
          1    1    1    2  501    0 -0.38257418112E+02 -0.51972062942E+02  0.89833476544E+02  0.11061093470E+03  0.00000000000E+00 0. -1.
<scales pt_clust_5="13000.00000" pt_clust_6="13000.00000" pt_clust_7="13000.00000" pt_clust_8="13000.00000" pt_clust_9="64.53468"></scales>
<clustering>
<clus scale="   64.535">  1  9  2 -1</clus>
<clus scale="   81.548">  5  6 -1 -1</clus>
<clus scale="   92.704">  7  8 -1 -1</clus>
<clus scale="  165.195">  1  5  2 -1</clus>
<clus scale="   64.535">  1  5  2 -1</clus>
</clustering>
</event>
<event>
 9    2  0.1488992E-004  0.1393061E+03  0.7546771E-02  0.1233804E+00
          2   -1    0    0  502    0 -0.00000000000E+00  0.00000000000E+00  0.12734313683E+03  0.12734313683E+03  0.00000000000E+00 0. -1.
         21   -1    0    0  501  502  0.00000000000E+00 -0.00000000000E+00 -0.75641079365E+03  0.75641079365E+03  0.00000000000E+00 0. -1.
         24    2    1    2    0    0  0.24555591356E+02 -0.37186523957E+02  0.73453020178E+02  0.11825920135E+03  0.81265477916E+02 0.  0.
         23    2    1    2    0    0 -0.61677578231E+02 -0.66069474878E+02 -0.13025025394E+03  0.18279988591E+03  0.91002035540E+02 0.  0.
        -13    1    3    3    0    0  0.14379002258E+02  0.23447352528E+02  0.39177162066E+02  0.47868403713E+02  0.00000000000E+00 0.  1.
         14    1    3    3    0    0  0.10176589098E+02 -0.60633876485E+02  0.34275858112E+02  0.70390797641E+02  0.00000000000E+00 0. -1.
        -11    1    4    4    0    0 -0.26275123001E+02  0.17810934309E+02 -0.59717820863E+02  0.67630093880E+02  0.00000000000E+00 0.  1.
         11    1    4    4    0    0 -0.35402455229E+02 -0.83880409187E+02 -0.70532433072E+02  0.11516979203E+03  0.00000000000E+00 0. -1.
          1    1    1    2  501    0  0.37121986874E+02  0.10325599884E+03 -0.57227042305E+03  0.58269484321E+03  0.00000000000E+00 0. -1.
<scales pt_clust_5="13000.00000" pt_clust_6="13000.00000" pt_clust_7="13000.00000" pt_clust_8="13000.00000" pt_clust_9="105.47429"></scales>
<clustering>
<clus scale="   81.265">  5  6 -1 -1</clus>
<clus scale="   91.002">  7  8 -1 -1</clus>
<clus scale="   92.682">  1  5  2 -1</clus>
<clus scale="  105.474">  2  9  1 -1</clus>
<clus scale="  105.474">  2  5  1 -1</clus>
</clustering>
</event>
<event>
 9    2  0.1488992E-004  0.1425063E+03  0.7546771E-02  0.1213887E+00
          2   -1    0    0  502    0 -0.00000000000E+00  0.00000000000E+00  0.12543485088E+04  0.12543485088E+04  0.00000000000E+00 0. -1.
         21   -1    0    0  501  502  0.00000000000E+00 -0.00000000000E+00 -0.14801647139E+03  0.14801647139E+03  0.00000000000E+00 0. -1.
         24    2    1    2    0    0  0.75233740604E+02 -0.57979307792E+02  0.91467378173E+03  0.92312591079E+03  0.80694512353E+02 0.  0.
         23    2    1    2    0    0 -0.11802916387E+03  0.99797310652E+02  0.30233471489E+03  0.35342383888E+03  0.98039498807E+02 0.  0.
        -13    1    3    3    0    0  0.29080247178E+02  0.14396572457E+02  0.14002147066E+03  0.14373216175E+03  0.00000000000E+00 0.  1.
         14    1    3    3    0    0  0.46153493426E+02 -0.72375880249E+02  0.77465231107E+03  0.77939374904E+03  0.00000000000E+00 0. -1.
        -13    1    4    4    0    0 -0.24856123890E+02  0.57962191647E+02  0.47714128387E+02  0.79082745293E+02  0.00000000000E+00 0.  1.
         13    1    4    4    0    0 -0.93173039984E+02  0.41835119005E+02  0.25462058650E+03  0.27434109359E+03  0.00000000000E+00 0. -1.
          1    1    1    2  501    0  0.42795423271E+02 -0.41818002860E+02 -0.11067645919E+03  0.12581523053E+03  0.00000000000E+00 0. -1.
<scales pt_clust_5="13000.00000" pt_clust_6="13000.00000" pt_clust_7="13000.00000" pt_clust_8="13000.00000" pt_clust_9="59.83472"></scales>
<clustering>
<clus scale="   59.835">  2  9  1 -1</clus>
<clus scale="   80.695">  5  6 -1 -1</clus>
<clus scale="   98.039">  7  8 -1 -1</clus>
<clus scale="  131.179">  1  5  2 -1</clus>
<clus scale="   59.835">  2  5  1 -1</clus>
</clustering>
</event>
<event>
 9    2  0.1488992E-004  0.1315174E+03  0.7546771E-02  0.1228201E+00
         21   -1    0    0  501  502  0.00000000000E+00  0.00000000000E+00  0.88187658304E+02  0.88187658304E+02  0.00000000000E+00 0.  1.
         -1   -1    0    0    0  501 -0.00000000000E+00 -0.00000000000E+00 -0.47740469820E+03  0.47740469820E+03  0.00000000000E+00 0.  1.
         24    2    1    2    0    0  0.88751191358E+01  0.58016026635E+02 -0.13343864457E+03  0.16746221287E+03  0.82420226806E+02 0.  0.
         23    2    1    2    0    0  0.38635558646E+01 -0.14370451567E+03 -0.25981145306E+03  0.31140611843E+03  0.93839568252E+02 0.  0.
        -11    1    3    3    0    0  0.29329616537E+02  0.22476339552E+02 -0.11799375500E+03  0.12364440329E+03  0.00000000000E+00 0.  1.
         12    1    3    3    0    0 -0.20454497401E+02  0.35539687084E+02 -0.15444889566E+02  0.43817809572E+02  0.00000000000E+00 0. -1.
        -13    1    4    4    0    0  0.32929799289E+02 -0.13771955967E+03 -0.22241646660E+03  0.26366670895E+03  0.00000000000E+00 0.  1.
         13    1    4    4    0    0 -0.29066243424E+02 -0.59849560009E+01 -0.37394986462E+02  0.47739409481E+02  0.00000000000E+00 0. -1.
         -2    1    1    2    0  502 -0.12738675000E+02  0.85688489033E+02  0.40330577308E+01  0.86724025208E+02  0.00000000000E+00 0.  1.
<scales pt_clust_5="13000.00000" pt_clust_6="13000.00000" pt_clust_7="13000.00000" pt_clust_8="13000.00000" pt_clust_9="86.63020"></scales>
<clustering>
<clus scale="   82.420">  5  6 -1 -1</clus>
<clus scale="   86.630">  1  9  2 -1</clus>
<clus scale="   93.840">  7  8 -1 -1</clus>
<clus scale="  123.629">  2  5  1 -1</clus>
<clus scale="   86.630">  1  5  2 -1</clus>
</clustering>
</event>
<event>
 9    2  0.1488992E-004  0.2427970E+03  0.7546771E-02  0.1140074E+00
          2   -1    0    0  502    0 -0.00000000000E+00  0.00000000000E+00  0.38924648239E+03  0.38924648239E+03  0.00000000000E+00 0. -1.
         21   -1    0    0  501  502  0.00000000000E+00 -0.00000000000E+00 -0.29525990869E+03  0.29525990869E+03  0.00000000000E+00 0. -1.
         24    2    1    2    0    0 -0.93960532984E+02  0.67575099912E+02  0.11851505795E+03  0.18407739404E+03  0.80272611446E+02 0.  0.
         23    2    1    2    0    0  0.34885082773E+02  0.17875184390E+03  0.89227629043E+02  0.22274693896E+03  0.92116438986E+02 0.  0.
        -11    1    3    3    0    0 -0.30705079195E+02  0.20620984774E+02 -0.52602849307E+01  0.37359035038E+02  0.00000000000E+00 0.  1.
         12    1    3    3    0    0 -0.63255453790E+02  0.46954115138E+02  0.12377534288E+03  0.14671835900E+03  0.00000000000E+00 0. -1.
        -13    1    4    4    0    0  0.36862354657E+02  0.11226179679E+03  0.89595218919E+01  0.11849817400E+03  0.00000000000E+00 0. -1.
         13    1    4    4    0    0 -0.19772718843E+01  0.66490047116E+02  0.80268107151E+02  0.10424876496E+03  0.00000000000E+00 0.  1.
          1    1    1    2  501    0  0.59075450211E+02 -0.24632694381E+03 -0.11375611329E+03  0.27768205808E+03  0.00000000000E+00 0. -1.
<scales pt_clust_5="13000.00000" pt_clust_6="13000.00000" pt_clust_7="13000.00000" pt_clust_8="13000.00000" pt_clust_9="224.64401"></scales>
<clustering>
<clus scale="   80.273">  5  6 -1 -1</clus>
<clus scale="   92.116">  7  8 -1 -1</clus>
<clus scale="  140.850">  1  5  2 -1</clus>
<clus scale="  224.644">  2  9  1 -1</clus>
<clus scale="  224.644">  2  5  1 -1</clus>
</clustering>
</event>
<event>
 9    2  0.1488992E-004  0.1905512E+03  0.7546771E-02  0.1158793E+00
          2   -1    0    0  502    0 -0.00000000000E+00  0.00000000000E+00  0.11733809274E+04  0.11733809274E+04  0.00000000000E+00 0. -1.
         21   -1    0    0  501  502  0.00000000000E+00 -0.00000000000E+00 -0.67919032798E+02  0.67919032798E+02  0.00000000000E+00 0. -1.
         23    2    1    2    0    0  0.13039988070E+03  0.14160890480E+03  0.65928915450E+03  0.69287585870E+03  0.91419667042E+02 0.  0.
         24    2    1    2    0    0 -0.50810364791E+02 -0.87055750118E+02  0.49150403112E+02  0.13984452076E+03  0.83548375580E+02 0.  0.
        -11    1    4    4    0    0  0.22832528058E+02 -0.12216562844E+02  0.85152191608E+01  0.27259451619E+02  0.00000000000E+00 0.  1.
         12    1    4    4    0    0 -0.73642892849E+02 -0.74839187275E+02  0.40635183951E+02  0.11258506914E+03  0.00000000000E+00 0. -1.
        -13    1    3    3    0    0  0.72988059266E+02  0.26603733124E+02  0.16870953275E+03  0.18573616194E+03  0.00000000000E+00 0.  1.
         13    1    3    3    0    0  0.57411821432E+02  0.11500517168E+03  0.49057962175E+03  0.50713969676E+03  0.00000000000E+00 0. -1.
          1    1    1    2  501    0 -0.79589515906E+02 -0.54553154682E+02  0.39702233702E+03  0.40857958077E+03  0.00000000000E+00 0. -1.
<scales pt_clust_5="13000.00000" pt_clust_6="13000.00000" pt_clust_7="13000.00000" pt_clust_8="13000.00000" pt_clust_9="96.49118"></scales>
<clustering>
<clus scale="   83.548">  5  6 -1 -1</clus>
<clus scale="   91.420">  7  8 -1 -1</clus>
<clus scale="   96.491">  2  9  1 -1</clus>
<clus scale="  186.903">  2  5  1 -1</clus>
<clus scale="   96.491">  2  5  1 -1</clus>
</clustering>
</event>
<event>
 9    2  0.1488992E-004  0.1174385E+03  0.7546771E-02  0.1252447E+00
          2   -1    0    0  502    0 -0.00000000000E+00  0.00000000000E+00  0.19692171426E+03  0.19692171426E+03  0.00000000000E+00 0. -1.
         21   -1    0    0  501  502  0.00000000000E+00 -0.00000000000E+00 -0.37454038716E+03  0.37454038716E+03  0.00000000000E+00 0.  1.
         23    2    1    2    0    0 -0.58354343555E+02  0.35111467011E+02  0.16194593846E+03  0.19965883341E+03  0.94863682454E+02 0.  0.
         24    2    1    2    0    0  0.78836039009E+02 -0.41892986557E+02 -0.32290688911E+03  0.34454581826E+03  0.80453828229E+02 0.  0.
        -13    1    4    4    0    0  0.66691217855E+02 -0.18614660042E-01 -0.25707728751E+03  0.26558699261E+03  0.00000000000E+00 0.  1.
         14    1    4    4    0    0  0.12144821154E+02 -0.41874371897E+02 -0.65829601599E+02  0.78958825658E+02  0.00000000000E+00 0. -1.
        -13    1    3    3    0    0 -0.81854969882E+02  0.35753730246E+02  0.14632163732E+03  0.17143099740E+03  0.00000000000E+00 0. -1.
         13    1    3    3    0    0  0.23500626327E+02 -0.64226323577E+00  0.15624301132E+02  0.28227836008E+02  0.00000000000E+00 0.  1.
          1    1    1    2  501    0 -0.20481695454E+02  0.67815195462E+01 -0.16657722246E+02  0.27257449742E+02  0.00000000000E+00 0. -1.
<scales pt_clust_5="13000.00000" pt_clust_6="13000.00000" pt_clust_7="13000.00000" pt_clust_8="13000.00000" pt_clust_9="21.57519"></scales>
<clustering>
<clus scale="   21.575">  2  9  1 -1</clus>
<clus scale="   80.454">  5  6 -1 -1</clus>
<clus scale="   94.864">  7  8 -1 -1</clus>
<clus scale="  106.139">  2  5  1 -1</clus>
<clus scale="   21.575">  2  5  1 -1</clus>
</clustering>
</event>
<event>
 9    2  0.1488992E-004  0.1121976E+03  0.7546771E-02  0.1258952E+00
         21   -1    0    0  501  502  0.00000000000E+00  0.00000000000E+00  0.15429118237E+03  0.15429118237E+03  0.00000000000E+00 0. -1.
          2   -1    0    0  502    0 -0.00000000000E+00 -0.00000000000E+00 -0.13065287316E+03  0.13065287316E+03  0.00000000000E+00 0. -1.
         24    2    1    2    0    0  0.40370688768E+02 -0.32702473440E+02  0.12420331476E+02  0.94329193090E+02  0.77746303799E+02 0.  0.
         23    2    1    2    0    0 -0.78936275522E+02  0.69560213963E+02  0.19947711682E+02  0.13655928203E+03  0.84740588545E+02 0.  0.
        -11    1    3    3    0    0 -0.18744549089E+02 -0.28384790723E+02  0.14254692235E+01  0.34045358384E+02  0.00000000000E+00 0.  1.
         12    1    3    3    0    0  0.59115237857E+02 -0.43176827163E+01  0.10994862253E+02  0.60283834706E+02  0.00000000000E+00 0. -1.
        -13    1    4    4    0    0 -0.82725875751E+01  0.50444255556E+02  0.34832578310E+02  0.61857636032E+02  0.00000000000E+00 0.  1.
         13    1    4    4    0    0 -0.70663687947E+02  0.19115958407E+02 -0.14884866628E+02  0.74701645997E+02  0.00000000000E+00 0. -1.
          1    1    1    2  501    0  0.38565586755E+02 -0.36857740524E+02 -0.87297339432E+01  0.54055580406E+02  0.00000000000E+00 0. -1.
<scales pt_clust_5="13000.00000" pt_clust_6="13000.00000" pt_clust_7="13000.00000" pt_clust_8="13000.00000" pt_clust_9="53.34604"></scales>
<clustering>
<clus scale="   53.346">  1  9  2 -1</clus>
<clus scale="   77.746">  5  6 -1 -1</clus>
<clus scale="   84.741">  7  8 -1 -1</clus>
<clus scale="  107.013">  2  5  1 -1</clus>
<clus scale="   53.346">  1  5  2 -1</clus>
</clustering>
</event>
<event>
 9    2  0.1488992E-004  0.1103710E+03  0.7546771E-02  0.1263799E+00
         21   -1    0    0  501  502  0.00000000000E+00  0.00000000000E+00  0.38304804360E+03  0.38304804360E+03  0.00000000000E+00 0.  1.
          2   -1    0    0  502    0 -0.00000000000E+00 -0.00000000000E+00 -0.85645431661E+02  0.85645431661E+02  0.00000000000E+00 0. -1.
         24    2    1    2    0    0  0.22841085793E+02 -0.66752347716E+02  0.11190567338E+03  0.15471360019E+03  0.80223607645E+02 0.  0.
         23    2    1    2    0    0 -0.74331600275E+01  0.50046270175E+02  0.23647561141E+03  0.25816480283E+03  0.90379586199E+02 0.  0.
        -11    1    3    3    0    0  0.22122425888E+02 -0.77429138148E+02  0.56714767355E+02  0.98494862798E+02  0.00000000000E+00 0.  1.
         12    1    3    3    0    0  0.71865990506E+00  0.10676790433E+02  0.55190906028E+02  0.56218737394E+02  0.00000000000E+00 0. -1.
        -13    1    4    4    0    0  0.30225242046E+02  0.50791045415E+02  0.18613078464E+03  0.19528943787E+03  0.00000000000E+00 0.  1.
         13    1    4    4    0    0 -0.37658402073E+02 -0.74477523920E+00  0.50344826772E+02  0.62875364966E+02  0.00000000000E+00 0. -1.
          1    1    1    2  501    0 -0.15407925766E+02  0.16706077540E+02 -0.50978672853E+02  0.55815072239E+02  0.00000000000E+00 0. -1.
<scales pt_clust_5="13000.00000" pt_clust_6="13000.00000" pt_clust_7="13000.00000" pt_clust_8="13000.00000" pt_clust_9="22.72659"></scales>
<clustering>
<clus scale="   22.727">  1  9  2 -1</clus>
<clus scale="   80.224">  5  6 -1 -1</clus>
<clus scale="   90.380">  7  8 -1 -1</clus>
<clus scale="  102.221">  2  5  1 -1</clus>
<clus scale="   22.727">  1  5  2 -1</clus>
</clustering>
</event>
<event>
 9    2  0.1488992E-004  0.9330815E+02  0.7546771E-02  0.1301464E+00
         -1   -1    0    0    0  501 -0.00000000000E+00  0.00000000000E+00  0.46160173482E+02  0.46160173482E+02  0.00000000000E+00 0.  1.
         21   -1    0    0  501  502  0.00000000000E+00 -0.00000000000E+00 -0.26920826366E+03  0.26920826366E+03  0.00000000000E+00 0. -1.
         23    2    1    2    0    0  0.52740014952E+01 -0.87634860263E+01 -0.34342305283E+02  0.99150938308E+02  0.92449450274E+02 0.  0.
         24    2    1    2    0    0 -0.24046816623E+02  0.14092682514E+01 -0.15043649374E+03  0.17296195870E+03  0.81880798003E+02 0.  0.
        -13    1    4    4    0    0 -0.65717332184E+00  0.39948504929E+02 -0.63306562030E+02  0.74860107660E+02  0.00000000000E+00 0.  1.
         14    1    4    4    0    0 -0.23389643301E+02 -0.38539236678E+02 -0.87129931712E+02  0.98101851041E+02  0.00000000000E+00 0. -1.
        -11    1    3    3    0    0 -0.16910273618E+02  0.36445900715E+02 -0.40459977744E+01  0.40381073917E+02  0.00000000000E+00 0. -1.
         11    1    3    3    0    0  0.22184275113E+02 -0.45209386741E+02 -0.30296307509E+02  0.58769864390E+02  0.00000000000E+00 0.  1.
         -2    1    1    2    0  502  0.18772815128E+02  0.73542177749E+01 -0.38269291152E+02  0.43255540133E+02  0.00000000000E+00 0.  1.
<scales pt_clust_5="13000.00000" pt_clust_6="13000.00000" pt_clust_7="13000.00000" pt_clust_8="13000.00000" pt_clust_9="20.16192"></scales>
<clustering>
<clus scale="   20.162">  2  9  1 -1</clus>
<clus scale="   81.881">  5  6 -1 -1</clus>
<clus scale="   82.849">  2  5  1 -1</clus>
<clus scale="   92.449">  7  8 -1 -1</clus>
<clus scale="   20.162">  2  5  1 -1</clus>
</clustering>
</event>
<event>
 9    2  0.1488992E-004  0.3890338E+03  0.7546771E-02  0.1086425E+00
          2   -1    0    0  502    0 -0.00000000000E+00  0.00000000000E+00  0.14483056158E+04  0.14483056158E+04  0.00000000000E+00 0. -1.
         21   -1    0    0  501  502  0.00000000000E+00 -0.00000000000E+00 -0.16687331507E+03  0.16687331507E+03  0.00000000000E+00 0. -1.
         23    2    1    2    0    0 -0.94338781569E+02 -0.38775512381E+01  0.20077275775E+03  0.24099251154E+03  0.94089581003E+02 0.  0.
         24    2    1    2    0    0  0.98596060594E+02 -0.37264678466E+03  0.26228092379E+03  0.47333556358E+03  0.81660660520E+02 0.  0.
        -11    1    4    4    0    0 -0.36894217879E+00 -0.35084329937E+02  0.92028347752E+00  0.35098336814E+02  0.00000000000E+00 0.  1.
         12    1    4    4    0    0  0.98965002773E+02 -0.33756245473E+03  0.26136064031E+03  0.43823722676E+03  0.00000000000E+00 0. -1.
        -13    1    3    3    0    0 -0.70760114418E+02 -0.40079846761E+02  0.16839338163E+03  0.18700192214E+03  0.00000000000E+00 0. -1.
         13    1    3    3    0    0 -0.23578667151E+02  0.36202295523E+02  0.32379376126E+02  0.53990589403E+02  0.00000000000E+00 0.  1.
          1    1    1    2  501    0 -0.42572790253E+01  0.37652433590E+03  0.81837861917E+03  0.90085085573E+03  0.00000000000E+00 0. -1.
<scales pt_clust_5="13000.00000" pt_clust_6="13000.00000" pt_clust_7="13000.00000" pt_clust_8="13000.00000" pt_clust_9="380.36685"></scales>
<clustering>
<clus scale="   81.661">  5  6 -1 -1</clus>
<clus scale="   94.090">  7  8 -1 -1</clus>
<clus scale="  133.296">  1  7  2 -1</clus>
<clus scale="  380.367">  2  9  1 -1</clus>
<clus scale="  380.367">  2  5  1 -1</clus>
</clustering>
</event>
<event>
 9    2  0.1488992E-004  0.1807484E+03  0.7546771E-02  0.1168805E+00
         21   -1    0    0  501  502  0.00000000000E+00  0.00000000000E+00  0.50559284586E+02  0.50559284586E+02  0.00000000000E+00 0. -1.
          2   -1    0    0  502    0 -0.00000000000E+00 -0.00000000000E+00 -0.10264631886E+04  0.10264631886E+04  0.00000000000E+00 0. -1.
         23    2    1    2    0    0  0.14139170871E+03 -0.59758524343E+02 -0.42527940162E+03  0.46094810008E+03  0.89710004997E+02 0.  0.
         24    2    1    2    0    0 -0.10772512199E+03  0.13631022388E+03 -0.33291060018E+03  0.38285142188E+03  0.74569192590E+02 0.  0.
        -11    1    4    4    0    0 -0.41334523267E+02  0.67699453561E+02 -0.22600194707E+03  0.23951751274E+03  0.00000000000E+00 0.  1.
         12    1    4    4    0    0 -0.66390598719E+02  0.68610770314E+02 -0.10690865310E+03  0.14333390914E+03  0.00000000000E+00 0. -1.
        -13    1    3    3    0    0  0.10254783399E+03 -0.37798263525E+02 -0.17212782233E+03  0.20389397784E+03  0.00000000000E+00 0. -1.
         13    1    3    3    0    0  0.38843874723E+02 -0.21960260819E+02 -0.25315157930E+03  0.25705412224E+03  0.00000000000E+00 0.  1.
          1    1    1    2  501    0 -0.33666586722E+02 -0.76551699532E+02 -0.21771390218E+03  0.23322295120E+03  0.00000000000E+00 0. -1.
<scales pt_clust_5="13000.00000" pt_clust_6="13000.00000" pt_clust_7="13000.00000" pt_clust_8="13000.00000" pt_clust_9="83.62780"></scales>
<clustering>
<clus scale="   74.569">  5  6 -1 -1</clus>
<clus scale="   83.628">  1  9  2 -1</clus>
<clus scale="   89.710">  7  8 -1 -1</clus>
<clus scale="  173.732">  1  5  2 -1</clus>
<clus scale="   83.628">  1  5  2 -1</clus>
</clustering>
</event>
<event>
 9    2  0.1488992E-004  0.1077253E+03  0.7546771E-02  0.1268983E+00
         21   -1    0    0  501  502  0.00000000000E+00  0.00000000000E+00  0.97850929142E+02  0.97850929142E+02  0.00000000000E+00 0.  1.
          2   -1    0    0  502    0 -0.00000000000E+00 -0.00000000000E+00 -0.23526361971E+03  0.23526361971E+03  0.00000000000E+00 0. -1.
         24    2    1    2    0    0 -0.23789691510E+02 -0.59606176471E+02 -0.13945445818E+03  0.17322497644E+03  0.80252731168E+02 0.  0.
         23    2    1    2    0    0  0.30381096962E+02  0.38195896489E+02 -0.41619621812E+02  0.11081652848E+03  0.90366877251E+02 0.  0.
        -11    1    3    3    0    0 -0.51133712928E+02 -0.36735233443E+02 -0.64024895149E+02  0.89795997532E+02  0.00000000000E+00 0.  1.
         12    1    3    3    0    0  0.27344021418E+02 -0.22870943028E+02 -0.75429563030E+02  0.83428978905E+02  0.00000000000E+00 0. -1.
        -11    1    4    4    0    0 -0.18334143019E+02 -0.10480648656E+02 -0.35979686085E+02  0.41719571034E+02  0.00000000000E+00 0.  1.
         11    1    4    4    0    0  0.48715239982E+02  0.48676545145E+02 -0.56399357274E+01  0.69096957449E+02  0.00000000000E+00 0. -1.
          1    1    1    2  501    0 -0.65914054525E+01  0.21410279982E+02  0.43661389421E+02  0.49073043934E+02  0.00000000000E+00 0. -1.
<scales pt_clust_5="13000.00000" pt_clust_6="13000.00000" pt_clust_7="13000.00000" pt_clust_8="13000.00000" pt_clust_9="22.40194"></scales>
<clustering>
<clus scale="   22.402">  1  9  2 -1</clus>
<clus scale="   80.253">  5  6 -1 -1</clus>
<clus scale="   90.367">  7  8 -1 -1</clus>
<clus scale="   99.394">  2  5  1 -1</clus>
<clus scale="   22.402">  1  5  2 -1</clus>
</clustering>
</event>
<event>
 9    2  0.1488992E-004  0.1113133E+03  0.7546771E-02  0.1264312E+00
         21   -1    0    0  501  502  0.00000000000E+00  0.00000000000E+00  0.11792810131E+03  0.11792810131E+03  0.00000000000E+00 0. -1.
         -3   -1    0    0    0  501 -0.00000000000E+00 -0.00000000000E+00 -0.42113877933E+03  0.42113877933E+03  0.00000000000E+00 0.  1.
         23    2    1    2    0    0 -0.40682858808E+02  0.42574191362E+02 -0.34694762593E+03  0.36431728865E+03  0.94269692390E+02 0.  0.
         24    2    1    2    0    0  0.58103500383E+02 -0.27233499547E+02 -0.22833786995E+02  0.10424797269E+03  0.78921338856E+02 0.  0.
        -11    1    4    4    0    0  0.61773179835E+02 -0.10007046214E+02 -0.44158481033E+02  0.76590065726E+02  0.00000000000E+00 0.  1.
         12    1    4    4    0    0 -0.36696794522E+01 -0.17226453333E+02  0.21324694038E+02  0.27657906962E+02  0.00000000000E+00 0. -1.
        -11    1    3    3    0    0 -0.56138753921E+02 -0.66339927868E+01 -0.22327733562E+03  0.23032224850E+03  0.00000000000E+00 0. -1.
         11    1    3    3    0    0  0.15455895113E+02  0.49208184149E+02 -0.12367029031E+03  0.13399504016E+03  0.00000000000E+00 0.  1.
         -4    1    1    2    0  502 -0.17420641575E+02 -0.15340691815E+02  0.66570734900E+02  0.70501619296E+02  0.00000000000E+00 0.  1.
<scales pt_clust_5="13000.00000" pt_clust_6="13000.00000" pt_clust_7="13000.00000" pt_clust_8="13000.00000" pt_clust_9="23.21240"></scales>
<clustering>
<clus scale="   23.212">  1  9  2 -1</clus>
<clus scale="   78.921">  5  6 -1 -1</clus>
<clus scale="   94.270">  7  8 -1 -1</clus>
<clus scale="   98.653">  1  5  2 -1</clus>
<clus scale="   23.212">  1  5  2 -1</clus>
</clustering>
</event>
<event>
 9    2  0.1488992E-004  0.3821558E+03  0.7546771E-02  0.1050270E+00
          2   -1    0    0  502    0 -0.00000000000E+00  0.00000000000E+00  0.16979114922E+04  0.16979114922E+04  0.00000000000E+00 0. -1.
         21   -1    0    0  501  502  0.00000000000E+00 -0.00000000000E+00 -0.13625832930E+03  0.13625832930E+03  0.00000000000E+00 0. -1.
         24    2    1    2    0    0 -0.23014270234E+03 -0.29873051538E+03  0.12690849915E+04  0.13266215973E+04  0.84513681587E+02 0.  0.
         23    2    1    2    0    0  0.18744172364E+03  0.30079496108E+03  0.28586423960E+03  0.46427492738E+03  0.90668827809E+02 0.  0.
        -11    1    3    3    0    0  0.35082475680E+01 -0.22477876494E+02  0.49078635565E+02  0.54095057091E+02  0.00000000000E+00 0.  1.
         12    1    3    3    0    0 -0.23365094991E+03 -0.27625263889E+03  0.12200063560E+04  0.12725265402E+04  0.00000000000E+00 0. -1.
        -11    1    4    4    0    0  0.55266088998E+01  0.77861454669E+02  0.63744475722E+02  0.10077850820E+03  0.00000000000E+00 0.  1.
         11    1    4    4    0    0  0.18191511474E+03  0.22293350641E+03  0.22211976388E+03  0.36349641918E+03  0.00000000000E+00 0. -1.
          1    1    1    2  501    0  0.42700978697E+02 -0.20644456936E+01  0.67039317639E+01  0.43273296833E+02  0.00000000000E+00 0. -1.
<scales pt_clust_5="13000.00000" pt_clust_6="13000.00000" pt_clust_7="13000.00000" pt_clust_8="13000.00000" pt_clust_9="42.75085"></scales>
<clustering>
<clus scale="   42.751">  2  9  1 -1</clus>
<clus scale="   84.514">  5  6 -1 -1</clus>
<clus scale="   90.669">  7  8 -1 -1</clus>
<clus scale="  380.742">  1  5  2 -1</clus>
<clus scale="   42.751">  2  5  1 -1</clus>
</clustering>
</event>
<event>
 9    2  0.1488992E-004  0.1182610E+03  0.7546771E-02  0.1256990E+00
         21   -1    0    0  501  502  0.00000000000E+00  0.00000000000E+00  0.18789242198E+03  0.18789242198E+03  0.00000000000E+00 0.  1.
          2   -1    0    0  502    0 -0.00000000000E+00 -0.00000000000E+00 -0.13615435016E+03  0.13615435016E+03  0.00000000000E+00 0. -1.
         23    2    1    2    0    0  0.28523411593E+02 -0.18339422582E+02  0.63889847117E+02  0.11447438699E+03  0.88727409987E+02 0.  0.
         24    2    1    2    0    0 -0.20748379149E+02 -0.77123712698E+02 -0.17453832894E+02  0.11364651198E+03  0.78945114513E+02 0.  0.
        -11    1    4    4    0    0 -0.21051341631E+02 -0.82580359272E+02 -0.37325598252E+02  0.93036955060E+02  0.00000000000E+00 0.  1.
         12    1    4    4    0    0  0.30296248200E+00  0.54566465740E+01  0.19871765358E+02  0.20609556922E+02  0.00000000000E+00 0. -1.
        -11    1    3    3    0    0 -0.16182609456E+02  0.25341767873E+02  0.33368493298E+02  0.44917016739E+02  0.00000000000E+00 0.  1.
         11    1    3    3    0    0  0.44706021049E+02 -0.43681190455E+02  0.30521353819E+02  0.69557370253E+02  0.00000000000E+00 0. -1.
          1    1    1    2  501    0 -0.77750324443E+01  0.95463135280E+02  0.53020575990E+01  0.95925873161E+02  0.00000000000E+00 0. -1.
<scales pt_clust_5="13000.00000" pt_clust_6="13000.00000" pt_clust_7="13000.00000" pt_clust_8="13000.00000" pt_clust_9="88.05305"></scales>
<clustering>
<clus scale="   78.945">  5  6 -1 -1</clus>
<clus scale="   88.727">  7  8 -1 -1</clus>
<clus scale="   94.987">  2  7  1 -1</clus>
<clus scale="   88.053">  1  9  2 -1</clus>
<clus scale="   88.053">  1  5  2 -1</clus>
</clustering>
</event>
<event>
 9    2  0.1488992E-004  0.1024040E+03  0.7546771E-02  0.1280507E+00
         21   -1    0    0  501  502  0.00000000000E+00  0.00000000000E+00  0.67346772281E+02  0.67346772281E+02  0.00000000000E+00 0.  1.
          4   -1    0    0  502    0 -0.00000000000E+00 -0.00000000000E+00 -0.27498421625E+03  0.27498421625E+03  0.00000000000E+00 0. -1.
         23    2    1    2    0    0 -0.41771032806E+02 -0.45901547646E+02 -0.18172415458E+03  0.21243598573E+03  0.90849372132E+02 0.  0.
         24    2    1    2    0    0  0.13651770265E+02  0.10471999967E+02 -0.21644091054E+02  0.84461844986E+02  0.79807912930E+02 0.  0.
        -13    1    4    4    0    0  0.14750313372E+02 -0.13784690048E+02  0.24845004003E+02  0.32013491659E+02  0.00000000000E+00 0.  1.
         14    1    4    4    0    0 -0.10985431078E+01  0.24256690015E+02 -0.46489095057E+02  0.52448353327E+02  0.00000000000E+00 0. -1.
        -11    1    3    3    0    0 -0.58617009869E+02 -0.21083214969E+02 -0.57954166034E+02  0.85083142632E+02  0.00000000000E+00 0.  1.
         11    1    3    3    0    0  0.16845977063E+02 -0.24818332677E+02 -0.12376998855E+03  0.12735284310E+03  0.00000000000E+00 0. -1.
          3    1    1    2  501    0  0.28119262542E+02  0.35429547679E+02 -0.42691983341E+01  0.45433157815E+02  0.00000000000E+00 0. -1.
<scales pt_clust_5="13000.00000" pt_clust_6="13000.00000" pt_clust_7="13000.00000" pt_clust_8="13000.00000" pt_clust_9="45.23213"></scales>
<clustering>
<clus scale="   45.232">  1  9  2 -1</clus>
<clus scale="   79.808">  5  6 -1 -1</clus>
<clus scale="   90.849">  7  8 -1 -1</clus>
<clus scale="   92.748">  1  5  2 -1</clus>
<clus scale="   45.232">  1  5  2 -1</clus>
</clustering>
</event>
<event>
 9    2  0.1488992E-004  0.1990734E+03  0.7546771E-02  0.1151453E+00
         21   -1    0    0  501  502  0.00000000000E+00  0.00000000000E+00  0.48716974853E+03  0.48716974853E+03  0.00000000000E+00 0. -1.
         -1   -1    0    0    0  501 -0.00000000000E+00 -0.00000000000E+00 -0.27120017919E+03  0.27120017919E+03  0.00000000000E+00 0.  1.
         23    2    1    2    0    0 -0.43378556777E+02 -0.21211226369E+03 -0.15248761117E+03  0.27999781827E+03  0.90956006294E+02 0.  0.
         24    2    1    2    0    0  0.84162759866E+02  0.77924579850E+02  0.90597125462E+02  0.16712318029E+03  0.81035226631E+02 0.  0.
        -11    1    4    4    0    0  0.25369231536E+02  0.52362974873E+02  0.25919426486E+01  0.58242572170E+02  0.00000000000E+00 0.  1.
         12    1    4    4    0    0  0.58793528330E+02  0.25561604977E+02  0.88005182814E+02  0.10888060812E+03  0.00000000000E+00 0. -1.
        -13    1    3    3    0    0 -0.20744136100E+02 -0.18350807722E+03 -0.15808137214E+03  0.24309515381E+03  0.00000000000E+00 0.  1.
         13    1    3    3    0    0 -0.22634420677E+02 -0.28604186469E+02  0.55937609651E+01  0.36902664466E+02  0.00000000000E+00 0. -1.
         -2    1    1    2    0  502 -0.40784203089E+02  0.13418768384E+03  0.27786005505E+03  0.31124892917E+03  0.00000000000E+00 0.  1.
<scales pt_clust_5="13000.00000" pt_clust_6="13000.00000" pt_clust_7="13000.00000" pt_clust_8="13000.00000" pt_clust_9="140.24866"></scales>
<clustering>
<clus scale="   81.035">  5  6 -1 -1</clus>
<clus scale="   90.956">  7  8 -1 -1</clus>
<clus scale="  140.249">  1  9  2 -1</clus>
<clus scale="  194.741">  1  5  2 -1</clus>
<clus scale="  140.249">  1  5  2 -1</clus>
</clustering>
</event>
<event>
 9    2  0.1488992E-004  0.1414956E+03  0.7546771E-02  0.1213868E+00
         21   -1    0    0  501  502  0.00000000000E+00  0.00000000000E+00  0.97130264155E+02  0.97130264155E+02  0.00000000000E+00 0.  1.
          2   -1    0    0  502    0 -0.00000000000E+00 -0.00000000000E+00 -0.42157500314E+03  0.42157500314E+03  0.00000000000E+00 0. -1.
         24    2    1    2    0    0 -0.27002465757E+02 -0.11024729359E+03 -0.31609683111E+03  0.34521379952E+03  0.79823316403E+02 0.  0.
         23    2    1    2    0    0  0.99959881325E+01  0.77811179901E+02  0.25765148847E+02  0.12344126906E+03  0.91757313146E+02 0.  0.
        -11    1    3    3    0    0 -0.50941207848E+02 -0.41782742282E+02 -0.13826416523E+03  0.15315934055E+03  0.00000000000E+00 0.  1.
         12    1    3    3    0    0  0.23938742091E+02 -0.68464551307E+02 -0.17783266588E+03  0.19205445897E+03  0.00000000000E+00 0. -1.
        -11    1    4    4    0    0 -0.16740236942E+02  0.84933486242E+02  0.36252365817E+02  0.93851833469E+02  0.00000000000E+00 0.  1.
         11    1    4    4    0    0  0.26736225075E+02 -0.71223063412E+01 -0.10487216969E+02  0.29589435592E+02  0.00000000000E+00 0. -1.
          1    1    1    2  501    0  0.17006477624E+02  0.32436113689E+02 -0.34113056728E+02  0.50050198718E+02  0.00000000000E+00 0. -1.
<scales pt_clust_5="13000.00000" pt_clust_6="13000.00000" pt_clust_7="13000.00000" pt_clust_8="13000.00000" pt_clust_9="36.62408"></scales>
<clustering>
<clus scale="   36.624">  1  9  2 -1</clus>
<clus scale="   79.823">  5  6 -1 -1</clus>
<clus scale="   91.757">  7  8 -1 -1</clus>
<clus scale="  134.065">  2  5  1 -1</clus>
<clus scale="   36.624">  1  5  2 -1</clus>
</clustering>
</event>
<event>
 9    2  0.1488992E-004  0.1169355E+03  0.7546771E-02  0.1250885E+00
         21   -1    0    0  501  502  0.00000000000E+00  0.00000000000E+00  0.33305101348E+02  0.33305101348E+02  0.00000000000E+00 0.  1.
          2   -1    0    0  502    0 -0.00000000000E+00 -0.00000000000E+00 -0.93305428509E+03  0.93305428509E+03  0.00000000000E+00 0. -1.
         23    2    1    2    0    0 -0.29186709552E+00  0.33672797603E+02 -0.14054934415E+03  0.16999174707E+03  0.89493762063E+02 0.  0.
         24    2    1    2    0    0 -0.28757498926E+02 -0.11313556592E+03 -0.33796678689E+03  0.36672187608E+03  0.81466160690E+02 0.  0.
        -13    1    4    4    0    0 -0.52145699323E+02 -0.88252415312E+02 -0.20185402387E+03  0.22639061315E+03  0.00000000000E+00 0.  1.
         14    1    4    4    0    0  0.23388200398E+02 -0.24883150605E+02 -0.13611276301E+03  0.14033126294E+03  0.00000000000E+00 0. -1.
        -11    1    3    3    0    0 -0.26890168474E+02  0.36730496967E+02 -0.26143137165E+02  0.52494515797E+02  0.00000000000E+00 0. -1.
         11    1    3    3    0    0  0.26598301378E+02 -0.30576993636E+01 -0.11440620698E+03  0.11749723128E+03  0.00000000000E+00 0.  1.
          1    1    1    2  501    0  0.29049366021E+02  0.79462768314E+02 -0.42123305271E+03  0.42964576328E+03  0.00000000000E+00 0. -1.
<scales pt_clust_5="13000.00000" pt_clust_6="13000.00000" pt_clust_7="13000.00000" pt_clust_8="13000.00000" pt_clust_9="84.60617"></scales>
<clustering>
<clus scale="   81.466">  5  6 -1 -1</clus>
<clus scale="   84.606">  1  9  2 -1</clus>
<clus scale="   89.494">  7  8 -1 -1</clus>
<clus scale="  110.912">  1  5  2 -1</clus>
<clus scale="   84.606">  1  5  2 -1</clus>
</clustering>
</event>
<event>
 9    2  0.1488992E-004  0.2793497E+03  0.7546771E-02  0.1096435E+00
         21   -1    0    0  501  502  0.00000000000E+00  0.00000000000E+00  0.24209528989E+03  0.24209528989E+03  0.00000000000E+00 0.  1.
          2   -1    0    0  502    0 -0.00000000000E+00 -0.00000000000E+00 -0.54326168091E+03  0.54326168091E+03  0.00000000000E+00 0. -1.
         23    2    1    2    0    0  0.13072765988E+01  0.21873694184E+03 -0.12526735244E+03  0.26774184159E+03  0.90256442728E+02 0.  0.
         24    2    1    2    0    0  0.13095375861E+02 -0.34721372930E+03 -0.11636697395E+03  0.37528527276E+03  0.81048754716E+02 0.  0.
        -11    1    4    4    0    0  0.10177943644E+02 -0.35112628240E+03 -0.11725045390E+03  0.37032543211E+03  0.00000000000E+00 0.  1.
         12    1    4    4    0    0  0.29174322167E+01  0.39125530939E+01  0.88347995840E+00  0.49598406516E+01  0.00000000000E+00 0. -1.
        -13    1    3    3    0    0  0.35168989329E+02  0.17406038800E+03 -0.76178635024E+02  0.19322800241E+03  0.00000000000E+00 0.  1.
         13    1    3    3    0    0 -0.33861712730E+02  0.44676553840E+02 -0.49088717419E+02  0.74513839183E+02  0.00000000000E+00 0. -1.
          1    1    1    2  501    0 -0.14402652459E+02  0.12847678747E+03 -0.59532064637E+02  0.14232985644E+03  0.00000000000E+00 0. -1.
<scales pt_clust_5="13000.00000" pt_clust_6="13000.00000" pt_clust_7="13000.00000" pt_clust_8="13000.00000" pt_clust_9="129.28162"></scales>
<clustering>
<clus scale="   81.049">  5  6 -1 -1</clus>
<clus scale="   90.256">  7  8 -1 -1</clus>
<clus scale="  129.282">  1  9  2 -1</clus>
<clus scale="  276.512">  1  5  2 -1</clus>
<clus scale="  129.282">  1  5  2 -1</clus>
</clustering>
</event>
<event>
 9    2  0.1488992E-004  0.9915396E+02  0.7546771E-02  0.1286393E+00
          2   -1    0    0  502    0 -0.00000000000E+00  0.00000000000E+00  0.31380623247E+03  0.31380623247E+03  0.00000000000E+00 0. -1.
         21   -1    0    0  501  502  0.00000000000E+00 -0.00000000000E+00 -0.47508881842E+02  0.47508881842E+02  0.00000000000E+00 0. -1.
         24    2    1    2    0    0  0.24980752233E+02  0.35999764301E+02  0.16541197429E+03  0.18914818101E+03  0.80597097542E+02 0.  0.
         23    2    1    2    0    0 -0.49752343340E+02 -0.10778672306E+02  0.64033223351E+02  0.12110014970E+03  0.89294552572E+02 0.  0.
        -13    1    3    3    0    0 -0.23424412339E+02  0.22733233191E+02  0.10831964277E+03  0.11313110975E+03  0.00000000000E+00 0.  1.
         14    1    3    3    0    0  0.48405164572E+02  0.13266531110E+02  0.57092331518E+02  0.76017071261E+02  0.00000000000E+00 0. -1.
        -11    1    4    4    0    0 -0.54234364433E+02  0.13899795175E+02  0.41083032101E+01  0.56137765779E+02  0.00000000000E+00 0. -1.
         11    1    4    4    0    0  0.44820210929E+01 -0.24678467481E+02  0.59924920141E+02  0.64962383917E+02  0.00000000000E+00 0.  1.
          1    1    1    2  501    0  0.24771591107E+02 -0.25221091995E+02  0.36852152993E+02  0.51066783603E+02  0.00000000000E+00 0. -1.
<scales pt_clust_5="13000.00000" pt_clust_6="13000.00000" pt_clust_7="13000.00000" pt_clust_8="13000.00000" pt_clust_9="35.35159"></scales>
<clustering>
<clus scale="   35.352">  2  9  1 -1</clus>
<clus scale="   80.597">  5  6 -1 -1</clus>
<clus scale="   89.295">  7  8 -1 -1</clus>
<clus scale="   91.400">  1  5  2 -1</clus>
<clus scale="   35.352">  2  5  1 -1</clus>
</clustering>
</event>
<event>
 9    2  0.1488992E-004  0.2051901E+03  0.7546771E-02  0.1146324E+00
          2   -1    0    0  502    0 -0.00000000000E+00  0.00000000000E+00  0.75191416898E+03  0.75191416898E+03  0.00000000000E+00 0. -1.
         21   -1    0    0  501  502  0.00000000000E+00 -0.00000000000E+00 -0.11361041658E+03  0.11361041658E+03  0.00000000000E+00 0. -1.
         23    2    1    2    0    0 -0.12082311720E+03  0.13480358472E+03  0.38631097981E+03  0.43605554204E+03  0.90211033242E+02 0.  0.
         24    2    1    2    0    0  0.14958270762E+03 -0.11724296240E+03  0.30411063602E+03  0.36740648488E+03  0.79895854348E+02 0.  0.
        -13    1    4    4    0    0  0.32004911461E+02 -0.69157056753E+02  0.85187230938E+02  0.11429731918E+03  0.00000000000E+00 0.  1.
         14    1    4    4    0    0  0.11757779615E+03 -0.48085905651E+02  0.21892340508E+03  0.25310916570E+03  0.00000000000E+00 0. -1.
        -11    1    3    3    0    0 -0.64173501881E+02  0.67964197904E+02  0.29522678224E+03  0.30967115379E+03  0.00000000000E+00 0. -1.
         11    1    3    3    0    0 -0.56649615321E+02  0.66839386813E+02  0.91084197578E+02  0.12638438825E+03  0.00000000000E+00 0.  1.
          1    1    1    2  501    0 -0.28759590413E+02 -0.17560622313E+02 -0.52117863432E+02  0.62062558645E+02  0.00000000000E+00 0. -1.
<scales pt_clust_5="13000.00000" pt_clust_6="13000.00000" pt_clust_7="13000.00000" pt_clust_8="13000.00000" pt_clust_9="33.69703"></scales>
<clustering>
<clus scale="   33.697">  2  9  1 -1</clus>
<clus scale="   79.896">  5  6 -1 -1</clus>
<clus scale="   90.211">  7  8 -1 -1</clus>
<clus scale="  200.869">  2  5  1 -1</clus>
<clus scale="   33.697">  2  5  1 -1</clus>
</clustering>
</event>
<event>
 9    2  0.1488992E-004  0.1807701E+03  0.7546771E-02  0.1171862E+00
          2   -1    0    0  502    0 -0.00000000000E+00  0.00000000000E+00  0.11350133442E+04  0.11350133442E+04  0.00000000000E+00 0. -1.
         21   -1    0    0  501  502  0.00000000000E+00 -0.00000000000E+00 -0.48123090825E+02  0.48123090825E+02  0.00000000000E+00 0.  1.
         23    2    1    2    0    0 -0.74572897336E+02  0.11231696041E+03  0.71852127602E+03  0.73981962053E+03  0.11350784205E+03 0.  0.
         24    2    1    2    0    0  0.96440625529E+02 -0.11660369207E+03  0.38098532511E+03  0.41770927970E+03  0.80212275514E+02 0.  0.
        -11    1    4    4    0    0  0.10560784857E+03 -0.80690602857E+02  0.31751913456E+03  0.34421271313E+03  0.00000000000E+00 0.  1.
         12    1    4    4    0    0 -0.91672230371E+01 -0.35913089212E+02  0.63466190549E+02  0.73496566571E+02  0.00000000000E+00 0. -1.
        -13    1    3    3    0    0  0.19872043657E+02  0.69963000255E+02  0.29492905420E+03  0.30376449189E+03  0.00000000000E+00 0. -1.
         13    1    3    3    0    0 -0.94444940993E+02  0.42353960156E+02  0.42359222182E+03  0.43605512863E+03  0.00000000000E+00 0.  1.
          1    1    1    2  501    0 -0.21867728193E+02  0.42867316578E+01 -0.12616347795E+02  0.25607534757E+02  0.00000000000E+00 0. -1.
<scales pt_clust_5="13000.00000" pt_clust_6="13000.00000" pt_clust_7="13000.00000" pt_clust_8="13000.00000" pt_clust_9="22.28393"></scales>
<clustering>
<clus scale="   22.284">  2  9  1 -1</clus>
<clus scale="   80.212">  5  6 -1 -1</clus>
<clus scale="  113.508">  7  8 -1 -1</clus>
<clus scale="  161.950">  2  5  1 -1</clus>
<clus scale="   22.284">  2  5  1 -1</clus>
</clustering>
</event>
<event>
 9    2  0.1488992E-004  0.1683536E+03  0.7546771E-02  0.1181130E+00
         -1   -1    0    0    0  501 -0.00000000000E+00  0.00000000000E+00  0.99590302510E+03  0.99590302510E+03  0.00000000000E+00 0.  1.
         21   -1    0    0  501  502  0.00000000000E+00 -0.00000000000E+00 -0.45948688008E+02  0.45948688008E+02  0.00000000000E+00 0. -1.
         24    2    1    2    0    0  0.76165051167E+02  0.12358489634E+03  0.61878435748E+03  0.64049006676E+03  0.79114492562E+02 0.  0.
         23    2    1    2    0    0 -0.21566475291E+02 -0.14056126580E+03  0.22950645309E+03  0.28472256956E+03  0.90394398666E+02 0.  0.
        -13    1    3    3    0    0  0.12738472745E+02  0.74484738366E+02  0.40843393860E+03  0.41536553436E+03  0.00000000000E+00 0.  1.
         14    1    3    3    0    0  0.63426578421E+02  0.49100157974E+02  0.21035041888E+03  0.22512453239E+03  0.00000000000E+00 0. -1.
        -11    1    4    4    0    0 -0.97698405764E+00 -0.29776103167E+02  0.13320379141E+03  0.13649476497E+03  0.00000000000E+00 0.  1.
         11    1    4    4    0    0 -0.20589491234E+02 -0.11078516264E+03  0.96302661677E+02  0.14822780460E+03  0.00000000000E+00 0. -1.
         -2    1    1    2    0  502 -0.54598575875E+02  0.16976369462E+02  0.10166352652E+03  0.11663907678E+03  0.00000000000E+00 0.  1.
<scales pt_clust_5="13000.00000" pt_clust_6="13000.00000" pt_clust_7="13000.00000" pt_clust_8="13000.00000" pt_clust_9="57.17693"></scales>
<clustering>
<clus scale="   57.177">  2  9  1 -1</clus>
<clus scale="   79.114">  5  6 -1 -1</clus>
<clus scale="   90.394">  7  8 -1 -1</clus>
<clus scale="  162.576">  1  5  2 -1</clus>
<clus scale="   57.177">  2  5  1 -1</clus>
</clustering>
</event>
<event>
 9    2  0.1488992E-004  0.1425985E+03  0.7546771E-02  0.1212733E+00
         21   -1    0    0  501  502  0.00000000000E+00  0.00000000000E+00  0.27482005724E+03  0.27482005724E+03  0.00000000000E+00 0.  1.
          2   -1    0    0  502    0 -0.00000000000E+00 -0.00000000000E+00 -0.11301414643E+03  0.11301414643E+03  0.00000000000E+00 0. -1.
         23    2    1    2    0    0  0.89402319199E+02 -0.63279766900E+02 -0.20705791461E+02  0.14554956152E+03  0.93588682444E+02 0.  0.
         24    2    1    2    0    0 -0.69169324057E+02  0.77086545448E+02  0.17051494462E+03  0.21500968257E+03  0.80169111117E+02 0.  0.
        -13    1    4    4    0    0 -0.87301019398E+02  0.59071846743E+02  0.13652034157E+03  0.17247827320E+03  0.00000000000E+00 0.  1.
         14    1    4    4    0    0  0.18131695341E+02  0.18014698705E+02  0.33994603055E+02  0.42531409361E+02  0.00000000000E+00 0. -1.
        -11    1    3    3    0    0  0.58453568457E+02 -0.86741484308E+02 -0.89903055684E+01  0.10498442913E+03  0.00000000000E+00 0.  1.
         11    1    3    3    0    0  0.30948750742E+02  0.23461717408E+02 -0.11715485892E+02  0.40565132391E+02  0.00000000000E+00 0. -1.
          1    1    1    2  501    0 -0.20232995142E+02 -0.13806778548E+02  0.11996757646E+02  0.27274959584E+02  0.00000000000E+00 0. -1.
<scales pt_clust_5="13000.00000" pt_clust_6="13000.00000" pt_clust_7="13000.00000" pt_clust_8="13000.00000" pt_clust_9="24.49492"></scales>
<clustering>
<clus scale="   24.495">  1  9  2 -1</clus>
<clus scale="   80.169">  5  6 -1 -1</clus>
<clus scale="   93.589">  7  8 -1 -1</clus>
<clus scale="  134.174">  1  5  2 -1</clus>
<clus scale="   24.495">  1  5  2 -1</clus>
</clustering>
</event>
<event>
 9    2  0.1488992E-004  0.2945220E+03  0.7546771E-02  0.1129143E+00
         -1   -1    0    0    0  501 -0.00000000000E+00  0.00000000000E+00  0.11242603810E+03  0.11242603810E+03  0.00000000000E+00 0.  1.
         21   -1    0    0  501  502  0.00000000000E+00 -0.00000000000E+00 -0.14806365913E+04  0.14806365913E+04  0.00000000000E+00 0. -1.
         24    2    1    2    0    0  0.41731652928E+02 -0.51098648417E+02 -0.64517157784E+03  0.65333869934E+03  0.79072678444E+02 0.  0.
         23    2    1    2    0    0  0.84816172970E+02  0.28864017264E+03 -0.28228359175E+03  0.42328841990E+03  0.94774088212E+02 0.  0.
        -13    1    3    3    0    0  0.35219247661E+02 -0.23432445603E+02 -0.11716512688E+03  0.12456782036E+03  0.00000000000E+00 0.  1.
         14    1    3    3    0    0  0.65124052669E+01 -0.27666202814E+02 -0.52800645096E+03  0.52877087898E+03  0.00000000000E+00 0. -1.
        -11    1    4    4    0    0 -0.24413476195E+01  0.13159433517E+03 -0.15371871484E+03  0.20236717253E+03  0.00000000000E+00 0.  1.
         11    1    4    4    0    0  0.87257520590E+02  0.15704583747E+03 -0.12856487691E+03  0.22092124737E+03  0.00000000000E+00 0. -1.
         -2    1    1    2    0  502 -0.12654782590E+03 -0.23754152422E+03 -0.44075538362E+03  0.51643551017E+03  0.00000000000E+00 0.  1.
<scales pt_clust_5="13000.00000" pt_clust_6="13000.00000" pt_clust_7="13000.00000" pt_clust_8="13000.00000" pt_clust_9="278.85674"></scales>
<clustering>
<clus scale="   79.073">  5  6 -1 -1</clus>
<clus scale="   94.774">  7  8 -1 -1</clus>
<clus scale="  102.981">  1  5  2 -1</clus>
<clus scale="  278.857">  2  9  1 -1</clus>
<clus scale="  278.857">  2  5  1 -1</clus>
</clustering>
</event>
<event>
 9    2  0.1488992E-004  0.3589407E+03  0.7546771E-02  0.1059282E+00
         21   -1    0    0  501  502  0.00000000000E+00  0.00000000000E+00  0.40637652263E+03  0.40637652263E+03  0.00000000000E+00 0.  1.
          2   -1    0    0  502    0 -0.00000000000E+00 -0.00000000000E+00 -0.52894764210E+03  0.52894764210E+03  0.00000000000E+00 0. -1.
         24    2    1    2    0    0  0.32611029817E+03 -0.24823244654E+03 -0.11301486984E+03  0.43260569907E+03  0.80050334023E+02 0.  0.
         23    2    1    2    0    0 -0.14730330580E+03  0.24530657253E+03  0.67588049624E+02  0.30795772996E+03  0.91631002211E+02 0.  0.
        -13    1    3    3    0    0  0.24032411002E+03 -0.22159033196E+03 -0.99965181579E+02  0.34183474166E+03  0.00000000000E+00 0.  1.
         14    1    3    3    0    0  0.85786188146E+02 -0.26642114577E+02 -0.13049688264E+02  0.90770957413E+02  0.00000000000E+00 0. -1.
        -13    1    4    4    0    0 -0.63971813019E+02  0.11974348769E+03 -0.14189375172E+02  0.13649994166E+03  0.00000000000E+00 0. -1.
         13    1    4    4    0    0 -0.83331492781E+02  0.12556308483E+03  0.81777424796E+02  0.17145778830E+03  0.00000000000E+00 0.  1.
          1    1    1    2  501    0 -0.17880699237E+03  0.29258740149E+01 -0.77144299256E+02  0.19476073569E+03  0.00000000000E+00 0. -1.
<scales pt_clust_5="13000.00000" pt_clust_6="13000.00000" pt_clust_7="13000.00000" pt_clust_8="13000.00000" pt_clust_9="178.83102"></scales>
<clustering>
<clus scale="   80.050">  5  6 -1 -1</clus>
<clus scale="   91.631">  7  8 -1 -1</clus>
<clus scale="  178.831">  1  9  2 -1</clus>
<clus scale="  356.160">  2  5  1 -1</clus>
<clus scale="  178.831">  1  5  2 -1</clus>
</clustering>
</event>
<event>
 9    2  0.1488992E-004  0.1610843E+03  0.7546771E-02  0.1193980E+00
         -3   -1    0    0    0  501 -0.00000000000E+00  0.00000000000E+00  0.45091754942E+03  0.45091754942E+03  0.00000000000E+00 0.  1.
         21   -1    0    0  501  502  0.00000000000E+00 -0.00000000000E+00 -0.11552469857E+03  0.11552469857E+03  0.00000000000E+00 0.  1.
         24    2    1    2    0    0  0.38144260798E+02  0.10809449046E+03  0.98934811760E+02  0.17106534139E+03  0.79598056166E+02 0.  0.
         23    2    1    2    0    0 -0.13691773367E+03 -0.12221337941E+01  0.16219691580E+03  0.23199816259E+03  0.93634120617E+02 0.  0.
        -11    1    3    3    0    0  0.45695724251E+02  0.11744321299E+03  0.96691018483E+02  0.15884004706E+03  0.00000000000E+00 0.  1.
         12    1    3    3    0    0 -0.75514634522E+01 -0.93487225308E+01  0.22437932773E+01  0.12225294332E+02  0.00000000000E+00 0. -1.
        -13    1    4    4    0    0 -0.28824820420E+02  0.33414317578E+01  0.10636476785E+03  0.11025198084E+03  0.00000000000E+00 0.  1.
         13    1    4    4    0    0 -0.10809291325E+03 -0.45635655519E+01  0.55832147946E+02  0.12174618175E+03  0.00000000000E+00 0. -1.
         -4    1    1    2    0  502  0.98773472874E+02 -0.10687235667E+03  0.74261123286E+02  0.16337874401E+03  0.00000000000E+00 0.  1.
<scales pt_clust_5="13000.00000" pt_clust_6="13000.00000" pt_clust_7="13000.00000" pt_clust_8="13000.00000" pt_clust_9="131.07552"></scales>
<clustering>
<clus scale="   79.598">  5  6 -1 -1</clus>
<clus scale="   93.634">  7  8 -1 -1</clus>
<clus scale="  139.554">  1  5  2 -1</clus>
<clus scale="  131.076">  2  9  1 -1</clus>
<clus scale="  131.076">  2  5  1 -1</clus>
</clustering>
</event>
<event>
 9    2  0.1488992E-004  0.1292198E+03  0.7546771E-02  0.1230898E+00
         21   -1    0    0  501  502  0.00000000000E+00  0.00000000000E+00  0.32393851224E+02  0.32393851224E+02  0.00000000000E+00 0.  1.
          2   -1    0    0  502    0 -0.00000000000E+00 -0.00000000000E+00 -0.16060233097E+04  0.16060233097E+04  0.00000000000E+00 0. -1.
         23    2    1    2    0    0  0.74814487193E+02 -0.39587034571E+02 -0.49176406140E+03  0.50868528676E+03  0.98815424329E+02 0.  0.
         24    2    1    2    0    0  0.89947974481E+01  0.12998820826E+03 -0.25786456596E+03  0.29656098048E+03  0.66906203724E+02 0.  0.
        -13    1    4    4    0    0  0.32702820060E+02  0.85817195931E+02 -0.19949405096E+03  0.21961771769E+03  0.00000000000E+00 0.  1.
         14    1    4    4    0    0 -0.23708022611E+02  0.44171012331E+02 -0.58370515002E+02  0.76943262786E+02  0.00000000000E+00 0. -1.
        -11    1    3    3    0    0  0.74109009711E+02  0.14309209157E+02 -0.31299992919E+03  0.32197182247E+03  0.00000000000E+00 0.  1.
         11    1    3    3    0    0  0.70547748211E+00 -0.53896243729E+02 -0.17876413221E+03  0.18671346430E+03  0.00000000000E+00 0. -1.
          1    1    1    2  501    0 -0.83809284641E+02 -0.90401173691E+02 -0.82400083116E+03  0.83317089373E+03  0.00000000000E+00 0. -1.
<scales pt_clust_5="13000.00000" pt_clust_6="13000.00000" pt_clust_7="13000.00000" pt_clust_8="13000.00000" pt_clust_9="123.27361"></scales>
<clustering>
<clus scale="   66.906">  5  6 -1 -1</clus>
<clus scale="   98.815">  7  8 -1 -1</clus>
<clus scale="  123.274">  1  9  2 -1</clus>
<clus scale="  123.274">  1  5  2 -1</clus>
<clus scale="  123.274">  1  5  2 -1</clus>
</clustering>
</event>
<event>
 9    2  0.1488992E-004  0.2020694E+03  0.7546771E-02  0.1174884E+00
         21   -1    0    0  501  502  0.00000000000E+00  0.00000000000E+00  0.27801749538E+03  0.27801749538E+03  0.00000000000E+00 0. -1.
          2   -1    0    0  502    0 -0.00000000000E+00 -0.00000000000E+00 -0.34413238730E+03  0.34413238730E+03  0.00000000000E+00 0. -1.
         24    2    1    2    0    0 -0.35758476231E+01 -0.71972223633E+02 -0.15005049760E+03  0.18501914472E+03  0.80772176039E+02 0.  0.
         23    2    1    2    0    0 -0.18017504501E+03  0.44764466548E+02 -0.47001833145E+02  0.20986599042E+03  0.85835058724E+02 0.  0.
        -11    1    3    3    0    0 -0.28180065525E+01 -0.28390767327E+02  0.24427969490E+00  0.28531324942E+02  0.00000000000E+00 0.  1.
         12    1    3    3    0    0 -0.75784107058E+00 -0.43581456305E+02 -0.15029477730E+03  0.15648781978E+03  0.00000000000E+00 0. -1.
        -11    1    4    4    0    0 -0.15624089608E+03  0.95952535276E+01 -0.56243680899E+02  0.16633291358E+03  0.00000000000E+00 0. -1.
         11    1    4    4    0    0 -0.23934148932E+02  0.35169213021E+02  0.92418477534E+01  0.43533076844E+02  0.00000000000E+00 0.  1.
          1    1    1    2  501    0  0.18375089264E+03  0.27207757084E+02  0.13093743883E+03  0.22726474754E+03  0.00000000000E+00 0. -1.
<scales pt_clust_5="13000.00000" pt_clust_6="13000.00000" pt_clust_7="13000.00000" pt_clust_8="13000.00000" pt_clust_9="182.93270"></scales>
<clustering>
<clus scale="   80.772">  5  6 -1 -1</clus>
<clus scale="   85.835">  7  8 -1 -1</clus>
<clus scale="  108.245">  2  5  1 -1</clus>
<clus scale="  182.933">  1  9  2 -1</clus>
<clus scale="  182.933">  1  5  2 -1</clus>
</clustering>
</event>
<event>
 9    2  0.1488992E-004  0.2084764E+03  0.7546771E-02  0.1144006E+00
          2   -1    0    0  502    0 -0.00000000000E+00  0.00000000000E+00  0.67597063964E+03  0.67597063964E+03  0.00000000000E+00 0. -1.
         21   -1    0    0  501  502  0.00000000000E+00 -0.00000000000E+00 -0.86393310830E+02  0.86393310830E+02  0.00000000000E+00 0.  1.
         24    2    1    2    0    0 -0.13439042651E+03 -0.13830110685E+03  0.36342046108E+03  0.41943288026E+03  0.81618175763E+02 0.  0.
         23    2    1    2    0    0  0.14846235068E+03  0.91934374744E+02  0.13771038428E+03  0.24208131399E+03  0.95635839597E+02 0.  0.
        -13    1    3    3    0    0 -0.70995036630E+02 -0.24832116172E+02  0.94746641229E+02  0.12097047261E+03  0.00000000000E+00 0.  1.
         14    1    3    3    0    0 -0.63395389881E+02 -0.11346899068E+03  0.26867381986E+03  0.29846240765E+03  0.00000000000E+00 0. -1.
        -11    1    4    4    0    0  0.44381096037E+02  0.16400455718E+02 -0.77271481930E+01  0.47941270868E+02  0.00000000000E+00 0.  1.
         11    1    4    4    0    0  0.10408125464E+03  0.75533919026E+02  0.14543753247E+03  0.19414004312E+03  0.00000000000E+00 0. -1.
          1    1    1    2  501    0 -0.14071924165E+02  0.46366732110E+02  0.88446483447E+02  0.10084975622E+03  0.00000000000E+00 0. -1.
<scales pt_clust_5="13000.00000" pt_clust_6="13000.00000" pt_clust_7="13000.00000" pt_clust_8="13000.00000" pt_clust_9="48.45508"></scales>
<clustering>
<clus scale="   48.455">  2  9  1 -1</clus>
<clus scale="   81.618">  5  6 -1 -1</clus>
<clus scale="   95.636">  7  8 -1 -1</clus>
<clus scale="  202.430">  1  5  2 -1</clus>
<clus scale="   48.455">  2  5  1 -1</clus>
</clustering>
</event>
<event>
 9    2  0.1488992E-004  0.1553151E+03  0.7546771E-02  0.1216938E+00
         21   -1    0    0  501  502  0.00000000000E+00  0.00000000000E+00  0.46436366365E+02  0.46436366365E+02  0.00000000000E+00 0.  1.
          2   -1    0    0  502    0 -0.00000000000E+00 -0.00000000000E+00 -0.11175500850E+04  0.11175500850E+04  0.00000000000E+00 0. -1.
         24    2    1    2    0    0 -0.23026800037E+02  0.52416693801E+02 -0.30838207614E+03  0.32268138699E+03  0.75802567994E+02 0.  0.
         23    2    1    2    0    0  0.12995580435E+03 -0.31562745917E+02 -0.15529105842E+03  0.22417237015E+03  0.90847238263E+02 0.  0.
        -11    1    3    3    0    0 -0.40660797669E+02  0.44084522480E+01 -0.17774083640E+03  0.18238568979E+03  0.00000000000E+00 0.  1.
         12    1    3    3    0    0  0.17633997632E+02  0.48008241553E+02 -0.13064123974E+03  0.14029569719E+03  0.00000000000E+00 0. -1.
        -13    1    4    4    0    0  0.26874103834E+02 -0.15675735605E+00 -0.99025829465E+02  0.10260778202E+03  0.00000000000E+00 0. -1.
         13    1    4    4    0    0  0.10308170051E+03 -0.31405988561E+02 -0.56265228960E+02  0.12156458813E+03  0.00000000000E+00 0.  1.
          1    1    1    2  501    0 -0.10692900431E+03 -0.20853947884E+02 -0.60744058406E+03  0.61713269421E+03  0.00000000000E+00 0. -1.
<scales pt_clust_5="13000.00000" pt_clust_6="13000.00000" pt_clust_7="13000.00000" pt_clust_8="13000.00000" pt_clust_9="125.97446"></scales>
<clustering>
<clus scale="   75.803">  5  6 -1 -1</clus>
<clus scale="   90.847">  7  8 -1 -1</clus>
<clus scale="   94.994">  2  5  1 -1</clus>
<clus scale="  125.974">  1  9  2 -1</clus>
<clus scale="  125.974">  1  5  2 -1</clus>
</clustering>
</event>
<event>
 9    2  0.1488992E-004  0.9453534E+02  0.7546771E-02  0.1297420E+00
         21   -1    0    0  501  502  0.00000000000E+00  0.00000000000E+00  0.38480295412E+02  0.38480295412E+02  0.00000000000E+00 0. -1.
          2   -1    0    0  502    0 -0.00000000000E+00 -0.00000000000E+00 -0.13199219642E+04  0.13199219642E+04  0.00000000000E+00 0. -1.
         24    2    1    2    0    0 -0.30624075795E+02 -0.17245358445E+02 -0.84912912852E+03  0.85388846892E+03  0.82885487602E+02 0.  0.
         23    2    1    2    0    0 -0.12861748851E+02  0.11310387099E+02 -0.44819959711E+03  0.45783789318E+03  0.91865707101E+02 0.  0.
        -11    1    3    3    0    0 -0.48644622906E+02 -0.51808943390E+01 -0.27280466975E+03  0.27715614523E+03  0.00000000000E+00 0.  1.
         12    1    3    3    0    0  0.18020547112E+02 -0.12064464106E+02 -0.57632445877E+03  0.57673232369E+03  0.00000000000E+00 0. -1.
        -11    1    4    4    0    0  0.38866215009E+02 -0.24676250751E+01 -0.22202344646E+03  0.22541313764E+03  0.00000000000E+00 0.  1.
         11    1    4    4    0    0 -0.51727963860E+02  0.13778012174E+02 -0.22617615065E+03  0.23242475554E+03  0.00000000000E+00 0. -1.
          1    1    1    2  501    0  0.43485824645E+02  0.59349713466E+01  0.15887056868E+02  0.46675897484E+02  0.00000000000E+00 0. -1.
<scales pt_clust_5="13000.00000" pt_clust_6="13000.00000" pt_clust_7="13000.00000" pt_clust_8="13000.00000" pt_clust_9="43.88896"></scales>
<clustering>
<clus scale="   43.889">  1  9  2 -1</clus>
<clus scale="   82.885">  5  6 -1 -1</clus>
<clus scale="   85.835">  2  5  1 -1</clus>
<clus scale="   91.866">  7  8 -1 -1</clus>
<clus scale="   43.889">  1  5  2 -1</clus>
</clustering>
</event>
<event>
 9    2  0.1839715E-004  0.4224657E+03  0.7546771E-02  0.1097321E+00
         21   -1    0    0  501  502  0.00000000000E+00  0.00000000000E+00  0.39194252242E+03  0.39194252242E+03  0.00000000000E+00 0. -1.
          2   -1    0    0  502    0 -0.00000000000E+00 -0.00000000000E+00 -0.93279903586E+03  0.93279903586E+03  0.00000000000E+00 0. -1.
         24    2    1    2    0    0  0.51293339663E+01 -0.97037641229E+01 -0.68482301910E+02  0.10388507999E+03  0.77342168737E+02 0.  0.
         23    2    1    2    0    0 -0.35927651942E+03  0.20612116419E+03  0.17383403786E+03  0.45823919183E+03  0.90550165511E+02 0.  0.
        -11    1    3    3    0    0  0.39743848776E+02 -0.14312335914E+02 -0.45472291331E+02  0.62065656798E+02  0.00000000000E+00 0.  1.
         12    1    3    3    0    0 -0.34614514809E+02  0.46085717914E+01 -0.23010010578E+02  0.41819423194E+02  0.00000000000E+00 0. -1.
        -13    1    4    4    0    0 -0.13838797191E+03  0.30855969082E+02  0.51131912745E+02  0.15072423196E+03  0.00000000000E+00 0. -1.
         13    1    4    4    0    0 -0.22088854751E+03  0.17526519511E+03  0.12270212512E+03  0.30751495987E+03  0.00000000000E+00 0.  1.
          1    1    1    2  501    0  0.35414718546E+03 -0.19641740006E+03 -0.64620824939E+03  0.76261728645E+03  0.00000000000E+00 0. -1.
<scales pt_clust_5="13000.00000" pt_clust_6="13000.00000" pt_clust_7="13000.00000" pt_clust_8="13000.00000" pt_clust_9="412.64771"></scales>
<clustering>
<clus scale="   77.342">  5  6 -1 -1</clus>
<clus scale="   78.117">  2  5  1 -1</clus>
<clus scale="   90.550">  7  8 -1 -1</clus>
<clus scale="  412.648">  1  9  2 -1</clus>
<clus scale="  412.648">  1  5  2 -1</clus>
</clustering>
</event>
<event>
 9    2  0.1488992E-004  0.1132968E+03  0.7546771E-02  0.1258381E+00
          2   -1    0    0  502    0 -0.00000000000E+00  0.00000000000E+00  0.73877599218E+03  0.73877599218E+03  0.00000000000E+00 0. -1.
         21   -1    0    0  501  502  0.00000000000E+00 -0.00000000000E+00 -0.27720542881E+03  0.27720542881E+03  0.00000000000E+00 0. -1.
         24    2    1    2    0    0 -0.89340724065E+02  0.91679534226E+01  0.49784835122E+03  0.51227508263E+03  0.80665749346E+02 0.  0.
         23    2    1    2    0    0  0.26351826020E+02 -0.34821501944E+02  0.21811991674E+03  0.24037404272E+03  0.91084722107E+02 0.  0.
        -13    1    3    3    0    0 -0.33300975863E+02 -0.76216418471E+01  0.49605302194E+02  0.60230643560E+02  0.00000000000E+00 0.  1.
         14    1    3    3    0    0 -0.56039748202E+02  0.16789595270E+02  0.44824304903E+03  0.45204443907E+03  0.00000000000E+00 0. -1.
        -13    1    4    4    0    0 -0.82898232140E+01  0.23954397573E+02  0.10716282069E+03  0.11011995491E+03  0.00000000000E+00 0. -1.
         13    1    4    4    0    0  0.34641649234E+02 -0.58775899517E+02  0.11095709605E+03  0.13025408780E+03  0.00000000000E+00 0.  1.
          1    1    1    2  501    0  0.62988898045E+02  0.25653548522E+02 -0.25439770459E+03  0.26333229565E+03  0.00000000000E+00 0. -1.
<scales pt_clust_5="13000.00000" pt_clust_6="13000.00000" pt_clust_7="13000.00000" pt_clust_8="13000.00000" pt_clust_9="68.01254"></scales>
<clustering>
<clus scale="   68.013">  2  9  1 -1</clus>
<clus scale="   80.666">  5  6 -1 -1</clus>
<clus scale="   91.085">  7  8 -1 -1</clus>
<clus scale="  105.103">  1  5  2 -1</clus>
<clus scale="   68.013">  2  5  1 -1</clus>
</clustering>
</event>
<event>
 9    2  0.1488992E-004  0.1492856E+03  0.7546771E-02  0.1204008E+00
         -1   -1    0    0    0  501 -0.00000000000E+00  0.00000000000E+00  0.81781345062E+03  0.81781345062E+03  0.00000000000E+00 0.  1.
         21   -1    0    0  501  502  0.00000000000E+00 -0.00000000000E+00 -0.34082899989E+02  0.34082899989E+02  0.00000000000E+00 0. -1.
         24    2    1    2    0    0  0.88089764705E+02  0.49731320574E+02  0.48597504638E+03  0.50718628273E+03  0.10408250953E+03 0.  0.
         23    2    1    2    0    0 -0.94304379375E+02 -0.71426907750E+02  0.27191042176E+03  0.31039843388E+03  0.91743071551E+02 0.  0.
        -11    1    3    3    0    0  0.67178502642E+02  0.14449370753E+01  0.40553575357E+03  0.41106482029E+03  0.00000000000E+00 0.  1.
         12    1    3    3    0    0  0.20911262063E+02  0.48286383498E+02  0.80439292819E+02  0.96121462440E+02  0.00000000000E+00 0. -1.
        -11    1    4    4    0    0 -0.64560138933E+02 -0.13564162614E+02  0.61613367187E+02  0.90267408640E+02  0.00000000000E+00 0. -1.
         11    1    4    4    0    0 -0.29744240442E+02 -0.57862745137E+02  0.21029705457E+03  0.22013102524E+03  0.00000000000E+00 0.  1.
         -2    1    1    2    0  502  0.62146146703E+01  0.21695587176E+02  0.25845082490E+02  0.34311633994E+02  0.00000000000E+00 0.  1.
<scales pt_clust_5="13000.00000" pt_clust_6="13000.00000" pt_clust_7="13000.00000" pt_clust_8="13000.00000" pt_clust_9="22.56812"></scales>
<clustering>
<clus scale="   22.568">  2  9  1 -1</clus>
<clus scale="   91.743">  7  8 -1 -1</clus>
<clus scale="  104.083">  5  6 -1 -1</clus>
<clus scale="  140.960">  2  7  1 -1</clus>
<clus scale="   22.568">  2  5  1 -1</clus>
</clustering>
</event>
<event>
 9    2  0.1488992E-004  0.1257263E+03  0.7546771E-02  0.1251268E+00
          4   -1    0    0  502    0 -0.00000000000E+00  0.00000000000E+00  0.57174673402E+03  0.57174673402E+03  0.00000000000E+00 0. -1.
         21   -1    0    0  501  502  0.00000000000E+00 -0.00000000000E+00 -0.62884405212E+02  0.62884405212E+02  0.00000000000E+00 0. -1.
         24    2    1    2    0    0 -0.33235395363E+02  0.16273853574E+02  0.27866262861E+03  0.29239591979E+03  0.80455475357E+02 0.  0.
         23    2    1    2    0    0 -0.33553813954E+02  0.70766357076E+02  0.46535444900E+02  0.12829748217E+03  0.90338035040E+02 0.  0.
        -11    1    3    3    0    0 -0.36124915937E+02  0.44111466748E+02  0.22191017832E+03  0.22911778257E+03  0.00000000000E+00 0.  1.
         12    1    3    3    0    0  0.28895205734E+01 -0.27837613174E+02  0.56752450288E+02  0.63278137220E+02  0.00000000000E+00 0. -1.
        -11    1    4    4    0    0 -0.47870133014E+02  0.14404368669E+02 -0.54631250330E+01  0.50287982726E+02  0.00000000000E+00 0. -1.
         11    1    4    4    0    0  0.14316319060E+02  0.56361988407E+02  0.51998569933E+02  0.78009499445E+02  0.00000000000E+00 0.  1.
          3    1    1    2  501    0  0.66789209317E+02 -0.87040210650E+02  0.18366425530E+03  0.21393773726E+03  0.00000000000E+00 0. -1.
<scales pt_clust_5="13000.00000" pt_clust_6="13000.00000" pt_clust_7="13000.00000" pt_clust_8="13000.00000" pt_clust_9="87.44224"></scales>
<clustering>
<clus scale="   80.455">  5  6 -1 -1</clus>
<clus scale="   88.558">  1  5  2 -1</clus>
<clus scale="   87.442">  2  9  1 -1</clus>
<clus scale="   90.338">  7  8 -1 -1</clus>
<clus scale="   87.442">  2  5  1 -1</clus>
</clustering>
</event>
<event>
 9    2  0.1488992E-004  0.9151560E+02  0.7546771E-02  0.1299749E+00
          2   -1    0    0  502    0 -0.00000000000E+00  0.00000000000E+00  0.39308059425E+03  0.39308059425E+03  0.00000000000E+00 0. -1.
         21   -1    0    0  501  502  0.00000000000E+00 -0.00000000000E+00 -0.47253173066E+03  0.47253173066E+03  0.00000000000E+00 0. -1.
         23    2    1    2    0    0  0.80050461927E+01 -0.60418418844E+01  0.35404093602E+03  0.36558980487E+03  0.90610906773E+02 0.  0.
         24    2    1    2    0    0 -0.98515111127E+02  0.10729566096E+02 -0.12940202418E+03  0.18271383114E+03  0.82577899694E+02 0.  0.
        -11    1    4    4    0    0 -0.47772025784E+02 -0.18272662318E+02 -0.13484207199E+02  0.52894994843E+02  0.00000000000E+00 0.  1.
         12    1    4    4    0    0 -0.50743085344E+02  0.29002228414E+02 -0.11591781698E+03  0.12981883629E+03  0.00000000000E+00 0. -1.
        -13    1    3    3    0    0  0.46523702710E+02  0.62451344480E+01  0.24117704289E+03  0.24570271190E+03  0.00000000000E+00 0.  1.
         13    1    3    3    0    0 -0.38518656517E+02 -0.12286976332E+02  0.11286389313E+03  0.11988709297E+03  0.00000000000E+00 0. -1.
          1    1    1    2  501    0  0.90510064935E+02 -0.46877242115E+01 -0.30409004825E+03  0.31730868891E+03  0.00000000000E+00 0. -1.
<scales pt_clust_5="13000.00000" pt_clust_6="13000.00000" pt_clust_7="13000.00000" pt_clust_8="13000.00000" pt_clust_9="90.63138"></scales>
<clustering>
<clus scale="   82.578">  5  6 -1 -1</clus>
<clus scale="   90.611">  7  8 -1 -1</clus>
<clus scale="   90.631">  2  9  1 -1</clus>
<clus scale="   90.631">  2  5  1 -1</clus>
<clus scale="   90.631">  2  5  1 -1</clus>
</clustering>
</event>
<event>
 9    2  0.1488992E-004  0.1616337E+03  0.7546771E-02  0.1188244E+00
         21   -1    0    0  501  502  0.00000000000E+00  0.00000000000E+00  0.67957631319E+02  0.67957631319E+02  0.00000000000E+00 0. -1.
          2   -1    0    0  502    0 -0.00000000000E+00 -0.00000000000E+00 -0.75280073420E+03  0.75280073420E+03  0.00000000000E+00 0. -1.
         24    2    1    2    0    0 -0.15012209505E+03  0.29583009028E+02 -0.56541947543E+03  0.59113608563E+03  0.79566894469E+02 0.  0.
         23    2    1    2    0    0  0.77658245938E+02 -0.23672072631E+02 -0.54200187250E+02  0.13194912211E+03  0.88779166157E+02 0.  0.
        -11    1    3    3    0    0 -0.46534080138E+02 -0.17597152844E+02 -0.27002078544E+03  0.27456566605E+03  0.00000000000E+00 0.  1.
         12    1    3    3    0    0 -0.10358801492E+03  0.47180161873E+02 -0.29539868998E+03  0.31657041958E+03  0.00000000000E+00 0. -1.
        -11    1    4    4    0    0  0.16265842112E+02 -0.44454937536E+02  0.18863231314E+00  0.47337666537E+02  0.00000000000E+00 0. -1.
         11    1    4    4    0    0  0.61392403826E+02  0.20782864906E+02 -0.54388819564E+02  0.84611455576E+02  0.00000000000E+00 0.  1.
          1    1    1    2  501    0  0.72463849117E+02 -0.59109363978E+01 -0.65223440203E+02  0.97673157775E+02  0.00000000000E+00 0. -1.
<scales pt_clust_5="13000.00000" pt_clust_6="13000.00000" pt_clust_7="13000.00000" pt_clust_8="13000.00000" pt_clust_9="72.70453"></scales>
<clustering>
<clus scale="   72.705">  1  9  2 -1</clus>
<clus scale="   79.567">  5  6 -1 -1</clus>
<clus scale="   88.779">  7  8 -1 -1</clus>
<clus scale="  156.763">  2  5  1 -1</clus>
<clus scale="   72.705">  1  5  2 -1</clus>
</clustering>
</event>
<event>
 9    2  0.1488992E-004  0.1360500E+03  0.7546771E-02  0.1235976E+00
         21   -1    0    0  501  502  0.00000000000E+00  0.00000000000E+00  0.28743786752E+03  0.28743786752E+03  0.00000000000E+00 0.  1.
         -1   -1    0    0    0  501 -0.00000000000E+00 -0.00000000000E+00 -0.13949767545E+03  0.13949767545E+03  0.00000000000E+00 0.  1.
         23    2    1    2    0    0 -0.21864345287E+02 -0.17827095044E+02  0.85510271573E+02  0.12793989222E+03  0.90888693264E+02 0.  0.
         24    2    1    2    0    0 -0.92380081353E+02  0.18207009204E+02 -0.54911501843E+02  0.13522464370E+03  0.80030348082E+02 0.  0.
        -13    1    4    4    0    0 -0.57096461116E+02  0.35759812737E+02 -0.65972898010E+02  0.94293124621E+02  0.00000000000E+00 0.  1.
         14    1    4    4    0    0 -0.35283620238E+02 -0.17552803533E+02  0.11061396168E+02  0.40931519079E+02  0.00000000000E+00 0. -1.
        -11    1    3    3    0    0  0.32327968277E+02 -0.65130082650E+01  0.10294403701E+02  0.34546947146E+02  0.00000000000E+00 0. -1.
         11    1    3    3    0    0 -0.54192313564E+02 -0.11314086779E+02  0.75215867871E+02  0.93392945070E+02  0.00000000000E+00 0.  1.
         -2    1    1    2    0  502  0.11424442664E+03 -0.37991416020E+00  0.11734142235E+03  0.16377100705E+03  0.00000000000E+00 0.  1.
<scales pt_clust_5="13000.00000" pt_clust_6="13000.00000" pt_clust_7="13000.00000" pt_clust_8="13000.00000" pt_clust_9="110.02161"></scales>
<clustering>
<clus scale="   80.030">  5  6 -1 -1</clus>
<clus scale="   90.889">  7  8 -1 -1</clus>
<clus scale="   95.166">  2  7  1 -1</clus>
<clus scale="  110.022">  1  9  2 -1</clus>
<clus scale="  110.022">  1  5  2 -1</clus>
</clustering>
</event>
<event>
 9    2  0.1488992E-004  0.1156064E+03  0.7546771E-02  0.1254263E+00
         21   -1    0    0  501  502  0.00000000000E+00  0.00000000000E+00  0.26532782099E+03  0.26532782099E+03  0.00000000000E+00 0.  1.
          2   -1    0    0  502    0 -0.00000000000E+00 -0.00000000000E+00 -0.69819422773E+02  0.69819422773E+02  0.00000000000E+00 0. -1.
         24    2    1    2    0    0  0.78717030773E+02  0.66337662808E+01  0.54191148472E+02  0.12545722375E+03  0.81008991048E+02 0.  0.
         23    2    1    2    0    0 -0.55189316881E+02  0.83706058271E+01  0.14617805590E+03  0.18136490854E+03  0.91702117117E+02 0.  0.
        -11    1    3    3    0    0  0.83014076145E+02  0.26971483421E+02  0.27273036554E+02  0.91447341563E+02  0.00000000000E+00 0.  1.
         12    1    3    3    0    0 -0.42970453718E+01 -0.20337717140E+02  0.26918111919E+02  0.34009882191E+02  0.00000000000E+00 0. -1.
        -13    1    4    4    0    0  0.20113102075E+02  0.16210126807E+02  0.14903611404E+02  0.29823190960E+02  0.00000000000E+00 0. -1.
         13    1    4    4    0    0 -0.75302418956E+02 -0.78395209796E+01  0.13127444449E+03  0.15154171758E+03  0.00000000000E+00 0.  1.
          1    1    1    2  501    0 -0.23527713892E+02 -0.15004372108E+02 -0.48608061524E+01  0.28325111470E+02  0.00000000000E+00 0. -1.
<scales pt_clust_5="13000.00000" pt_clust_6="13000.00000" pt_clust_7="13000.00000" pt_clust_8="13000.00000" pt_clust_9="27.90493"></scales>
<clustering>
<clus scale="   27.905">  1  9  2 -1</clus>
<clus scale="   81.009">  5  6 -1 -1</clus>
<clus scale="   91.702">  7  8 -1 -1</clus>
<clus scale="  107.322">  2  5  1 -1</clus>
<clus scale="   27.905">  1  5  2 -1</clus>
</clustering>
</event>
<event>
 9    2  0.1488992E-004  0.1773972E+03  0.7546771E-02  0.1171789E+00
          2   -1    0    0  502    0 -0.00000000000E+00  0.00000000000E+00  0.65311608941E+03  0.65311608941E+03  0.00000000000E+00 0. -1.
         21   -1    0    0  501  502  0.00000000000E+00 -0.00000000000E+00 -0.12761888010E+03  0.12761888010E+03  0.00000000000E+00 0. -1.
         23    2    1    2    0    0 -0.43870740152E+02  0.14957854999E+03  0.56406940016E+03  0.59238943362E+03  0.91937850761E+02 0.  0.
         24    2    1    2    0    0  0.50642152068E+02 -0.11532393758E+03 -0.29224587505E+02  0.15219850035E+03  0.80287413998E+02 0.  0.
        -13    1    4    4    0    0  0.59510967851E+02 -0.41923266526E+02 -0.28738186950E+02  0.78262372568E+02  0.00000000000E+00 0.  1.
         14    1    4    4    0    0 -0.88688157830E+01 -0.73400671059E+02 -0.48640055456E+00  0.73936127778E+02  0.00000000000E+00 0. -1.
        -11    1    3    3    0    0  0.24885424677E+02  0.36169204069E+02  0.20403120191E+03  0.20870128662E+03  0.00000000000E+00 0.  1.
         11    1    3    3    0    0 -0.68756164829E+02  0.11340934592E+03  0.36003819825E+03  0.38368814699E+03  0.00000000000E+00 0. -1.
          1    1    1    2  501    0 -0.67714119157E+01 -0.34254612408E+02 -0.93476033448E+01  0.36147035548E+02  0.00000000000E+00 0. -1.
<scales pt_clust_5="13000.00000" pt_clust_6="13000.00000" pt_clust_7="13000.00000" pt_clust_8="13000.00000" pt_clust_9="34.91748"></scales>
<clustering>
<clus scale="   34.917">  2  9  1 -1</clus>
<clus scale="   80.287">  5  6 -1 -1</clus>
<clus scale="   91.938">  7  8 -1 -1</clus>
<clus scale="  171.649">  2  5  1 -1</clus>
<clus scale="   34.917">  2  5  1 -1</clus>
</clustering>
</event>
<event>
 9    2  0.1488992E-004  0.1278369E+03  0.7546771E-02  0.1232231E+00
          2   -1    0    0  502    0 -0.00000000000E+00  0.00000000000E+00  0.93762209452E+03  0.93762209452E+03  0.00000000000E+00 0. -1.
         21   -1    0    0  501  502  0.00000000000E+00 -0.00000000000E+00 -0.42797514989E+02  0.42797514989E+02  0.00000000000E+00 0. -1.
         24    2    1    2    0    0  0.86879397774E+02 -0.42585294754E+02  0.61169457754E+03  0.62444524396E+03  0.80000433878E+02 0.  0.
         23    2    1    2    0    0 -0.93470595342E+02  0.98035604599E+01  0.29432219232E+03  0.32071318131E+03  0.86014706784E+02 0.  0.
        -13    1    3    3    0    0  0.74122945230E+02 -0.65758048356E+02  0.48524450706E+03  0.49525807774E+03  0.00000000000E+00 0.  1.
         14    1    3    3    0    0  0.12756452544E+02  0.23172753601E+02  0.12645007048E+03  0.12918716622E+03  0.00000000000E+00 0. -1.
        -13    1    4    4    0    0 -0.68932915291E+02 -0.22796108092E+02  0.25061719688E+03  0.26092218902E+03  0.00000000000E+00 0. -1.
         13    1    4    4    0    0 -0.24537680051E+02  0.32599668552E+02  0.43704995446E+02  0.59790992289E+02  0.00000000000E+00 0.  1.
          1    1    1    2  501    0  0.65911975676E+01  0.32781734295E+02 -0.11192190341E+02  0.35261184231E+02  0.00000000000E+00 0. -1.
<scales pt_clust_5="13000.00000" pt_clust_6="13000.00000" pt_clust_7="13000.00000" pt_clust_8="13000.00000" pt_clust_9="33.43779"></scales>
<clustering>
<clus scale="   33.438">  2  9  1 -1</clus>
<clus scale="   80.000">  5  6 -1 -1</clus>
<clus scale="   86.015">  7  8 -1 -1</clus>
<clus scale="  123.870">  1  5  2 -1</clus>
<clus scale="   33.438">  2  5  1 -1</clus>
</clustering>
</event>
<event>
 9    2  0.1488992E-004  0.2131704E+03  0.7546771E-02  0.1165740E+00
         21   -1    0    0  501  502  0.00000000000E+00  0.00000000000E+00  0.17106313289E+03  0.17106313289E+03  0.00000000000E+00 0.  1.
          2   -1    0    0  502    0 -0.00000000000E+00 -0.00000000000E+00 -0.43985201615E+03  0.43985201615E+03  0.00000000000E+00 0. -1.
         23    2    1    2    0    0 -0.39487189445E+00  0.31227784322E+02 -0.13833711248E+03  0.17902647797E+03  0.10926112158E+03 0.  0.
         24    2    1    2    0    0  0.88174163095E+01  0.18029754957E+03 -0.85140644272E+02  0.21540078615E+03  0.81016147483E+02 0.  0.
        -11    1    4    4    0    0  0.39385970994E+02  0.14892594500E+03 -0.65306806579E+02  0.16731757466E+03  0.00000000000E+00 0.  1.
         12    1    4    4    0    0 -0.30568554685E+02  0.31371604575E+02 -0.19833837693E+02  0.48083211485E+02  0.00000000000E+00 0. -1.
        -13    1    3    3    0    0  0.53223337059E+02  0.52382295531E+01 -0.74423465760E+02  0.91646139647E+02  0.00000000000E+00 0. -1.
         13    1    3    3    0    0 -0.53618208954E+02  0.25989554769E+02 -0.63913646720E+02  0.87380338323E+02  0.00000000000E+00 0.  1.
          1    1    1    2  501    0 -0.84225444150E+01 -0.21152533390E+03 -0.45311126502E+02  0.21648788492E+03  0.00000000000E+00 0. -1.
<scales pt_clust_5="13000.00000" pt_clust_6="13000.00000" pt_clust_7="13000.00000" pt_clust_8="13000.00000" pt_clust_9="197.17508"></scales>
<clustering>
<clus scale="   81.016">  5  6 -1 -1</clus>
<clus scale="  109.261">  7  8 -1 -1</clus>
<clus scale="  113.637">  2  7  1 -1</clus>
<clus scale="  197.175">  1  9  2 -1</clus>
<clus scale="  197.175">  1  5  2 -1</clus>
</clustering>
</event>
<event>
 9    2  0.1488992E-004  0.1616992E+03  0.7546771E-02  0.1187560E+00
         21   -1    0    0  501  502  0.00000000000E+00  0.00000000000E+00  0.30374898604E+03  0.30374898604E+03  0.00000000000E+00 0. -1.
          2   -1    0    0  502    0 -0.00000000000E+00 -0.00000000000E+00 -0.77446593241E+03  0.77446593241E+03  0.00000000000E+00 0. -1.
         23    2    1    2    0    0  0.58772312073E+01  0.15689562796E+03 -0.45890320508E+03  0.49329395739E+03  0.89977757488E+02 0.  0.
         24    2    1    2    0    0 -0.49926440152E+02 -0.10535118099E+03 -0.27640184639E+03  0.31178358138E+03  0.84967641881E+02 0.  0.
        -13    1    4    4    0    0 -0.46430496540E+02 -0.11994943086E+03 -0.23761903396E+03  0.27019708043E+03  0.00000000000E+00 0.  1.
         14    1    4    4    0    0 -0.34959436124E+01  0.14598249872E+02 -0.38782812430E+02  0.41586500947E+02  0.00000000000E+00 0. -1.
        -11    1    3    3    0    0 -0.18284311020E+02  0.10101863664E+03 -0.38007395307E+03  0.39369441294E+03  0.00000000000E+00 0. -1.
         11    1    3    3    0    0  0.24161542227E+02  0.55876991319E+02 -0.78829252013E+02  0.99599544450E+02  0.00000000000E+00 0.  1.
          1    1    1    2  501    0  0.44049208945E+02 -0.51544446969E+02  0.26458810509E+03  0.27313737968E+03  0.00000000000E+00 0. -1.
<scales pt_clust_5="13000.00000" pt_clust_6="13000.00000" pt_clust_7="13000.00000" pt_clust_8="13000.00000" pt_clust_9="67.80238"></scales>
<clustering>
<clus scale="   67.802">  1  9  2 -1</clus>
<clus scale="   84.968">  5  6 -1 -1</clus>
<clus scale="   89.978">  7  8 -1 -1</clus>
<clus scale="  158.966">  1  5  2 -1</clus>
<clus scale="   67.802">  1  5  2 -1</clus>
</clustering>
</event>
<event>
 9    2  0.1488992E-004  0.1482936E+03  0.7546771E-02  0.1226276E+00
         21   -1    0    0  501  502  0.00000000000E+00  0.00000000000E+00  0.78739013792E+02  0.78739013792E+02  0.00000000000E+00 0.  1.
          2   -1    0    0  502    0 -0.00000000000E+00 -0.00000000000E+00 -0.47456737706E+03  0.47456737706E+03  0.00000000000E+00 0. -1.
         24    2    1    2    0    0  0.35454723392E+02  0.10258916565E+01 -0.27821238977E+02  0.93963642765E+02  0.82444253644E+02 0.  0.
         23    2    1    2    0    0 -0.60825091248E+02 -0.10772914992E+03 -0.27034393846E+03  0.31248452137E+03  0.96205351002E+02 0.  0.
        -11    1    3    3    0    0  0.28463333343E+02  0.43218766738E+01  0.26479671386E+02  0.39115380092E+02  0.00000000000E+00 0.  1.
         12    1    3    3    0    0  0.69913900492E+01 -0.32959850174E+01 -0.54300910363E+02  0.54848262673E+02  0.00000000000E+00 0. -1.
        -13    1    4    4    0    0  0.16725516297E+01 -0.92041804376E+02 -0.16720370510E+03  0.19087055871E+03  0.00000000000E+00 0.  1.
         13    1    4    4    0    0 -0.62497642878E+02 -0.15687345545E+02 -0.10314023336E+03  0.12161396266E+03  0.00000000000E+00 0. -1.
          1    1    1    2  501    0  0.25370367855E+02  0.10670325826E+03 -0.97663185825E+02  0.14685822672E+03  0.00000000000E+00 0. -1.
<scales pt_clust_5="13000.00000" pt_clust_6="13000.00000" pt_clust_7="13000.00000" pt_clust_8="13000.00000" pt_clust_9="112.85180"></scales>
<clustering>
<clus scale="   82.444">  5  6 -1 -1</clus>
<clus scale="   89.751">  2  5  1 -1</clus>
<clus scale="   96.205">  7  8 -1 -1</clus>
<clus scale="  112.852">  1  9  2 -1</clus>
<clus scale="  112.852">  1  5  2 -1</clus>
</clustering>
</event>
<event>
 9    2  0.1488992E-004  0.1364783E+03  0.7546771E-02  0.1220982E+00
         21   -1    0    0  501  502  0.00000000000E+00  0.00000000000E+00  0.36100172988E+03  0.36100172988E+03  0.00000000000E+00 0. -1.
          4   -1    0    0  502    0 -0.00000000000E+00 -0.00000000000E+00 -0.10184733527E+03  0.10184733527E+03  0.00000000000E+00 0. -1.
         24    2    1    2    0    0 -0.99640358192E+02 -0.34681651250E+02 -0.48483970463E+01  0.13136819853E+03  0.78122203736E+02 0.  0.
         23    2    1    2    0    0  0.69786504313E+02  0.62068572548E+02  0.26006579569E+03  0.29077710774E+03  0.90523170575E+02 0.  0.
        -11    1    3    3    0    0 -0.89432640003E+02  0.36319493804E+01  0.75516463770E+01  0.89824359264E+02  0.00000000000E+00 0.  1.
         12    1    3    3    0    0 -0.10207718189E+02 -0.38313600631E+02 -0.12400043423E+02  0.41543839264E+02  0.00000000000E+00 0. -1.
        -11    1    4    4    0    0  0.59319493260E+02  0.32598805564E+01  0.18805860045E+03  0.19721933552E+03  0.00000000000E+00 0.  1.
         11    1    4    4    0    0  0.10467011053E+02  0.58808691992E+02  0.72007195247E+02  0.93557772213E+02  0.00000000000E+00 0. -1.
          3    1    1    2  501    0  0.29853853879E+02 -0.27386921298E+02  0.39369959595E+01  0.40703758878E+02  0.00000000000E+00 0. -1.
<scales pt_clust_5="13000.00000" pt_clust_6="13000.00000" pt_clust_7="13000.00000" pt_clust_8="13000.00000" pt_clust_9="40.51293"></scales>
<clustering>
<clus scale="   40.513">  1  9  2 -1</clus>
<clus scale="   78.122">  5  6 -1 -1</clus>
<clus scale="   90.523">  7  8 -1 -1</clus>
<clus scale="  128.588">  2  5  1 -1</clus>
<clus scale="   40.513">  1  5  2 -1</clus>
</clustering>
</event>
<event>
 9    2  0.1488992E-004  0.9101511E+02  0.7546771E-02  0.1306713E+00
         21   -1    0    0  501  502  0.00000000000E+00  0.00000000000E+00  0.24011836205E+03  0.24011836205E+03  0.00000000000E+00 0. -1.
         -3   -1    0    0    0  501 -0.00000000000E+00 -0.00000000000E+00 -0.73049341064E+02  0.73049341064E+02  0.00000000000E+00 0.  1.
         24    2    1    2    0    0 -0.24403758373E+01 -0.98258159043E+01  0.29455405725E+02  0.86411426257E+02  0.80602801247E+02 0.  0.
         23    2    1    2    0    0  0.22117408830E+02 -0.97982354461E+01  0.16369463825E+03  0.18864448368E+03  0.90584885272E+02 0.  0.
        -11    1    3    3    0    0  0.25505386629E+02  0.39125130389E+00 -0.17420479847E+02  0.30889333803E+02  0.00000000000E+00 0.  1.
         12    1    3    3    0    0 -0.27945762467E+02 -0.10217067208E+02  0.46875885572E+02  0.55522092453E+02  0.00000000000E+00 0. -1.
        -11    1    4    4    0    0 -0.33086157321E+02  0.89876916477E+01  0.46825063223E+02  0.58034980428E+02  0.00000000000E+00 0.  1.
         11    1    4    4    0    0  0.55203566151E+02 -0.18785927094E+02  0.11686957503E+03  0.13060950325E+03  0.00000000000E+00 0. -1.
         -4    1    1    2    0  502 -0.19677032992E+02  0.19624051350E+02 -0.26081022991E+02  0.38111793176E+02  0.00000000000E+00 0.  1.
<scales pt_clust_5="13000.00000" pt_clust_6="13000.00000" pt_clust_7="13000.00000" pt_clust_8="13000.00000" pt_clust_9="27.79010"></scales>
<clustering>
<clus scale="   27.790">  1  9  2 -1</clus>
<clus scale="   80.603">  5  6 -1 -1</clus>
<clus scale="   81.086">  2  5  1 -1</clus>
<clus scale="   90.585">  7  8 -1 -1</clus>
<clus scale="   27.790">  1  5  2 -1</clus>
</clustering>
</event>
<event>
 9    2  0.1488992E-004  0.1242637E+03  0.7546771E-02  0.1240740E+00
          2   -1    0    0  502    0 -0.00000000000E+00  0.00000000000E+00  0.42868867300E+03  0.42868867300E+03  0.00000000000E+00 0. -1.
         21   -1    0    0  501  502  0.00000000000E+00 -0.00000000000E+00 -0.16525905522E+03  0.16525905522E+03  0.00000000000E+00 0.  1.
         24    2    1    2    0    0 -0.74037741133E+00 -0.91905818331E+02  0.48168213599E+02  0.12591021354E+03  0.71316039357E+02 0.  0.
         23    2    1    2    0    0  0.42446421202E+02  0.73176826520E+02 -0.94972162401E+02  0.15445333929E+03  0.87633188780E+02 0.  0.
        -11    1    3    3    0    0  0.33794298926E+02 -0.60782806348E+02  0.33251517083E+02  0.77086104946E+02  0.00000000000E+00 0.  1.
         12    1    3    3    0    0 -0.34534676338E+02 -0.31123011983E+02  0.14916696516E+02  0.48824108590E+02  0.00000000000E+00 0. -1.
        -13    1    4    4    0    0  0.69186527869E+02  0.55203297237E+02 -0.78310580725E+02  0.11818090674E+03  0.00000000000E+00 0.  1.
         13    1    4    4    0    0 -0.26740106667E+02  0.17973529283E+02 -0.16661581676E+02  0.36272432554E+02  0.00000000000E+00 0. -1.
          1    1    1    2  501    0 -0.41706043791E+02  0.18728991811E+02  0.31023356658E+03  0.31358417539E+03  0.00000000000E+00 0. -1.
<scales pt_clust_5="13000.00000" pt_clust_6="13000.00000" pt_clust_7="13000.00000" pt_clust_8="13000.00000" pt_clust_9="45.71839"></scales>
<clustering>
<clus scale="   45.718">  2  9  1 -1</clus>
<clus scale="   71.316">  5  6 -1 -1</clus>
<clus scale="   87.633">  7  8 -1 -1</clus>
<clus scale="  113.348">  1  5  2 -1</clus>
<clus scale="   45.718">  2  5  1 -1</clus>
</clustering>
</event>
<event>
 9    2  0.1488992E-004  0.1292606E+03  0.7546771E-02  0.1230665E+00
         -1   -1    0    0    0  501 -0.00000000000E+00  0.00000000000E+00  0.87699327701E+02  0.87699327701E+02  0.00000000000E+00 0.  1.
         21   -1    0    0  501  502  0.00000000000E+00 -0.00000000000E+00 -0.29389610983E+03  0.29389610983E+03  0.00000000000E+00 0. -1.
         23    2    1    2    0    0  0.89743649949E+02 -0.39177421554E+02  0.25108716934E+01  0.13250166004E+03  0.89227755602E+02 0.  0.
         24    2    1    2    0    0 -0.78292827559E+02  0.21205384827E+02 -0.17653658714E+03  0.21050501010E+03  0.81041702140E+02 0.  0.
        -11    1    4    4    0    0 -0.24770919820E+02 -0.62588437633E+01 -0.16970043834E+01  0.25605691122E+02  0.00000000000E+00 0.  1.
         12    1    4    4    0    0 -0.53521907739E+02  0.27464228591E+02 -0.17483958276E+03  0.18489931898E+03  0.00000000000E+00 0. -1.
        -13    1    3    3    0    0  0.28378725552E+02 -0.37056650434E+01 -0.40501045114E+02  0.49592526379E+02  0.00000000000E+00 0. -1.
         13    1    3    3    0    0  0.61364924397E+02 -0.35471756510E+02  0.43011916807E+02  0.82909133656E+02  0.00000000000E+00 0.  1.
         -2    1    1    2    0  502 -0.11450822390E+02  0.17972036726E+02 -0.32171066679E+02  0.38588767391E+02  0.00000000000E+00 0.  1.
<scales pt_clust_5="13000.00000" pt_clust_6="13000.00000" pt_clust_7="13000.00000" pt_clust_8="13000.00000" pt_clust_9="21.30998"></scales>
<clustering>
<clus scale="   21.310">  2  9  1 -1</clus>
<clus scale="   81.042">  5  6 -1 -1</clus>
<clus scale="   89.228">  7  8 -1 -1</clus>
<clus scale="  123.752">  2  5  1 -1</clus>
<clus scale="   21.310">  2  5  1 -1</clus>
</clustering>
</event>
<event>
 9    2  0.1488992E-004  0.1024796E+03  0.7546771E-02  0.1281737E+00
         21   -1    0    0  501  502  0.00000000000E+00  0.00000000000E+00  0.24236568176E+03  0.24236568176E+03  0.00000000000E+00 0.  1.
         -3   -1    0    0    0  501 -0.00000000000E+00 -0.00000000000E+00 -0.74908468623E+02  0.74908468623E+02  0.00000000000E+00 0.  1.
         23    2    1    2    0    0  0.28703634154E+02  0.39195187604E+02  0.12148228895E+02  0.10489338090E+03  0.92167676254E+02 0.  0.
         24    2    1    2    0    0  0.18397873315E+02 -0.49814863190E+02  0.11800743649E+03  0.15136655000E+03  0.78524359615E+02 0.  0.
        -13    1    4    4    0    0 -0.16508982109E+02 -0.49010348061E+02  0.38322316068E+02  0.64367387831E+02  0.00000000000E+00 0.  1.
         14    1    4    4    0    0  0.34906855425E+02 -0.80451512850E+00  0.79685120425E+02  0.86999162165E+02  0.00000000000E+00 0. -1.
        -11    1    3    3    0    0  0.92789875549E+01 -0.30200498843E+02 -0.11448942479E+01  0.31614561886E+02  0.00000000000E+00 0. -1.
         11    1    3    3    0    0  0.19424646599E+02  0.69395686447E+02  0.13293123143E+02  0.73278819012E+02  0.00000000000E+00 0.  1.
         -4    1    1    2    0  502 -0.47101507470E+02  0.10619675586E+02  0.37301547749E+02  0.61014219490E+02  0.00000000000E+00 0.  1.
<scales pt_clust_5="13000.00000" pt_clust_6="13000.00000" pt_clust_7="13000.00000" pt_clust_8="13000.00000" pt_clust_9="48.28384"></scales>
<clustering>
<clus scale="   48.284">  1  9  2 -1</clus>
<clus scale="   78.524">  5  6 -1 -1</clus>
<clus scale="   90.406">  1  5  2 -1</clus>
<clus scale="   92.168">  7  8 -1 -1</clus>
<clus scale="   48.284">  1  5  2 -1</clus>
</clustering>
</event>
<event>
 9    2  0.1488992E-004  0.2657816E+03  0.7546771E-02  0.1103868E+00
         -1   -1    0    0    0  501 -0.00000000000E+00  0.00000000000E+00  0.53270814675E+03  0.53270814675E+03  0.00000000000E+00 0.  1.
         21   -1    0    0  501  502  0.00000000000E+00 -0.00000000000E+00 -0.18640693692E+03  0.18640693692E+03  0.00000000000E+00 0. -1.
         23    2    1    2    0    0 -0.25471548377E+03  0.79462671862E+02  0.26559018808E+03  0.38713690182E+03  0.90236017491E+02 0.  0.
         24    2    1    2    0    0  0.20607627923E+03 -0.68369711827E+02 -0.36177803210E+01  0.23399771013E+03  0.87177919519E+02 0.  0.
        -11    1    4    4    0    0  0.42033553727E+02 -0.51030862336E+02  0.15590338391E+02  0.67926631013E+02  0.00000000000E+00 0.  1.
         12    1    4    4    0    0  0.16404272551E+03 -0.17338849492E+02 -0.19208118712E+02  0.16607107911E+03  0.00000000000E+00 0. -1.
        -13    1    3    3    0    0 -0.15461006313E+02  0.27444022872E+02  0.58570220429E+02  0.66503291863E+02  0.00000000000E+00 0.  1.
         13    1    3    3    0    0 -0.23925447745E+03  0.52018648990E+02  0.20701996765E+03  0.32063360995E+03  0.00000000000E+00 0. -1.
         -2    1    1    2    0  502  0.48639204535E+02 -0.11092960034E+02  0.84328802068E+02  0.97980471720E+02  0.00000000000E+00 0.  1.
<scales pt_clust_5="13000.00000" pt_clust_6="13000.00000" pt_clust_7="13000.00000" pt_clust_8="13000.00000" pt_clust_9="49.88816"></scales>
<clustering>
<clus scale="   49.888">  2  9  1 -1</clus>
<clus scale="   87.178">  5  6 -1 -1</clus>
<clus scale="   90.236">  7  8 -1 -1</clus>
<clus scale="  264.759">  2  5  1 -1</clus>
<clus scale="   49.888">  2  5  1 -1</clus>
</clustering>
</event>
<event>
 9    2  0.1488992E-004  0.1530296E+03  0.7546771E-02  0.1204605E+00
         21   -1    0    0  501  502  0.00000000000E+00  0.00000000000E+00  0.98970171724E+02  0.98970171724E+02  0.00000000000E+00 0. -1.
          2   -1    0    0  502    0 -0.00000000000E+00 -0.00000000000E+00 -0.58215486964E+03  0.58215486964E+03  0.00000000000E+00 0. -1.
         23    2    1    2    0    0  0.19267930454E+02 -0.88494852940E+02 -0.23744243185E+03  0.27031283171E+03  0.92127772163E+02 0.  0.
         24    2    1    2    0    0 -0.82096360556E+02 -0.78702990045E+02 -0.54629836833E+02  0.14922763263E+03  0.79689988144E+02 0.  0.
        -13    1    4    4    0    0 -0.31365383441E+02 -0.67870297450E+02 -0.12271494505E+01  0.74777472879E+02  0.00000000000E+00 0.  1.
         14    1    4    4    0    0 -0.50730977114E+02 -0.10832692595E+02 -0.53402687382E+02  0.74450159754E+02  0.00000000000E+00 0. -1.
        -11    1    3    3    0    0  0.25394160701E+02  0.11263876503E+02 -0.36328567222E+02  0.45732954289E+02  0.00000000000E+00 0.  1.
         11    1    3    3    0    0 -0.61262302470E+01 -0.99758729443E+02 -0.20111386463E+03  0.22457987742E+03  0.00000000000E+00 0. -1.
          1    1    1    2  501    0  0.62828430102E+02  0.16719784298E+03 -0.19111242924E+03  0.26158457702E+03  0.00000000000E+00 0. -1.
<scales pt_clust_5="13000.00000" pt_clust_6="13000.00000" pt_clust_7="13000.00000" pt_clust_8="13000.00000" pt_clust_9="130.64291"></scales>
<clustering>
<clus scale="   79.690">  5  6 -1 -1</clus>
<clus scale="   92.128">  7  8 -1 -1</clus>
<clus scale="  129.190">  2  7  1 -1</clus>
<clus scale="  130.643">  1  9  2 -1</clus>
<clus scale="  130.643">  1  5  2 -1</clus>
</clustering>
</event>
<event>
 9    2  0.1488992E-004  0.1130569E+03  0.7546771E-02  0.1259327E+00
         21   -1    0    0  501  502  0.00000000000E+00  0.00000000000E+00  0.16961105475E+03  0.16961105475E+03  0.00000000000E+00 0. -1.
         -1   -1    0    0    0  501 -0.00000000000E+00 -0.00000000000E+00 -0.13825988919E+03  0.13825988919E+03  0.00000000000E+00 0.  1.
         23    2    1    2    0    0 -0.69447114982E+00 -0.76532710869E+02 -0.68757813824E+02  0.13700767903E+03  0.90475018815E+02 0.  0.
         24    2    1    2    0    0  0.26886760649E+02  0.45392532783E+02  0.52631751267E+02  0.10833460021E+03  0.78631446824E+02 0.  0.
        -13    1    4    4    0    0 -0.48980263350E+00  0.61928330585E+02  0.27999797369E+02  0.67965775861E+02  0.00000000000E+00 0.  1.
         14    1    4    4    0    0  0.27376563283E+02 -0.16535797802E+02  0.24631953899E+02  0.40368824345E+02  0.00000000000E+00 0. -1.
        -11    1    3    3    0    0  0.33432106022E+02 -0.26876618940E+02  0.33661857421E+01  0.43027776670E+02  0.00000000000E+00 0.  1.
         11    1    3    3    0    0 -0.34126577172E+02 -0.49656091929E+02 -0.72123999566E+02  0.93979902365E+02  0.00000000000E+00 0. -1.
         -2    1    1    2    0  502 -0.26192289499E+02  0.31140178086E+02  0.47477228113E+02  0.62528664705E+02  0.00000000000E+00 0.  1.
<scales pt_clust_5="13000.00000" pt_clust_6="13000.00000" pt_clust_7="13000.00000" pt_clust_8="13000.00000" pt_clust_9="40.69087"></scales>
<clustering>
<clus scale="   40.691">  1  9  2 -1</clus>
<clus scale="   78.631">  5  6 -1 -1</clus>
<clus scale="   90.475">  7  8 -1 -1</clus>
<clus scale="  103.822">  1  5  2 -1</clus>
<clus scale="   40.691">  1  5  2 -1</clus>
</clustering>
</event>
<event>
 9    2  0.1488992E-004  0.1444657E+03  0.7546771E-02  0.1209932E+00
         21   -1    0    0  501  502  0.00000000000E+00  0.00000000000E+00  0.42917305989E+03  0.42917305989E+03  0.00000000000E+00 0.  1.
         -1   -1    0    0    0  501 -0.00000000000E+00 -0.00000000000E+00 -0.69541463189E+02  0.69541463189E+02  0.00000000000E+00 0.  1.
         23    2    1    2    0    0 -0.53318945135E+02  0.84310709716E+02  0.12553923172E+03  0.18507696561E+03  0.92423908257E+02 0.  0.
         24    2    1    2    0    0  0.24858719473E+02 -0.12915594536E+03  0.19000180818E+03  0.24460816660E+03  0.80207567590E+02 0.  0.
        -11    1    4    4    0    0  0.17842307620E+02 -0.13556796640E+03  0.14780363989E+03  0.20135276859E+03  0.00000000000E+00 0.  1.
         12    1    4    4    0    0  0.70164118530E+01  0.64120210456E+01  0.42198168294E+02  0.43255398005E+02  0.00000000000E+00 0. -1.
        -13    1    3    3    0    0 -0.73505644738E+02  0.39757500288E+02  0.98548115141E+02  0.12921095014E+03  0.00000000000E+00 0.  1.
         13    1    3    3    0    0  0.20186699603E+02  0.44553209428E+02  0.26991116578E+02  0.55866015477E+02  0.00000000000E+00 0. -1.
         -2    1    1    2    0  502  0.28460225661E+02  0.44845235641E+02  0.44090556799E+02  0.69029390865E+02  0.00000000000E+00 0.  1.
<scales pt_clust_5="13000.00000" pt_clust_6="13000.00000" pt_clust_7="13000.00000" pt_clust_8="13000.00000" pt_clust_9="53.11386"></scales>
<clustering>
<clus scale="   53.114">  1  9  2 -1</clus>
<clus scale="   80.208">  5  6 -1 -1</clus>
<clus scale="   92.424">  7  8 -1 -1</clus>
<clus scale="  136.972">  1  5  2 -1</clus>
<clus scale="   53.114">  1  5  2 -1</clus>
</clustering>
</event>
<event>
 9    2  0.1488992E-004  0.3505992E+03  0.7546771E-02  0.1062369E+00
          2   -1    0    0  502    0 -0.00000000000E+00  0.00000000000E+00  0.13734092460E+04  0.13734092460E+04  0.00000000000E+00 0. -1.
         21   -1    0    0  501  502  0.00000000000E+00 -0.00000000000E+00 -0.57683658261E+03  0.57683658261E+03  0.00000000000E+00 0. -1.
         24    2    1    2    0    0  0.11387997990E+03 -0.48496710237E+02  0.37833496269E+03  0.40621658899E+03  0.80956731945E+02 0.  0.
         23    2    1    2    0    0  0.13564008896E+03 -0.84268468983E+02  0.93603680202E+03  0.95411164625E+03  0.93084532421E+02 0.  0.
        -13    1    3    3    0    0  0.78014068358E+02  0.22453424228E+01  0.14408146152E+03  0.16386184418E+03  0.00000000000E+00 0.  1.
         14    1    3    3    0    0  0.35865911540E+02 -0.50742052659E+02  0.23425350117E+03  0.24235474481E+03  0.00000000000E+00 0. -1.
        -11    1    4    4    0    0  0.11991222940E+03 -0.24686304486E+02  0.66281214891E+03  0.67402396184E+03  0.00000000000E+00 0. -1.
         11    1    4    4    0    0  0.15727859565E+02 -0.59582164497E+02  0.27322465311E+03  0.28008768441E+03  0.00000000000E+00 0.  1.
          1    1    1    2  501    0 -0.24952006886E+03  0.13276517922E+03 -0.51779910135E+03  0.58991759334E+03  0.00000000000E+00 0. -1.
<scales pt_clust_5="13000.00000" pt_clust_6="13000.00000" pt_clust_7="13000.00000" pt_clust_8="13000.00000" pt_clust_9="282.64263"></scales>
<clustering>
<clus scale="   80.957">  5  6 -1 -1</clus>
<clus scale="   93.085">  7  8 -1 -1</clus>
<clus scale="  124.824">  5  7 -1 -1</clus>
<clus scale="  282.643">  2  9  1 -1</clus>
<clus scale="  282.643">  2  5  1 -1</clus>
</clustering>
</event>
<event>
 9    2  0.1488992E-004  0.1004735E+03  0.7546771E-02  0.1284222E+00
         -3   -1    0    0    0  501 -0.00000000000E+00  0.00000000000E+00  0.16870060334E+03  0.16870060334E+03  0.00000000000E+00 0.  1.
         21   -1    0    0  501  502  0.00000000000E+00 -0.00000000000E+00 -0.16114347469E+03  0.16114347469E+03  0.00000000000E+00 0.  1.
         23    2    1    2    0    0 -0.79464512671E+01  0.27010293056E+02  0.70830635720E+02  0.11757822430E+03  0.89526296999E+02 0.  0.
         24    2    1    2    0    0  0.45559378781E+02 -0.80434846144E+02 -0.74196197066E+00  0.12182742538E+03  0.79347020097E+02 0.  0.
        -13    1    4    4    0    0  0.52408612975E+02 -0.93405202863E+02 -0.18311515587E+01  0.10711931549E+03  0.00000000000E+00 0.  1.
         14    1    4    4    0    0 -0.68492341945E+01  0.12970356719E+02  0.10891895881E+01  0.14708109887E+02  0.00000000000E+00 0. -1.
        -13    1    3    3    0    0 -0.23226887019E+02 -0.67699695663E+01  0.76352371173E+02  0.80093728545E+02  0.00000000000E+00 0. -1.
         13    1    3    3    0    0  0.15280435752E+02  0.33780262622E+02 -0.55217354530E+01  0.37484495755E+02  0.00000000000E+00 0.  1.
         -4    1    1    2    0  502 -0.37612927514E+02  0.53424553088E+02 -0.62531545098E+02  0.90438428343E+02  0.00000000000E+00 0.  1.
<scales pt_clust_5="13000.00000" pt_clust_6="13000.00000" pt_clust_7="13000.00000" pt_clust_8="13000.00000" pt_clust_9="65.33694"></scales>
<clustering>
<clus scale="   65.337">  2  9  1 -1</clus>
<clus scale="   79.347">  5  6 -1 -1</clus>
<clus scale="   89.526">  7  8 -1 -1</clus>
<clus scale="   91.520">  2  5  1 -1</clus>
<clus scale="   65.337">  2  5  1 -1</clus>
</clustering>
</event>
<event>
 9    2  0.1488992E-004  0.9550997E+02  0.7546771E-02  0.1290102E+00
         -3   -1    0    0    0  501 -0.00000000000E+00  0.00000000000E+00  0.89476178710E+02  0.89476178710E+02  0.00000000000E+00 0.  1.
         21   -1    0    0  501  502  0.00000000000E+00 -0.00000000000E+00 -0.16316700730E+03  0.16316700730E+03  0.00000000000E+00 0. -1.
         23    2    1    2    0    0 -0.25182479814E+02 -0.59668436621E+01  0.15603503270E+02  0.96643976318E+02  0.91797757769E+02 0.  0.
         24    2    1    2    0    0  0.29402531902E+02 -0.19855235536E+02 -0.84016206184E+02  0.12930750266E+03  0.91667704679E+02 0.  0.
        -11    1    4    4    0    0  0.55456721681E+02 -0.25989490877E+02 -0.28241213575E+02  0.67442329140E+02  0.00000000000E+00 0.  1.
         12    1    4    4    0    0 -0.26054189778E+02  0.61342553413E+01 -0.55774992609E+02  0.61865173515E+02  0.00000000000E+00 0. -1.
        -11    1    3    3    0    0 -0.45920866370E+02 -0.12723169590E+02  0.41215940562E+02  0.63002847309E+02  0.00000000000E+00 0.  1.
         11    1    3    3    0    0  0.20738386556E+02  0.67563259276E+01 -0.25612437292E+02  0.33641129010E+02  0.00000000000E+00 0. -1.
         -4    1    1    2    0  502 -0.42200520882E+01  0.25822079198E+02 -0.52781256735E+01  0.26691707033E+02  0.00000000000E+00 0.  1.
<scales pt_clust_5="13000.00000" pt_clust_6="13000.00000" pt_clust_7="13000.00000" pt_clust_8="13000.00000" pt_clust_9="26.16466"></scales>
<clustering>
<clus scale="   26.165">  2  9  1 -1</clus>
<clus scale="   91.668">  5  6 -1 -1</clus>
<clus scale="   91.798">  7  8 -1 -1</clus>
<clus scale="   95.385">  2  5  1 -1</clus>
<clus scale="   26.165">  2  5  1 -1</clus>
</clustering>
</event>
<event>
 9    2  0.1488992E-004  0.1260377E+03  0.7546771E-02  0.1247023E+00
         -3   -1    0    0    0  501 -0.00000000000E+00  0.00000000000E+00  0.45676713626E+03  0.45676713626E+03  0.00000000000E+00 0.  1.
         21   -1    0    0  501  502  0.00000000000E+00 -0.00000000000E+00 -0.70766198563E+02  0.70766198563E+02  0.00000000000E+00 0.  1.
         23    2    1    2    0    0 -0.26904383799E+02  0.16780674264E+02  0.19740646114E+02  0.97709092059E+02  0.90288075988E+02 0.  0.
         24    2    1    2    0    0  0.41057568992E+02  0.82977267122E+02  0.22109946451E+03  0.25312216231E+03  0.81332066336E+02 0.  0.
        -11    1    4    4    0    0  0.56414121428E+02  0.32755534216E+02  0.84328883058E+02  0.10661537711E+03  0.00000000000E+00 0.  1.
         12    1    4    4    0    0 -0.15356552435E+02  0.50221732906E+02  0.13677058145E+03  0.14650678520E+03  0.00000000000E+00 0. -1.
        -13    1    3    3    0    0 -0.19394250748E+01 -0.36615095645E+02  0.95656365370E+01  0.37893640642E+02  0.00000000000E+00 0. -1.
         13    1    3    3    0    0 -0.24964958724E+02  0.53395769910E+02  0.10175009577E+02  0.59815451417E+02  0.00000000000E+00 0.  1.
         -4    1    1    2    0  502 -0.14153185194E+02 -0.99757941386E+02  0.14516082708E+03  0.17670208046E+03  0.00000000000E+00 0.  1.
<scales pt_clust_5="13000.00000" pt_clust_6="13000.00000" pt_clust_7="13000.00000" pt_clust_8="13000.00000" pt_clust_9="96.28392"></scales>
<clustering>
<clus scale="   81.332">  5  6 -1 -1</clus>
<clus scale="   90.288">  7  8 -1 -1</clus>
<clus scale="   95.694">  1  7  2 -1</clus>
<clus scale="   96.284">  2  9  1 -1</clus>
<clus scale="   96.284">  2  5  1 -1</clus>
</clustering>
</event>
<event>
 9    2  0.1488992E-004  0.1009174E+03  0.7546771E-02  0.1283641E+00
          2   -1    0    0  502    0 -0.00000000000E+00  0.00000000000E+00  0.13706694282E+03  0.13706694282E+03  0.00000000000E+00 0. -1.
         21   -1    0    0  501  502  0.00000000000E+00 -0.00000000000E+00 -0.14419709158E+03  0.14419709158E+03  0.00000000000E+00 0. -1.
         23    2    1    2    0    0 -0.60436005425E+02 -0.25992209328E+02  0.55729973082E+02  0.12531538338E+03  0.90939593767E+02 0.  0.
         24    2    1    2    0    0  0.14026916665E+02 -0.88053856418E+01 -0.21236185973E+02  0.84553776050E+02  0.80150335260E+02 0.  0.
        -11    1    4    4    0    0 -0.72888694365E+01 -0.29916440558E+02  0.17609970150E+02  0.35471567234E+02  0.00000000000E+00 0.  1.
         12    1    4    4    0    0  0.21315786101E+02  0.21111054916E+02 -0.38846156123E+02  0.49082208817E+02  0.00000000000E+00 0. -1.
        -11    1    3    3    0    0 -0.81452782959E+02 -0.21407339409E+02  0.59972182411E+02  0.10339000288E+03  0.00000000000E+00 0. -1.
         11    1    3    3    0    0  0.21016777534E+02 -0.45848699182E+01 -0.42422093287E+01  0.21925380500E+02  0.00000000000E+00 0.  1.
          1    1    1    2  501    0  0.46409088760E+02  0.34797594969E+02 -0.41623935873E+02  0.71394874975E+02  0.00000000000E+00 0. -1.
<scales pt_clust_5="13000.00000" pt_clust_6="13000.00000" pt_clust_7="13000.00000" pt_clust_8="13000.00000" pt_clust_9="58.00583"></scales>
<clustering>
<clus scale="   58.006">  2  9  1 -1</clus>
<clus scale="   80.150">  5  6 -1 -1</clus>
<clus scale="   90.940">  7  8 -1 -1</clus>
<clus scale="   91.315">  2  5  1 -1</clus>
<clus scale="   58.006">  2  5  1 -1</clus>
</clustering>
</event>
<event>
 9    2  0.1488992E-004  0.5240101E+03  0.7546771E-02  0.1031469E+00
         21   -1    0    0  501  502  0.00000000000E+00  0.00000000000E+00  0.10493428643E+04  0.10493428643E+04  0.00000000000E+00 0.  1.
         -3   -1    0    0    0  501 -0.00000000000E+00 -0.00000000000E+00 -0.10040352504E+04  0.10040352504E+04  0.00000000000E+00 0.  1.
         24    2    1    2    0    0  0.18513840960E+03 -0.15752639407E+03 -0.26555179741E+03  0.36814557960E+03  0.76958528644E+02 0.  0.
         23    2    1    2    0    0  0.53519500169E+02 -0.49248164929E+03  0.72172613229E+03  0.88007446565E+03  0.90774133246E+02 0.  0.
        -13    1    3    3    0    0  0.88473451957E+02 -0.12449089372E+03 -0.15414586164E+03  0.21699419573E+03  0.00000000000E+00 0.  1.
         14    1    3    3    0    0  0.96664957640E+02 -0.33035500349E+02 -0.11140593578E+03  0.15115138387E+03  0.00000000000E+00 0. -1.
        -13    1    4    4    0    0  0.14115806813E+02 -0.11735602238E+03  0.11034727163E+03  0.16170408884E+03  0.00000000000E+00 0. -1.
         13    1    4    4    0    0  0.39403693356E+02 -0.37512562691E+03  0.61137886066E+03  0.71837037681E+03  0.00000000000E+00 0.  1.
         -4    1    1    2    0  502 -0.23865790977E+03  0.65000804336E+03 -0.41086672104E+03  0.80515806944E+03  0.00000000000E+00 0.  1.
<scales pt_clust_5="13000.00000" pt_clust_6="13000.00000" pt_clust_7="13000.00000" pt_clust_8="13000.00000" pt_clust_9="516.08806"></scales>
<clustering>
<clus scale="   76.959">  5  6 -1 -1</clus>
<clus scale="   90.774">  7  8 -1 -1</clus>
<clus scale="  254.977">  2  5  1 -1</clus>
<clus scale="  516.088">  1  9  2 -1</clus>
<clus scale="  516.088">  1  5  2 -1</clus>
</clustering>
</event>
<event>
 9    2  0.1680665E-004  0.3043668E+03  0.7546771E-02  0.1083486E+00
          2   -1    0    0  502    0 -0.00000000000E+00  0.00000000000E+00  0.14562932963E+04  0.14562932963E+04  0.00000000000E+00 0. -1.
         21   -1    0    0  501  502  0.00000000000E+00 -0.00000000000E+00 -0.15964906648E+03  0.15964906648E+03  0.00000000000E+00 0.  1.
         23    2    1    2    0    0 -0.11425453014E+03 -0.27045574187E+03  0.12691630523E+04  0.13060193238E+04  0.93333888269E+02 0.  0.
         24    2    1    2    0    0  0.10143305974E+03  0.24385652305E+03  0.36812282116E+02  0.27895566814E+03  0.81892925393E+02 0.  0.
        -11    1    4    4    0    0  0.11378214275E+03  0.22859319087E+03  0.26329884890E+02  0.25669921262E+03  0.00000000000E+00 0.  1.
         12    1    4    4    0    0 -0.12349083017E+02  0.15263332185E+02  0.10482397226E+02  0.22256455521E+02  0.00000000000E+00 0. -1.
        -13    1    3    3    0    0 -0.20997289318E+02 -0.61458815016E+02  0.14625767415E+03  0.16002930778E+03  0.00000000000E+00 0.  1.
         13    1    3    3    0    0 -0.93257240825E+02 -0.20899692685E+03  0.11229053782E+04  0.11459900160E+04  0.00000000000E+00 0. -1.
          1    1    1    2  501    0  0.12821470406E+02  0.26599218815E+02 -0.93311046217E+01  0.30967370867E+02  0.00000000000E+00 0. -1.
<scales pt_clust_5="13000.00000" pt_clust_6="13000.00000" pt_clust_7="13000.00000" pt_clust_8="13000.00000" pt_clust_9="29.52810"></scales>
<clustering>
<clus scale="   29.528">  2  9  1 -1</clus>
<clus scale="   81.893">  5  6 -1 -1</clus>
<clus scale="   93.334">  7  8 -1 -1</clus>
<clus scale="  301.055">  2  5  1 -1</clus>
<clus scale="   29.528">  2  5  1 -1</clus>
</clustering>
</event>
<event>
 9    2  0.1488992E-004  0.1674994E+03  0.7546771E-02  0.1207951E+00
         -1   -1    0    0    0  501 -0.00000000000E+00  0.00000000000E+00  0.31696190470E+03  0.31696190470E+03  0.00000000000E+00 0.  1.
         21   -1    0    0  501  502  0.00000000000E+00 -0.00000000000E+00 -0.28598094145E+03  0.28598094145E+03  0.00000000000E+00 0.  1.
         24    2    1    2    0    0 -0.13782153121E+02  0.42264247097E+02 -0.14596637721E+03  0.17237163371E+03  0.80184677476E+02 0.  0.
         23    2    1    2    0    0 -0.13152950511E+03 -0.31279331843E+02  0.22545079095E+03  0.27698497904E+03  0.87259453129E+02 0.  0.
        -11    1    3    3    0    0 -0.40451764858E+02  0.49499146210E+02 -0.10594550037E+03  0.12373746322E+03  0.00000000000E+00 0.  1.
         12    1    3    3    0    0  0.26669611737E+02 -0.72348991123E+01 -0.40020876846E+02  0.48634170487E+02  0.00000000000E+00 0. -1.
        -13    1    4    4    0    0 -0.18171114911E+02 -0.28954037352E+02  0.13773644523E+02  0.36854293910E+02  0.00000000000E+00 0. -1.
         13    1    4    4    0    0 -0.11335839019E+03 -0.23252944901E+01  0.21167714643E+03  0.24013068513E+03  0.00000000000E+00 0.  1.
         -2    1    1    2    0  502  0.14531165823E+03 -0.10984915255E+02 -0.48503450492E+02  0.15358623340E+03  0.00000000000E+00 0.  1.
<scales pt_clust_5="13000.00000" pt_clust_6="13000.00000" pt_clust_7="13000.00000" pt_clust_8="13000.00000" pt_clust_9="142.97498"></scales>
<clustering>
<clus scale="   80.185">  5  6 -1 -1</clus>
<clus scale="   87.259">  7  8 -1 -1</clus>
<clus scale="   91.683">  1  5  2 -1</clus>
<clus scale="  142.975">  2  9  1 -1</clus>
<clus scale="  142.975">  2  5  1 -1</clus>
</clustering>
</event>
<event>
 9    2  0.1488992E-004  0.3152547E+03  0.7546771E-02  0.1096627E+00
          2   -1    0    0  502    0 -0.00000000000E+00  0.00000000000E+00  0.83964986192E+03  0.83964986192E+03  0.00000000000E+00 0. -1.
         21   -1    0    0  501  502  0.00000000000E+00 -0.00000000000E+00 -0.22604560184E+03  0.22604560184E+03  0.00000000000E+00 0. -1.
         23    2    1    2    0    0 -0.16565129429E+03 -0.27936665192E+02  0.24819968955E+03  0.31344457009E+03  0.91780194313E+02 0.  0.
         24    2    1    2    0    0 -0.98990999254E+01  0.30029572299E+03  0.27615934187E+03  0.41615253289E+03  0.81507270243E+02 0.  0.
        -13    1    4    4    0    0  0.32642779253E+02  0.75586772491E+02  0.65385979584E+02  0.10513913419E+03  0.00000000000E+00 0.  1.
         14    1    4    4    0    0 -0.42541879178E+02  0.22470895050E+03  0.21077336228E+03  0.31101339869E+03  0.00000000000E+00 0. -1.
        -11    1    3    3    0    0 -0.42574191049E+01 -0.27157361210E+02  0.20250044263E+02  0.34142527411E+02  0.00000000000E+00 0.  1.
         11    1    3    3    0    0 -0.16139387518E+03 -0.77930398158E+00  0.22794964528E+03  0.27930204268E+03  0.00000000000E+00 0. -1.
          1    1    1    2  501    0  0.17555039421E+03 -0.27235905780E+03  0.89245228664E+02  0.33609836077E+03  0.00000000000E+00 0. -1.
<scales pt_clust_5="13000.00000" pt_clust_6="13000.00000" pt_clust_7="13000.00000" pt_clust_8="13000.00000" pt_clust_9="304.53582"></scales>
<clustering>
<clus scale="   81.507">  5  6 -1 -1</clus>
<clus scale="   91.780">  7  8 -1 -1</clus>
<clus scale="  191.427">  1  7  2 -1</clus>
<clus scale="  304.536">  2  9  1 -1</clus>
<clus scale="  304.536">  2  5  1 -1</clus>
</clustering>
</event>
<event>
 9    2  0.1488992E-004  0.1582478E+03  0.7546771E-02  0.1192879E+00
          2   -1    0    0  502    0 -0.00000000000E+00  0.00000000000E+00  0.10416477477E+04  0.10416477477E+04  0.00000000000E+00 0. -1.
         21   -1    0    0  501  502  0.00000000000E+00 -0.00000000000E+00 -0.33283763371E+02  0.33283763371E+02  0.00000000000E+00 0. -1.
         24    2    1    2    0    0 -0.12096425063E+03 -0.72505843052E+02  0.67632275873E+03  0.69520422907E+03  0.77504831688E+02 0.  0.
         23    2    1    2    0    0  0.92775239068E+02  0.46262096819E+02  0.20635917474E+03  0.24827640716E+03  0.91157220032E+02 0.  0.
        -13    1    3    3    0    0 -0.76728878138E+02 -0.12636702727E+01  0.34532945815E+03  0.35375323641E+03  0.00000000000E+00 0.  1.
         14    1    3    3    0    0 -0.44235372492E+02 -0.71242172779E+02  0.33099330058E+03  0.34145099266E+03  0.00000000000E+00 0. -1.
        -13    1    4    4    0    0  0.41298515201E+02  0.66743192668E+02  0.90099616672E+02  0.11949126349E+03  0.00000000000E+00 0.  1.
         13    1    4    4    0    0  0.51476723867E+02 -0.20481095849E+02  0.11625955807E+03  0.12878514367E+03  0.00000000000E+00 0. -1.
          1    1    1    2  501    0  0.28189011562E+02  0.26243746233E+02  0.12568205084E+03  0.13145087483E+03  0.00000000000E+00 0. -1.
<scales pt_clust_5="13000.00000" pt_clust_6="13000.00000" pt_clust_7="13000.00000" pt_clust_8="13000.00000" pt_clust_9="38.51436"></scales>
<clustering>
<clus scale="   38.514">  2  9  1 -1</clus>
<clus scale="   77.505">  5  6 -1 -1</clus>
<clus scale="   91.157">  7  8 -1 -1</clus>
<clus scale="  150.797">  1  5  2 -1</clus>
<clus scale="   38.514">  2  5  1 -1</clus>
</clustering>
</event>
<event>
 9    2  0.1488992E-004  0.1198792E+03  0.7546771E-02  0.1249875E+00
          2   -1    0    0  502    0 -0.00000000000E+00  0.00000000000E+00  0.37565080172E+03  0.37565080172E+03  0.00000000000E+00 0. -1.
         21   -1    0    0  501  502  0.00000000000E+00 -0.00000000000E+00 -0.11495284123E+03  0.11495284123E+03  0.00000000000E+00 0. -1.
         24    2    1    2    0    0  0.69564167231E+02 -0.35554012307E+02  0.32090618595E+03  0.33824474018E+03  0.72975769462E+02 0.  0.
         23    2    1    2    0    0 -0.43967445914E+02  0.19623432883E+02 -0.62678335430E+02  0.12210866399E+03  0.93079195698E+02 0.  0.
        -11    1    3    3    0    0  0.17359269649E+02 -0.11079225935E+02  0.11651514056E+02  0.23661176426E+02  0.00000000000E+00 0.  1.
         12    1    3    3    0    0  0.52204897582E+02 -0.24474786372E+02  0.30925467189E+03  0.31458356376E+03  0.00000000000E+00 0. -1.
        -13    1    4    4    0    0 -0.36939907102E+02  0.23836541131E+00  0.16377261062E+02  0.40408269384E+02  0.00000000000E+00 0.  1.
         13    1    4    4    0    0 -0.70275388119E+01  0.19385067472E+02 -0.79055596492E+02  0.81700394610E+02  0.00000000000E+00 0. -1.
          1    1    1    2  501    0 -0.25596721317E+02  0.15930579424E+02  0.24701099704E+01  0.30250238780E+02  0.00000000000E+00 0. -1.
<scales pt_clust_5="13000.00000" pt_clust_6="13000.00000" pt_clust_7="13000.00000" pt_clust_8="13000.00000" pt_clust_9="30.14922"></scales>
<clustering>
<clus scale="   30.149">  2  9  1 -1</clus>
<clus scale="   72.976">  5  6 -1 -1</clus>
<clus scale="   93.079">  7  8 -1 -1</clus>
<clus scale="  105.037">  1  5  2 -1</clus>
<clus scale="   30.149">  2  5  1 -1</clus>
</clustering>
</event>
<event>
 9    2  0.1488992E-004  0.3590429E+03  0.7546771E-02  0.1090148E+00
         21   -1    0    0  501  502  0.00000000000E+00  0.00000000000E+00  0.72291002714E+02  0.72291002714E+02  0.00000000000E+00 0. -1.
          2   -1    0    0  502    0 -0.00000000000E+00 -0.00000000000E+00 -0.26760683431E+04  0.26760683431E+04  0.00000000000E+00 0. -1.
         23    2    1    2    0    0 -0.15414698053E+02  0.12656760008E+03 -0.54681603690E+03  0.56798647340E+03  0.85696472768E+02 0.  0.
         24    2    1    2    0    0  0.18434635478E+03 -0.35968479487E+03 -0.93127790847E+03  0.10184586600E+04  0.81380398077E+02 0.  0.
        -13    1    4    4    0    0  0.32973266350E+02 -0.12958088211E+03 -0.24784300529E+03  0.28161071814E+03  0.00000000000E+00 0.  1.
         14    1    4    4    0    0  0.15137308843E+03 -0.23010391276E+03 -0.68343490318E+03  0.73684794188E+03  0.00000000000E+00 0. -1.
        -13    1    3    3    0    0  0.33779062771E+02  0.45412082010E+02 -0.25178855894E+03  0.25807123181E+03  0.00000000000E+00 0.  1.
         13    1    3    3    0    0 -0.49193760824E+02  0.81155518072E+02 -0.29502747796E+03  0.30991524159E+03  0.00000000000E+00 0. -1.
          1    1    1    2  501    0 -0.16893165672E+03  0.23311719479E+03 -0.11256833950E+04  0.11619142124E+04  0.00000000000E+00 0. -1.
<scales pt_clust_5="13000.00000" pt_clust_6="13000.00000" pt_clust_7="13000.00000" pt_clust_8="13000.00000" pt_clust_9="349.69868"></scales>
<clustering>
<clus scale="   81.380">  5  6 -1 -1</clus>
<clus scale="   85.696">  7  8 -1 -1</clus>
<clus scale="  153.626">  2  7  1 -1</clus>
<clus scale="  349.699">  1  9  2 -1</clus>
<clus scale="  349.699">  1  5  2 -1</clus>
</clustering>
</event>
<event>
 9    2  0.1488992E-004  0.1637771E+03  0.7546771E-02  0.1185897E+00
         21   -1    0    0  501  502  0.00000000000E+00  0.00000000000E+00  0.77932215778E+02  0.77932215778E+02  0.00000000000E+00 0. -1.
          2   -1    0    0  502    0 -0.00000000000E+00 -0.00000000000E+00 -0.15071628608E+04  0.15071628608E+04  0.00000000000E+00 0. -1.
         24    2    1    2    0    0 -0.83703987162E+02 -0.10935123876E+03 -0.12603360917E+04  0.12705280523E+04  0.82646335983E+02 0.  0.
         23    2    1    2    0    0  0.46074675677E+02  0.12007058704E+03 -0.20665645163E+03  0.26019027859E+03  0.91936230385E+02 0.  0.
        -13    1    3    3    0    0 -0.50242706404E+02 -0.63993679867E+02 -0.39145209735E+03  0.39981778991E+03  0.00000000000E+00 0.  1.
         14    1    3    3    0    0 -0.33461280758E+02 -0.45357558896E+02 -0.86888399431E+03  0.87071026239E+03  0.00000000000E+00 0. -1.
        -13    1    4    4    0    0  0.52958015631E+02  0.93656302862E+02 -0.20655120038E+03  0.23289365141E+03  0.00000000000E+00 0.  1.
         13    1    4    4    0    0 -0.68833399539E+01  0.26414284178E+02 -0.10525125106E+00  0.27296627180E+02  0.00000000000E+00 0. -1.
          1    1    1    2  501    0  0.37629311484E+02 -0.10719348277E+02  0.37761898277E+02  0.54376745689E+02  0.00000000000E+00 0. -1.
<scales pt_clust_5="13000.00000" pt_clust_6="13000.00000" pt_clust_7="13000.00000" pt_clust_8="13000.00000" pt_clust_9="39.12633"></scales>
<clustering>
<clus scale="   39.126">  1  9  2 -1</clus>
<clus scale="   82.646">  5  6 -1 -1</clus>
<clus scale="   91.936">  7  8 -1 -1</clus>
<clus scale="  158.748">  2  5  1 -1</clus>
<clus scale="   39.126">  1  5  2 -1</clus>
</clustering>
</event>
<event>
 9    2  0.1488992E-004  0.2045462E+03  0.7546771E-02  0.1184291E+00
          2   -1    0    0  502    0 -0.00000000000E+00  0.00000000000E+00  0.59594722139E+03  0.59594722139E+03  0.00000000000E+00 0. -1.
         21   -1    0    0  501  502  0.00000000000E+00 -0.00000000000E+00 -0.17225985411E+03  0.17225985411E+03  0.00000000000E+00 0. -1.
         24    2    1    2    0    0 -0.26811830303E+02 -0.24551659971E+01 -0.72213074306E+02  0.11112024816E+03  0.80050480108E+02 0.  0.
         23    2    1    2    0    0  0.15983535192E+03 -0.11811862577E+03  0.39552772954E+03  0.45139779534E+03  0.88421916541E+02 0.  0.
        -13    1    3    3    0    0 -0.48750273090E+02 -0.69474934086E+01 -0.17940423908E+02  0.52409117537E+02  0.00000000000E+00 0.  1.
         14    1    3    3    0    0  0.21938442787E+02  0.44923274115E+01 -0.54272650398E+02  0.58711130620E+02  0.00000000000E+00 0. -1.
        -13    1    4    4    0    0  0.38869686943E+02 -0.30793760882E+02  0.33529346368E+02  0.59860883222E+02  0.00000000000E+00 0.  1.
         13    1    4    4    0    0  0.12096566498E+03 -0.87324864889E+02  0.36199838317E+03  0.39153691212E+03  0.00000000000E+00 0. -1.
          1    1    1    2  501    0 -0.13302352162E+03  0.12057379177E+03  0.10037271204E+03  0.20568903201E+03  0.00000000000E+00 0. -1.
<scales pt_clust_5="13000.00000" pt_clust_6="13000.00000" pt_clust_7="13000.00000" pt_clust_8="13000.00000" pt_clust_9="184.44710"></scales>
<clustering>
<clus scale="   80.050">  5  6 -1 -1</clus>
<clus scale="   84.457">  1  5  2 -1</clus>
<clus scale="   88.422">  7  8 -1 -1</clus>
<clus scale="  184.447">  2  9  1 -1</clus>
<clus scale="  184.447">  2  5  1 -1</clus>
</clustering>
</event>
<event>
 9    2  0.1488992E-004  0.2710470E+03  0.7546771E-02  0.1101327E+00
         21   -1    0    0  501  502  0.00000000000E+00  0.00000000000E+00  0.26442125006E+03  0.26442125006E+03  0.00000000000E+00 0. -1.
          2   -1    0    0  502    0 -0.00000000000E+00 -0.00000000000E+00 -0.56442977168E+03  0.56442977168E+03  0.00000000000E+00 0. -1.
         24    2    1    2    0    0  0.71422623212E+02  0.20447163474E+03 -0.15088690415E+03  0.27646943117E+03  0.82210996857E+02 0.  0.
         23    2    1    2    0    0  0.66067474996E+01 -0.35144897289E+03 -0.85467747397E+02  0.37421667877E+03  0.95777644393E+02 0.  0.
        -13    1    3    3    0    0  0.51782004774E+02  0.11203681329E+03 -0.37770600187E+02  0.12907455903E+03  0.00000000000E+00 0.  1.
         14    1    3    3    0    0  0.19640618438E+02  0.92434821457E+02 -0.11311630396E+03  0.14739487214E+03  0.00000000000E+00 0. -1.
        -11    1    4    4    0    0 -0.11243938956E+02 -0.35410997007E+02  0.17879071650E+02  0.41231372464E+02  0.00000000000E+00 0.  1.
         11    1    4    4    0    0  0.17850686456E+02 -0.31603797589E+03 -0.10334681905E+03  0.33298530631E+03  0.00000000000E+00 0. -1.
          1    1    1    2  501    0 -0.78029370711E+02  0.14697733815E+03 -0.63653870067E+02  0.17816491180E+03  0.00000000000E+00 0. -1.
<scales pt_clust_5="13000.00000" pt_clust_6="13000.00000" pt_clust_7="13000.00000" pt_clust_8="13000.00000" pt_clust_9="166.40589"></scales>
<clustering>
<clus scale="   82.211">  5  6 -1 -1</clus>
<clus scale="   95.778">  7  8 -1 -1</clus>
<clus scale="  166.406">  1  9  2 -1</clus>
<clus scale="  266.555">  2  5  1 -1</clus>
<clus scale="  166.406">  1  5  2 -1</clus>
</clustering>
</event>
<event>
 9    2  0.1488992E-004  0.9991951E+02  0.7546771E-02  0.1285715E+00
         21   -1    0    0  501  502  0.00000000000E+00  0.00000000000E+00  0.50318258394E+02  0.50318258394E+02  0.00000000000E+00 0. -1.
          2   -1    0    0  502    0 -0.00000000000E+00 -0.00000000000E+00 -0.36851028233E+03  0.36851028233E+03  0.00000000000E+00 0. -1.
         23    2    1    2    0    0  0.61769814741E+01 -0.42859359056E+02 -0.12291192136E+03  0.15906888150E+03  0.91216713869E+02 0.  0.
         24    2    1    2    0    0  0.12989227650E+02  0.37134747089E+02 -0.32141464878E+02  0.95399293372E+02  0.80748015054E+02 0.  0.
        -11    1    4    4    0    0 -0.12104303114E+02 -0.20288210946E+02  0.25657531546E+01  0.23763601296E+02  0.00000000000E+00 0.  1.
         12    1    4    4    0    0  0.25093530764E+02  0.57422958036E+02 -0.34707218032E+02  0.71635692077E+02  0.00000000000E+00 0. -1.
        -13    1    3    3    0    0  0.28926734677E+02 -0.11938564689E+02 -0.10582320133E+01  0.31311422212E+02  0.00000000000E+00 0.  1.
         13    1    3    3    0    0 -0.22749753203E+02 -0.30920794368E+02 -0.12185368935E+03  0.12775745929E+03  0.00000000000E+00 0. -1.
          1    1    1    2  501    0 -0.19166209124E+02  0.57246119671E+01 -0.16313863769E+03  0.16436036585E+03  0.00000000000E+00 0. -1.
<scales pt_clust_5="13000.00000" pt_clust_6="13000.00000" pt_clust_7="13000.00000" pt_clust_8="13000.00000" pt_clust_9="20.00288"></scales>
<clustering>
<clus scale="   20.003">  1  9  2 -1</clus>
<clus scale="   80.748">  5  6 -1 -1</clus>
<clus scale="   90.464">  1  5  2 -1</clus>
<clus scale="   91.217">  7  8 -1 -1</clus>
<clus scale="   20.003">  1  5  2 -1</clus>
</clustering>
</event>
<event>
 9    2  0.1488992E-004  0.1678092E+03  0.7546771E-02  0.1181261E+00
         21   -1    0    0  501  502  0.00000000000E+00  0.00000000000E+00  0.10787982420E+04  0.10787982420E+04  0.00000000000E+00 0.  1.
          2   -1    0    0  502    0 -0.00000000000E+00 -0.00000000000E+00 -0.44589356845E+02  0.44589356845E+02  0.00000000000E+00 0. -1.
         23    2    1    2    0    0  0.16407265487E+03 -0.54865116498E+02  0.41280275524E+03  0.45616803370E+03  0.88051934388E+02 0.  0.
         24    2    1    2    0    0 -0.10382185659E+03  0.16055100565E+02  0.55160457062E+03  0.56717640590E+03  0.79904498734E+02 0.  0.
        -13    1    4    4    0    0 -0.66211375106E+02  0.48069130968E+02  0.37299235006E+03  0.38186107520E+03  0.00000000000E+00 0.  1.
         14    1    4    4    0    0 -0.37610481482E+02 -0.32014030404E+02  0.17861222056E+03  0.18531533070E+03  0.00000000000E+00 0. -1.
        -13    1    3    3    0    0  0.65651572253E+02  0.15434283766E+02  0.98307925232E+02  0.11921742414E+03  0.00000000000E+00 0. -1.
         13    1    3    3    0    0  0.98421082617E+02 -0.70299400264E+02  0.31449483001E+03  0.33695060956E+03  0.00000000000E+00 0.  1.
          1    1    1    2  501    0 -0.60250798282E+02  0.38810015934E+02  0.69801559256E+02  0.10004315921E+03  0.00000000000E+00 0. -1.
<scales pt_clust_5="13000.00000" pt_clust_6="13000.00000" pt_clust_7="13000.00000" pt_clust_8="13000.00000" pt_clust_9="71.66855"></scales>
<clustering>
<clus scale="   71.669">  1  9  2 -1</clus>
<clus scale="   79.904">  5  6 -1 -1</clus>
<clus scale="   88.052">  7  8 -1 -1</clus>
<clus scale="  163.681">  1  5  2 -1</clus>
<clus scale="   71.669">  1  5  2 -1</clus>
</clustering>
</event>
<event>
 9    2  0.1488992E-004  0.1349284E+03  0.7546771E-02  0.1222543E+00
         -3   -1    0    0    0  501 -0.00000000000E+00  0.00000000000E+00  0.10238623774E+03  0.10238623774E+03  0.00000000000E+00 0.  1.
         21   -1    0    0  501  502  0.00000000000E+00 -0.00000000000E+00 -0.40935952831E+03  0.40935952831E+03  0.00000000000E+00 0. -1.
         23    2    1    2    0    0 -0.11387127488E+03  0.40456121676E+02 -0.68321890113E+02  0.16546526349E+03  0.90041699947E+02 0.  0.
         24    2    1    2    0    0  0.68147704334E+02  0.34262956859E+02 -0.23351830906E+03  0.25853123346E+03  0.80557669970E+02 0.  0.
        -11    1    4    4    0    0 -0.16920193809E+02  0.16638050190E+02 -0.42249858443E+02  0.48457901431E+02  0.00000000000E+00 0.  1.
         12    1    4    4    0    0  0.85067898143E+02  0.17624906669E+02 -0.19126845061E+03  0.21007333203E+03  0.00000000000E+00 0. -1.
        -13    1    3    3    0    0 -0.89066941422E+02  0.69156227188E+02 -0.50554438589E+02  0.12357691967E+03  0.00000000000E+00 0. -1.
         13    1    3    3    0    0 -0.24804333460E+02 -0.28700105511E+02 -0.17767451525E+02  0.41888343826E+02  0.00000000000E+00 0.  1.
         -4    1    1    2    0  502  0.45723570549E+02 -0.74719078536E+02 -0.51330913966E+01  0.87749269104E+02  0.00000000000E+00 0.  1.
<scales pt_clust_5="13000.00000" pt_clust_6="13000.00000" pt_clust_7="13000.00000" pt_clust_8="13000.00000" pt_clust_9="87.59905"></scales>
<clustering>
<clus scale="   80.558">  5  6 -1 -1</clus>
<clus scale="   87.599">  2  9  1 -1</clus>
<clus scale="   90.042">  7  8 -1 -1</clus>
<clus scale="  128.793">  2  5  1 -1</clus>
<clus scale="   87.599">  2  5  1 -1</clus>
</clustering>
</event>
<event>
 9    2  0.1488992E-004  0.1269048E+03  0.7546771E-02  0.1235418E+00
         -1   -1    0    0    0  501 -0.00000000000E+00  0.00000000000E+00  0.12333059193E+04  0.12333059193E+04  0.00000000000E+00 0.  1.
         21   -1    0    0  501  502  0.00000000000E+00 -0.00000000000E+00 -0.21490706578E+02  0.21490706578E+02  0.00000000000E+00 0. -1.
         24    2    1    2    0    0 -0.26020768522E+02 -0.88821946926E+02  0.54678772349E+03  0.56013479467E+03  0.78789307585E+02 0.  0.
         23    2    1    2    0    0 -0.40839591970E+02  0.88387750400E+02  0.41392006873E+03  0.43480526893E+03  0.90804911169E+02 0.  0.
        -13    1    3    3    0    0  0.21390711342E+02 -0.61966367010E+02  0.34173333940E+03  0.34796417693E+03  0.00000000000E+00 0.  1.
         14    1    3    3    0    0 -0.47411479865E+02 -0.26855579917E+02  0.20505438409E+03  0.21217061774E+03  0.00000000000E+00 0. -1.
        -13    1    4    4    0    0 -0.50688143341E+02  0.26433440708E+02  0.10473869352E+03  0.11932396483E+03  0.00000000000E+00 0. -1.
         13    1    4    4    0    0  0.98485513708E+01  0.61954309692E+02  0.30918137522E+03  0.31548130410E+03  0.00000000000E+00 0.  1.
         -2    1    1    2    0  502  0.66860360493E+02  0.43419652610E+00  0.25110742050E+03  0.25985656229E+03  0.00000000000E+00 0.  1.
<scales pt_clust_5="13000.00000" pt_clust_6="13000.00000" pt_clust_7="13000.00000" pt_clust_8="13000.00000" pt_clust_9="66.86180"></scales>
<clustering>
<clus scale="   66.862">  2  9  1 -1</clus>
<clus scale="   78.789">  5  6 -1 -1</clus>
<clus scale="   90.805">  7  8 -1 -1</clus>
<clus scale="  118.605">  1  5  2 -1</clus>
<clus scale="   66.862">  2  5  1 -1</clus>
</clustering>
</event>
<event>
 9    2  0.1488992E-004  0.9516677E+02  0.7546771E-02  0.1297276E+00
          2   -1    0    0  502    0 -0.00000000000E+00  0.00000000000E+00  0.47146855544E+03  0.47146855544E+03  0.00000000000E+00 0. -1.
         21   -1    0    0  501  502  0.00000000000E+00 -0.00000000000E+00 -0.43139344682E+02  0.43139344682E+02  0.00000000000E+00 0. -1.
         24    2    1    2    0    0  0.13067321704E+02 -0.41545375609E+02  0.21562670527E+03  0.23356119885E+03  0.78480471763E+02 0.  0.
         23    2    1    2    0    0  0.12900283661E+02 -0.77733421868E+01  0.40100720165E+02  0.99668563815E+02  0.89993959175E+02 0.  0.
        -13    1    3    3    0    0 -0.24224860138E+02  0.85636624226E+01  0.44419689049E+02  0.51315581825E+02  0.00000000000E+00 0.  1.
         14    1    3    3    0    0  0.37292181842E+02 -0.50109038032E+02  0.17120701623E+03  0.18224561702E+03  0.00000000000E+00 0. -1.
        -11    1    4    4    0    0 -0.46278494073E+01 -0.19985513837E+02 -0.24309157215E+02  0.31808377481E+02  0.00000000000E+00 0. -1.
         11    1    4    4    0    0  0.17528133069E+02  0.12212171650E+02  0.64409877380E+02  0.67860186334E+02  0.00000000000E+00 0.  1.
          1    1    1    2  501    0 -0.25967605365E+02  0.49318717796E+02  0.17260178532E+03  0.18137813746E+03  0.00000000000E+00 0. -1.
<scales pt_clust_5="13000.00000" pt_clust_6="13000.00000" pt_clust_7="13000.00000" pt_clust_8="13000.00000" pt_clust_9="55.73738"></scales>
<clustering>
<clus scale="   55.737">  2  9  1 -1</clus>
<clus scale="   78.480">  5  6 -1 -1</clus>
<clus scale="   84.362">  1  5  2 -1</clus>
<clus scale="   89.994">  7  8 -1 -1</clus>
<clus scale="   55.737">  2  5  1 -1</clus>
</clustering>
</event>
<event>
 9    2  0.1488992E-004  0.1078456E+03  0.7546771E-02  0.1269570E+00
          2   -1    0    0  502    0 -0.00000000000E+00  0.00000000000E+00  0.29124900905E+03  0.29124900905E+03  0.00000000000E+00 0. -1.
         21   -1    0    0  501  502  0.00000000000E+00 -0.00000000000E+00 -0.17654936961E+03  0.17654936961E+03  0.00000000000E+00 0.  1.
         23    2    1    2    0    0  0.91168206069E+01  0.51958503243E+02  0.22516770789E+03  0.24916343151E+03  0.92731421022E+02 0.  0.
         24    2    1    2    0    0  0.45158988516E+02 -0.76246502570E+02 -0.40256057825E+02  0.12662681271E+03  0.80999605600E+02 0.  0.
        -11    1    4    4    0    0  0.58858014081E+02 -0.58686495484E+02 -0.55226575328E+02  0.99791508638E+02  0.00000000000E+00 0.  1.
         12    1    4    4    0    0 -0.13699025565E+02 -0.17560007086E+02  0.14970517503E+02  0.26835304072E+02  0.00000000000E+00 0. -1.
        -13    1    3    3    0    0 -0.33988607362E+02  0.53589385473E+02  0.12896752394E+03  0.14373472057E+03  0.00000000000E+00 0. -1.
         13    1    3    3    0    0  0.43105427969E+02 -0.16308822301E+01  0.96200183947E+02  0.10542871093E+03  0.00000000000E+00 0.  1.
          1    1    1    2  501    0 -0.54275809123E+02  0.24287999327E+02 -0.70212010625E+02  0.92008134441E+02  0.00000000000E+00 0. -1.
<scales pt_clust_5="13000.00000" pt_clust_6="13000.00000" pt_clust_7="13000.00000" pt_clust_8="13000.00000" pt_clust_9="59.46234"></scales>
<clustering>
<clus scale="   59.462">  2  9  1 -1</clus>
<clus scale="   81.000">  5  6 -1 -1</clus>
<clus scale="   92.731">  7  8 -1 -1</clus>
<clus scale="   97.941">  2  5  1 -1</clus>
<clus scale="   59.462">  2  5  1 -1</clus>
</clustering>
</event>
<event>
 9    2  0.1488992E-004  0.1005776E+03  0.7546771E-02  0.1281397E+00
         21   -1    0    0  501  502  0.00000000000E+00  0.00000000000E+00  0.35084306245E+02  0.35084306245E+02  0.00000000000E+00 0.  1.
          2   -1    0    0  502    0 -0.00000000000E+00 -0.00000000000E+00 -0.65466819272E+03  0.65466819272E+03  0.00000000000E+00 0. -1.
         24    2    1    2    0    0 -0.20129430010E+02  0.30727459019E+02 -0.50434170469E+03  0.51404869548E+03  0.92391209214E+02 0.  0.
         23    2    1    2    0    0  0.39577841679E+02 -0.41740096177E+02 -0.72511413651E+02  0.12748101387E+03  0.87663348135E+02 0.  0.
        -11    1    3    3    0    0  0.30374165683E+02  0.17976377620E+02 -0.93887273643E+02  0.10030234417E+03  0.00000000000E+00 0.  1.
         12    1    3    3    0    0 -0.50503595693E+02  0.12751081399E+02 -0.41045443105E+03  0.41374635131E+03  0.00000000000E+00 0. -1.
        -13    1    4    4    0    0  0.42034000875E+02  0.13960092707E+02 -0.51432252410E+02  0.67875017539E+02  0.00000000000E+00 0. -1.
         13    1    4    4    0    0 -0.24561591955E+01 -0.55700188884E+02 -0.21079161241E+02  0.59605996329E+02  0.00000000000E+00 0.  1.
          1    1    1    2  501    0 -0.19448411669E+02  0.11012637158E+02 -0.42730768134E+02  0.48222789622E+02  0.00000000000E+00 0. -1.
<scales pt_clust_5="13000.00000" pt_clust_6="13000.00000" pt_clust_7="13000.00000" pt_clust_8="13000.00000" pt_clust_9="22.34992"></scales>
<clustering>
<clus scale="   22.350">  1  9  2 -1</clus>
<clus scale="   87.663">  7  8 -1 -1</clus>
<clus scale="   92.391">  5  6 -1 -1</clus>
<clus scale="   96.253">  1  7  2 -1</clus>
<clus scale="   22.350">  1  5  2 -1</clus>
</clustering>
</event>
<event>
 9    2  0.1488992E-004  0.1360393E+03  0.7546771E-02  0.1221391E+00
         21   -1    0    0  501  502  0.00000000000E+00  0.00000000000E+00  0.12933459381E+03  0.12933459381E+03  0.00000000000E+00 0. -1.
          2   -1    0    0  502    0 -0.00000000000E+00 -0.00000000000E+00 -0.85121751803E+03  0.85121751803E+03  0.00000000000E+00 0. -1.
         24    2    1    2    0    0  0.62185357512E+02 -0.73098713483E+02 -0.27977686529E+03  0.30674371881E+03  0.81278373971E+02 0.  0.
         23    2    1    2    0    0 -0.26230968447E+02  0.14694307545E+03  0.43854609074E+02  0.18095600262E+03  0.92420327943E+02 0.  0.
        -13    1    3    3    0    0  0.45537827895E+02 -0.83017060037E+02 -0.26759853887E+03  0.28385648492E+03  0.00000000000E+00 0.  1.
         14    1    3    3    0    0  0.16647529617E+02  0.99183465537E+01 -0.12178326425E+02  0.22887233892E+02  0.00000000000E+00 0. -1.
        -13    1    4    4    0    0 -0.20519836026E+02  0.10039488291E+03 -0.17267677703E+02  0.10391520042E+03  0.00000000000E+00 0.  1.
         13    1    4    4    0    0 -0.57111324210E+01  0.46548192545E+02  0.61122286777E+02  0.77040802200E+02  0.00000000000E+00 0. -1.
          1    1    1    2  501    0 -0.35954389065E+02 -0.73844361971E+02 -0.48596066801E+03  0.49285239041E+03  0.00000000000E+00 0. -1.
<scales pt_clust_5="13000.00000" pt_clust_6="13000.00000" pt_clust_7="13000.00000" pt_clust_8="13000.00000" pt_clust_9="82.13230"></scales>
<clustering>
<clus scale="   81.278">  5  6 -1 -1</clus>
<clus scale="   82.132">  1  9  2 -1</clus>
<clus scale="   92.420">  7  8 -1 -1</clus>
<clus scale="  128.730">  2  5  1 -1</clus>
<clus scale="   82.132">  1  5  2 -1</clus>
</clustering>
</event>
<event>
 9    2  0.1488992E-004  0.1900876E+03  0.7546771E-02  0.1159687E+00
         -3   -1    0    0    0  501 -0.00000000000E+00  0.00000000000E+00  0.31930643598E+03  0.31930643598E+03  0.00000000000E+00 0.  1.
         21   -1    0    0  501  502  0.00000000000E+00 -0.00000000000E+00 -0.19311055837E+03  0.19311055837E+03  0.00000000000E+00 0.  1.
         23    2    1    2    0    0  0.81567583264E+02  0.11348572448E+03  0.48393111514E+02  0.17384002690E+03  0.91357437636E+02 0.  0.
         24    2    1    2    0    0 -0.13740530617E+03 -0.16671209459E+03  0.13611170112E+01  0.22997575433E+03  0.78828004502E+02 0.  0.
        -13    1    4    4    0    0 -0.90325023587E+02 -0.80972425612E+02 -0.33974081573E+02  0.12597373462E+03  0.00000000000E+00 0.  1.
         14    1    4    4    0    0 -0.47080282581E+02 -0.85739668977E+02  0.35335198585E+02  0.10400201971E+03  0.00000000000E+00 0. -1.
        -13    1    3    3    0    0  0.56140819012E+02  0.12124495783E+03  0.20269915805E+02  0.13514067058E+03  0.00000000000E+00 0.  1.
         13    1    3    3    0    0  0.25426764251E+02 -0.77592333549E+01  0.28123195709E+02  0.38699356318E+02  0.00000000000E+00 0. -1.
         -4    1    1    2    0  502  0.55837722904E+02  0.53226370113E+02  0.76441649085E+02  0.10860121311E+03  0.00000000000E+00 0.  1.
<scales pt_clust_5="13000.00000" pt_clust_6="13000.00000" pt_clust_7="13000.00000" pt_clust_8="13000.00000" pt_clust_9="77.14210"></scales>
<clustering>
<clus scale="   77.142">  2  9  1 -1</clus>
<clus scale="   78.828">  5  6 -1 -1</clus>
<clus scale="   91.357">  7  8 -1 -1</clus>
<clus scale="  184.393">  2  5  1 -1</clus>
<clus scale="   77.142">  2  5  1 -1</clus>
</clustering>
</event>
<event>
 9    2  0.1488992E-004  0.9320275E+02  0.7546771E-02  0.1306457E+00
         21   -1    0    0  501  502  0.00000000000E+00  0.00000000000E+00  0.52989647559E+02  0.52989647559E+02  0.00000000000E+00 0.  1.
          2   -1    0    0  502    0 -0.00000000000E+00 -0.00000000000E+00 -0.41096079530E+03  0.41096079530E+03  0.00000000000E+00 0. -1.
         23    2    1    2    0    0 -0.36213194533E+02 -0.20839561109E+02 -0.30060056365E+03  0.30985845315E+03  0.62497034781E+02 0.  0.
         24    2    1    2    0    0  0.59750100096E+02  0.40854671477E+01 -0.15570315949E+02  0.10327911728E+03  0.82688426178E+02 0.  0.
        -13    1    4    4    0    0  0.56606240373E+02  0.28094979339E+02  0.14334302132E+02  0.64800204713E+02  0.00000000000E+00 0.  1.
         14    1    4    4    0    0  0.31438597234E+01 -0.24009512191E+02 -0.29904618081E+02  0.38478912565E+02  0.00000000000E+00 0. -1.
        -11    1    3    3    0    0 -0.46196169240E+02  0.58480187622E+01 -0.17793618327E+03  0.18392816721E+03  0.00000000000E+00 0.  1.
         11    1    3    3    0    0  0.99829747075E+01 -0.26687579871E+02 -0.12266438038E+03  0.12593028594E+03  0.00000000000E+00 0. -1.
          1    1    1    2  501    0 -0.23536905563E+02  0.16754093961E+02 -0.41800268142E+02  0.50812872431E+02  0.00000000000E+00 0. -1.
<scales pt_clust_5="13000.00000" pt_clust_6="13000.00000" pt_clust_7="13000.00000" pt_clust_8="13000.00000" pt_clust_9="28.89094"></scales>
<clustering>
<clus scale="   28.891">  1  9  2 -1</clus>
<clus scale="   62.497">  7  8 -1 -1</clus>
<clus scale="   75.863">  2  7  1 -1</clus>
<clus scale="   82.688">  5  6 -1 -1</clus>
<clus scale="   28.891">  1  5  2 -1</clus>
</clustering>
</event>
<event>
 9    2  0.1488992E-004  0.1142720E+03  0.7546771E-02  0.1257032E+00
         21   -1    0    0  501  502  0.00000000000E+00  0.00000000000E+00  0.92523535284E+02  0.92523535284E+02  0.00000000000E+00 0. -1.
          2   -1    0    0  502    0 -0.00000000000E+00 -0.00000000000E+00 -0.45559072749E+03  0.45559072749E+03  0.00000000000E+00 0. -1.
         24    2    1    2    0    0  0.39264305648E+02 -0.87089033371E+02 -0.31505497818E+03  0.33880310285E+03  0.80010735483E+02 0.  0.
         23    2    1    2    0    0  0.14011726219E+02  0.21638296147E+02 -0.74495302675E+02  0.12086067345E+03  0.91614452650E+02 0.  0.
        -11    1    3    3    0    0 -0.23281657417E+02 -0.30410606408E+02 -0.72716991905E+02  0.82186382484E+02  0.00000000000E+00 0.  1.
         12    1    3    3    0    0  0.62545963065E+02 -0.56678426962E+02 -0.24233798627E+03  0.25661672036E+03  0.00000000000E+00 0. -1.
        -13    1    4    4    0    0 -0.26339318755E+02  0.89165630711E+01  0.73184373108E+01  0.28754553277E+02  0.00000000000E+00 0.  1.
         13    1    4    4    0    0  0.40351044973E+02  0.12721733076E+02 -0.81813739985E+02  0.92106120173E+02  0.00000000000E+00 0. -1.
          1    1    1    2  501    0 -0.53276031867E+02  0.65450737224E+02  0.26483088643E+02  0.88450486481E+02  0.00000000000E+00 0. -1.
<scales pt_clust_5="13000.00000" pt_clust_6="13000.00000" pt_clust_7="13000.00000" pt_clust_8="13000.00000" pt_clust_9="84.39274"></scales>
<clustering>
<clus scale="   80.011">  5  6 -1 -1</clus>
<clus scale="   84.393">  1  9  2 -1</clus>
<clus scale="   91.614">  7  8 -1 -1</clus>
<clus scale="  105.198">  2  5  1 -1</clus>
<clus scale="   84.393">  1  5  2 -1</clus>
</clustering>
</event>
<event>
 9    2  0.1488992E-004  0.1618482E+03  0.7546771E-02  0.1189534E+00
          2   -1    0    0  502    0 -0.00000000000E+00  0.00000000000E+00  0.25290857862E+03  0.25290857862E+03  0.00000000000E+00 0. -1.
         21   -1    0    0  501  502  0.00000000000E+00 -0.00000000000E+00 -0.25945497586E+03  0.25945497586E+03  0.00000000000E+00 0. -1.
         24    2    1    2    0    0 -0.16139491957E+03 -0.23478193207E+02  0.24705121859E+02  0.18142420322E+03  0.75530476287E+02 0.  0.
         23    2    1    2    0    0  0.67456566940E+02 -0.47378125881E+01 -0.14178240628E+03  0.18316373047E+03  0.94201200298E+02 0.  0.
        -11    1    3    3    0    0 -0.58575190390E+02  0.24408559521E+02  0.24436309336E+02  0.67999734713E+02  0.00000000000E+00 0.  1.
         12    1    3    3    0    0 -0.10281972918E+03 -0.47886752728E+02  0.26881252347E+00  0.11342446850E+03  0.00000000000E+00 0. -1.
        -11    1    4    4    0    0  0.69521982661E+02  0.29164615293E+02 -0.66321943713E+02  0.10041155848E+03  0.00000000000E+00 0. -1.
         11    1    4    4    0    0 -0.20654157212E+01 -0.33902427881E+02 -0.75460462567E+02  0.82752171991E+02  0.00000000000E+00 0.  1.
          1    1    1    2  501    0  0.93938352630E+02  0.28216005795E+02  0.11053088718E+03  0.14777562078E+03  0.00000000000E+00 0. -1.
<scales pt_clust_5="13000.00000" pt_clust_6="13000.00000" pt_clust_7="13000.00000" pt_clust_8="13000.00000" pt_clust_9="98.08449"></scales>
<clustering>
<clus scale="   75.530">  5  6 -1 -1</clus>
<clus scale="   94.201">  7  8 -1 -1</clus>
<clus scale="   98.084">  2  9  1 -1</clus>
<clus scale="  151.743">  1  5  2 -1</clus>
<clus scale="   98.084">  2  5  1 -1</clus>
</clustering>
</event>
<event>
 9    2  0.1488992E-004  0.1358424E+03  0.7546771E-02  0.1226360E+00
         21   -1    0    0  501  502  0.00000000000E+00  0.00000000000E+00  0.26730657779E+03  0.26730657779E+03  0.00000000000E+00 0. -1.
          2   -1    0    0  502    0 -0.00000000000E+00 -0.00000000000E+00 -0.55477113933E+03  0.55477113933E+03  0.00000000000E+00 0. -1.
         24    2    1    2    0    0  0.61796211202E+02  0.61854649069E+02 -0.50491492924E+03  0.51819417375E+03  0.77080131084E+02 0.  0.
         23    2    1    2    0    0 -0.42289990135E+02 -0.80984995159E+02  0.72234544524E+02  0.15611988714E+03  0.10396430653E+03 0.  0.
        -11    1    3    3    0    0  0.45535380429E+02  0.16126183665E+01 -0.12204652428E+03  0.13027442381E+03  0.00000000000E+00 0.  1.
         12    1    3    3    0    0  0.16260830773E+02  0.60242030702E+02 -0.38286840495E+03  0.38791974994E+03  0.00000000000E+00 0. -1.
        -11    1    4    4    0    0  0.12184311071E+02 -0.75168131089E+02  0.16395977564E+02  0.77894373660E+02  0.00000000000E+00 0. -1.
         11    1    4    4    0    0 -0.54474301207E+02 -0.58168640706E+01  0.55838566960E+02  0.78225513483E+02  0.00000000000E+00 0.  1.
          1    1    1    2  501    0 -0.19506221067E+02  0.19130346090E+02  0.14521582318E+03  0.14776365623E+03  0.00000000000E+00 0. -1.
<scales pt_clust_5="13000.00000" pt_clust_6="13000.00000" pt_clust_7="13000.00000" pt_clust_8="13000.00000" pt_clust_9="27.32147"></scales>
<clustering>
<clus scale="   27.321">  1  9  2 -1</clus>
<clus scale="   77.080">  5  6 -1 -1</clus>
<clus scale="  103.964">  7  8 -1 -1</clus>
<clus scale="  116.559">  2  5  1 -1</clus>
<clus scale="   27.321">  1  5  2 -1</clus>
</clustering>
</event>
<event>
 9    2  0.1488992E-004  0.4688152E+03  0.7546771E-02  0.1022255E+00
         21   -1    0    0  501  502  0.00000000000E+00  0.00000000000E+00  0.22346047313E+03  0.22346047313E+03  0.00000000000E+00 0. -1.
          2   -1    0    0  502    0 -0.00000000000E+00 -0.00000000000E+00 -0.10231811614E+04  0.10231811614E+04  0.00000000000E+00 0. -1.
         24    2    1    2    0    0 -0.21605073418E+03 -0.56540090097E+02 -0.35143483516E+03  0.42439110256E+03  0.82016236466E+02 0.  0.
         23    2    1    2    0    0 -0.18138954862E+03  0.10935940082E+03 -0.33274405757E+03  0.40499933129E+03  0.91892347922E+02 0.  0.
        -11    1    3    3    0    0 -0.71967406861E+02 -0.24657144798E+02 -0.57046467322E+02  0.95087232969E+02  0.00000000000E+00 0.  1.
         12    1    3    3    0    0 -0.14408332732E+03 -0.31882945299E+02 -0.29438836783E+03  0.32930386959E+03  0.00000000000E+00 0. -1.
        -11    1    4    4    0    0 -0.18943290627E+03  0.90102261898E+02 -0.29702463734E+03  0.36363014006E+03  0.00000000000E+00 0. -1.
         11    1    4    4    0    0  0.80433576485E+01  0.19257138920E+02 -0.35719420226E+02  0.41369191229E+02  0.00000000000E+00 0.  1.
          1    1    1    2  501    0  0.39744028280E+03 -0.52819310721E+02 -0.11554179559E+03  0.41725120072E+03  0.00000000000E+00 0. -1.
<scales pt_clust_5="13000.00000" pt_clust_6="13000.00000" pt_clust_7="13000.00000" pt_clust_8="13000.00000" pt_clust_9="400.93473"></scales>
<clustering>
<clus scale="   82.016">  5  6 -1 -1</clus>
<clus scale="   91.892">  7  8 -1 -1</clus>
<clus scale="  188.593">  5  7 -1 -1</clus>
<clus scale="  400.935">  1  9  2 -1</clus>
<clus scale="  400.935">  1  5  2 -1</clus>
</clustering>
</event>
<event>
 9    2  0.1488992E-004  0.2499692E+03  0.7546771E-02  0.1152478E+00
         -1   -1    0    0    0  501 -0.00000000000E+00  0.00000000000E+00  0.19446530187E+03  0.19446530187E+03  0.00000000000E+00 0.  1.
         21   -1    0    0  501  502  0.00000000000E+00 -0.00000000000E+00 -0.52028550310E+03  0.52028550310E+03  0.00000000000E+00 0.  1.
         24    2    1    2    0    0 -0.45372727667E+02  0.20070447235E+02  0.14089389655E+02  0.97041026208E+02  0.82200624076E+02 0.  0.
         23    2    1    2    0    0  0.24001647310E+03  0.58417101881E+02 -0.30914610005E+03  0.40559453799E+03  0.88967145127E+02 0.  0.
        -13    1    3    3    0    0  0.20274792465E+02  0.40668536949E+01  0.20562017572E+02  0.29161671336E+02  0.00000000000E+00 0.  1.
         14    1    3    3    0    0 -0.65647520132E+02  0.16003593540E+02 -0.64726279169E+01  0.67879354872E+02  0.00000000000E+00 0. -1.
        -11    1    4    4    0    0  0.21443497247E+03  0.19561644147E+02 -0.24226822592E+03  0.32412792017E+03  0.00000000000E+00 0.  1.
         11    1    4    4    0    0  0.25581500631E+02  0.38855457735E+02 -0.66877874129E+02  0.81466617815E+02  0.00000000000E+00 0. -1.
         -2    1    1    2    0  502 -0.19464374544E+03 -0.78487549116E+02 -0.30763490828E+02  0.21211524078E+03  0.00000000000E+00 0.  1.
<scales pt_clust_5="13000.00000" pt_clust_6="13000.00000" pt_clust_7="13000.00000" pt_clust_8="13000.00000" pt_clust_9="233.60113"></scales>
<clustering>
<clus scale="   82.201">  5  6 -1 -1</clus>
<clus scale="   88.967">  7  8 -1 -1</clus>
<clus scale="   96.013">  1  5  2 -1</clus>
<clus scale="  233.601">  2  9  1 -1</clus>
<clus scale="  233.601">  2  5  1 -1</clus>
</clustering>
</event>
<event>
 9    2  0.1488992E-004  0.2696706E+03  0.7546771E-02  0.1102242E+00
         21   -1    0    0  501  502  0.00000000000E+00  0.00000000000E+00  0.11666639641E+03  0.11666639641E+03  0.00000000000E+00 0. -1.
          2   -1    0    0  502    0 -0.00000000000E+00 -0.00000000000E+00 -0.12316453443E+04  0.12316453443E+04  0.00000000000E+00 0. -1.
         23    2    1    2    0    0 -0.19433770260E+03 -0.20074973748E+03 -0.88969627148E+03  0.93753311984E+03  0.96650377988E+02 0.  0.
         24    2    1    2    0    0  0.64806287843E+02  0.17998348273E+03 -0.10418581480E+03  0.23224550171E+03  0.80556688476E+02 0.  0.
        -11    1    4    4    0    0  0.65083354507E+02  0.10399204889E+03 -0.96074267566E+02  0.15582186674E+03  0.00000000000E+00 0.  1.
         12    1    4    4    0    0 -0.27706666409E+00  0.75991433840E+02 -0.81115472323E+01  0.76423634966E+02  0.00000000000E+00 0. -1.
        -11    1    3    3    0    0 -0.24943064048E+02 -0.69857644591E+02 -0.14780750864E+03  0.16537625755E+03  0.00000000000E+00 0.  1.
         11    1    3    3    0    0 -0.16939463856E+03 -0.13089209289E+03 -0.74188876284E+03  0.77215686229E+03  0.00000000000E+00 0. -1.
          1    1    1    2  501    0  0.12953141476E+03  0.20766254743E+02 -0.12109686163E+03  0.17853311918E+03  0.00000000000E+00 0. -1.
<scales pt_clust_5="13000.00000" pt_clust_6="13000.00000" pt_clust_7="13000.00000" pt_clust_8="13000.00000" pt_clust_9="131.18546"></scales>
<clustering>
<clus scale="   80.557">  5  6 -1 -1</clus>
<clus scale="   96.650">  7  8 -1 -1</clus>
<clus scale="  131.185">  1  9  2 -1</clus>
<clus scale="  264.330">  1  5  2 -1</clus>
<clus scale="  131.185">  1  5  2 -1</clus>
</clustering>
</event>
<event>
 9    2  0.1488992E-004  0.1489718E+03  0.7546771E-02  0.1203603E+00
          2   -1    0    0  502    0 -0.00000000000E+00  0.00000000000E+00  0.26900345381E+03  0.26900345381E+03  0.00000000000E+00 0. -1.
         21   -1    0    0  501  502  0.00000000000E+00 -0.00000000000E+00 -0.44109013961E+03  0.44109013961E+03  0.00000000000E+00 0.  1.
         23    2    1    2    0    0 -0.11687340357E+03  0.18211379723E+02  0.22794931896E+03  0.27196907944E+03  0.89527880258E+02 0.  0.
         24    2    1    2    0    0  0.12704131172E+03 -0.39229458477E+02 -0.33602090110E+03  0.36998436805E+03  0.79372169751E+02 0.  0.
        -13    1    4    4    0    0  0.13098443199E+03 -0.48790425467E+02 -0.27924535130E+03  0.31227454789E+03  0.00000000000E+00 0.  1.
         14    1    4    4    0    0 -0.39431202718E+01  0.95609669896E+01 -0.56775549805E+02  0.57709820160E+02  0.00000000000E+00 0. -1.
        -13    1    3    3    0    0 -0.56836825263E+02  0.48674475436E+02  0.80675604062E+02  0.11003718624E+03  0.00000000000E+00 0.  1.
         13    1    3    3    0    0 -0.60036578310E+02 -0.30463095713E+02  0.14727371490E+03  0.16193189320E+03  0.00000000000E+00 0. -1.
          1    1    1    2  501    0 -0.10167908144E+02  0.21018078754E+02 -0.64015103662E+02  0.68140145930E+02  0.00000000000E+00 0. -1.
<scales pt_clust_5="13000.00000" pt_clust_6="13000.00000" pt_clust_7="13000.00000" pt_clust_8="13000.00000" pt_clust_9="23.34836"></scales>
<clustering>
<clus scale="   23.348">  2  9  1 -1</clus>
<clus scale="   79.372">  5  6 -1 -1</clus>
<clus scale="   89.528">  7  8 -1 -1</clus>
<clus scale="  143.099">  2  5  1 -1</clus>
<clus scale="   23.348">  2  5  1 -1</clus>
</clustering>
</event>
<event>
 9    2  0.1488992E-004  0.1016021E+03  0.7546771E-02  0.1282227E+00
          2   -1    0    0  502    0 -0.00000000000E+00  0.00000000000E+00  0.95263257461E+03  0.95263257461E+03  0.00000000000E+00 0. -1.
         21   -1    0    0  501  502  0.00000000000E+00 -0.00000000000E+00 -0.18946210799E+02  0.18946210799E+02  0.00000000000E+00 0.  1.
         24    2    1    2    0    0 -0.23160902466E+02 -0.33237243806E+02  0.40526959161E+03  0.41525126475E+03  0.80926072502E+02 0.  0.
         23    2    1    2    0    0 -0.15903202052E+02  0.62734402609E+02  0.25605112408E+03  0.27959817109E+03  0.91784759234E+02 0.  0.
        -11    1    3    3    0    0 -0.18347526180E+01 -0.46782391914E+02  0.11914763417E+03  0.12801608195E+03  0.00000000000E+00 0.  1.
         12    1    3    3    0    0 -0.21326149848E+02  0.13545148108E+02  0.28612195744E+03  0.28723518280E+03  0.00000000000E+00 0. -1.
        -13    1    4    4    0    0  0.72626148321E+01  0.71459373351E+02  0.10939854023E+03  0.13087103659E+03  0.00000000000E+00 0.  1.
         13    1    4    4    0    0 -0.23165816885E+02 -0.87249707418E+01  0.14665258385E+03  0.14872713450E+03  0.00000000000E+00 0. -1.
          1    1    1    2  501    0  0.39064104519E+02 -0.29497158803E+02  0.27236564812E+03  0.27672934957E+03  0.00000000000E+00 0. -1.
<scales pt_clust_5="13000.00000" pt_clust_6="13000.00000" pt_clust_7="13000.00000" pt_clust_8="13000.00000" pt_clust_9="48.94986"></scales>
<clustering>
<clus scale="   48.950">  2  9  1 -1</clus>
<clus scale="   80.926">  5  6 -1 -1</clus>
<clus scale="   91.785">  7  8 -1 -1</clus>
<clus scale="   91.911">  1  5  2 -1</clus>
<clus scale="   48.950">  2  5  1 -1</clus>
</clustering>
</event>
<event>
 9    2  0.1488992E-004  0.9132078E+02  0.7546771E-02  0.1304066E+00
         21   -1    0    0  501  502  0.00000000000E+00  0.00000000000E+00  0.54268870415E+02  0.54268870415E+02  0.00000000000E+00 0. -1.
          2   -1    0    0  502    0 -0.00000000000E+00 -0.00000000000E+00 -0.37849997598E+03  0.37849997598E+03  0.00000000000E+00 0. -1.
         24    2    1    2    0    0  0.13403092079E+02  0.23168926424E+02 -0.30711714743E+03  0.31864984135E+03  0.80624668165E+02 0.  0.
         23    2    1    2    0    0  0.79609887258E+01 -0.15118016286E+02 -0.17329102689E+02  0.91287286105E+02  0.87983743080E+02 0.  0.
        -11    1    3    3    0    0  0.94616467101E+01  0.53187021517E+02 -0.17720938223E+03  0.18526075452E+03  0.00000000000E+00 0.  1.
         12    1    3    3    0    0  0.39414453690E+01 -0.30018095093E+02 -0.12990776520E+03  0.13338908682E+03  0.00000000000E+00 0. -1.
        -11    1    4    4    0    0 -0.37204727000E+02 -0.18853898161E+02  0.25759222004E+01  0.41788713335E+02  0.00000000000E+00 0.  1.
         11    1    4    4    0    0  0.45165715726E+02  0.37358818750E+01 -0.19905024889E+02  0.49498572770E+02  0.00000000000E+00 0. -1.
          1    1    1    2  501    0 -0.21364080805E+02 -0.80509101375E+01  0.21514455255E+00  0.22831718942E+02  0.00000000000E+00 0. -1.
<scales pt_clust_5="13000.00000" pt_clust_6="13000.00000" pt_clust_7="13000.00000" pt_clust_8="13000.00000" pt_clust_9="22.83071"></scales>
<clustering>
<clus scale="   22.831">  1  9  2 -1</clus>
<clus scale="   80.625">  5  6 -1 -1</clus>
<clus scale="   84.254">  2  5  1 -1</clus>
<clus scale="   87.984">  7  8 -1 -1</clus>
<clus scale="   22.831">  1  5  2 -1</clus>
</clustering>
</event>
<event>
 9    2  0.1488992E-004  0.1312042E+03  0.7546771E-02  0.1238614E+00
         21   -1    0    0  501  502  0.00000000000E+00  0.00000000000E+00  0.25699632005E+03  0.25699632005E+03  0.00000000000E+00 0.  1.
         -1   -1    0    0    0  501 -0.00000000000E+00 -0.00000000000E+00 -0.27549292401E+03  0.27549292401E+03  0.00000000000E+00 0.  1.
         23    2    1    2    0    0  0.39181315043E+02  0.14422470777E+02 -0.16402919841E+03  0.19239335540E+03  0.91468257662E+02 0.  0.
         24    2    1    2    0    0 -0.10239885619E+02  0.86781266179E+02 -0.39994646196E+02  0.12678822415E+03  0.82703316995E+02 0.  0.
        -13    1    4    4    0    0  0.77338174385E+01  0.93920743556E+02 -0.48117178711E+02  0.10581200730E+03  0.00000000000E+00 0.  1.
         14    1    4    4    0    0 -0.17973703058E+02 -0.71394773769E+01  0.81225325153E+01  0.20976216849E+02  0.00000000000E+00 0. -1.
        -11    1    3    3    0    0  0.68681921063E+02  0.17404412644E+02 -0.11817104987E+03  0.13778431293E+03  0.00000000000E+00 0.  1.
         11    1    3    3    0    0 -0.29500606020E+02 -0.29819418671E+01 -0.45858148540E+02  0.54609042478E+02  0.00000000000E+00 0. -1.
         -2    1    1    2    0  502 -0.28941429424E+02 -0.10120373696E+03  0.18552724066E+03  0.21330766450E+03  0.00000000000E+00 0.  1.
<scales pt_clust_5="13000.00000" pt_clust_6="13000.00000" pt_clust_7="13000.00000" pt_clust_8="13000.00000" pt_clust_9="101.85629"></scales>
<clustering>
<clus scale="   82.703">  5  6 -1 -1</clus>
<clus scale="   91.468">  7  8 -1 -1</clus>
<clus scale="  100.547">  2  7  1 -1</clus>
<clus scale="  101.856">  1  9  2 -1</clus>
<clus scale="  101.856">  1  5  2 -1</clus>
</clustering>
</event>
<event>
 9    2  0.1488992E-004  0.1106723E+03  0.7546771E-02  0.1269349E+00
          2   -1    0    0  502    0 -0.00000000000E+00  0.00000000000E+00  0.12081321006E+03  0.12081321006E+03  0.00000000000E+00 0. -1.
         21   -1    0    0  501  502  0.00000000000E+00 -0.00000000000E+00 -0.26864530065E+03  0.26864530065E+03  0.00000000000E+00 0. -1.
         23    2    1    2    0    0  0.28911640263E+02  0.43915483115E+02  0.72288464218E+02  0.13506204909E+03  0.10125059232E+03 0.  0.
         24    2    1    2    0    0 -0.79149255729E+01 -0.14201811806E+02 -0.98714865666E+02  0.12765615372E+03  0.79291433169E+02 0.  0.
        -13    1    4    4    0    0 -0.42594191196E+02 -0.11725031687E+02 -0.68943117275E+02  0.81883422689E+02  0.00000000000E+00 0.  1.
         14    1    4    4    0    0  0.34679265623E+02 -0.24767801185E+01 -0.29771748390E+02  0.45772731032E+02  0.00000000000E+00 0. -1.
        -11    1    3    3    0    0  0.56962518235E+02  0.58992425028E+02  0.55911392179E+02  0.99251793282E+02  0.00000000000E+00 0. -1.
         11    1    3    3    0    0 -0.28050877972E+02 -0.15076941912E+02  0.16377072039E+02  0.35810255808E+02  0.00000000000E+00 0.  1.
          1    1    1    2  501    0 -0.20996714690E+02 -0.29713671310E+02 -0.12140568914E+03  0.12674030790E+03  0.00000000000E+00 0. -1.
<scales pt_clust_5="13000.00000" pt_clust_6="13000.00000" pt_clust_7="13000.00000" pt_clust_8="13000.00000" pt_clust_9="36.38357"></scales>
<clustering>
<clus scale="   36.384">  2  9  1 -1</clus>
<clus scale="   79.291">  5  6 -1 -1</clus>
<clus scale="   91.015">  2  5  1 -1</clus>
<clus scale="  101.251">  7  8 -1 -1</clus>
<clus scale="   36.384">  2  5  1 -1</clus>
</clustering>
</event>
<event>
 9    2  0.1488992E-004  0.1545531E+03  0.7546771E-02  0.1221579E+00
          2   -1    0    0  502    0 -0.00000000000E+00  0.00000000000E+00  0.27232233387E+03  0.27232233387E+03  0.00000000000E+00 0. -1.
         21   -1    0    0  501  502  0.00000000000E+00 -0.00000000000E+00 -0.16295563039E+03  0.16295563039E+03  0.00000000000E+00 0. -1.
         24    2    1    2    0    0  0.18740776351E+02 -0.30795089700E+02  0.90844960158E+02  0.12609204947E+03  0.79667081693E+02 0.  0.
         23    2    1    2    0    0 -0.11560149906E+03 -0.50976775130E+02 -0.52346467424E+02  0.16395871081E+03  0.90443175594E+02 0.  0.
        -11    1    3    3    0    0  0.20370917369E+02  0.17139888257E+02  0.40528249638E+01  0.26929081568E+02  0.00000000000E+00 0.  1.
         12    1    3    3    0    0 -0.16301410181E+01 -0.47934977957E+02  0.86792135194E+02  0.99162967902E+02  0.00000000000E+00 0. -1.
        -13    1    4    4    0    0 -0.10097328463E+03 -0.10890760307E+02 -0.63597815581E+02  0.11982860683E+03  0.00000000000E+00 0. -1.
         13    1    4    4    0    0 -0.14628214431E+02 -0.40086014823E+02  0.11251348157E+02  0.44130103979E+02  0.00000000000E+00 0.  1.
          1    1    1    2  501    0  0.96860722706E+02  0.81771864830E+02  0.70868210748E+02  0.14522720398E+03  0.00000000000E+00 0. -1.
<scales pt_clust_5="13000.00000" pt_clust_6="13000.00000" pt_clust_7="13000.00000" pt_clust_8="13000.00000" pt_clust_9="125.32635"></scales>
<clustering>
<clus scale="   79.667">  5  6 -1 -1</clus>
<clus scale="   87.444">  1  5  2 -1</clus>
<clus scale="   90.443">  7  8 -1 -1</clus>
<clus scale="  125.326">  2  9  1 -1</clus>
<clus scale="  125.326">  2  5  1 -1</clus>
</clustering>
</event>
<event>
 9    2  0.1488992E-004  0.2268814E+03  0.7546771E-02  0.1151758E+00
         21   -1    0    0  501  502  0.00000000000E+00  0.00000000000E+00  0.20548307054E+03  0.20548307054E+03  0.00000000000E+00 0. -1.
          2   -1    0    0  502    0 -0.00000000000E+00 -0.00000000000E+00 -0.61730923935E+03  0.61730923935E+03  0.00000000000E+00 0. -1.
         24    2    1    2    0    0 -0.80791522741E+02 -0.64053966365E+02  0.20340476273E+02  0.13218245325E+03  0.80176587719E+02 0.  0.
         23    2    1    2    0    0 -0.54231534117E+02  0.21682056619E+03 -0.42032114399E+03  0.48638161226E+03  0.99724577918E+02 0.  0.
        -11    1    3    3    0    0 -0.95708351366E+02 -0.46431305318E+02  0.23320244024E+02  0.10890265569E+03  0.00000000000E+00 0.  1.
         12    1    3    3    0    0  0.14916828625E+02 -0.17622661047E+02 -0.29797677509E+01  0.23279797561E+02  0.00000000000E+00 0. -1.
        -11    1    4    4    0    0 -0.57687699626E+01  0.29478474275E+02 -0.15561070136E+03  0.15848327840E+03  0.00000000000E+00 0.  1.
         11    1    4    4    0    0 -0.48462764154E+02  0.18734209192E+03 -0.26471044263E+03  0.32789833386E+03  0.00000000000E+00 0. -1.
          1    1    1    2  501    0  0.13502305686E+03 -0.15276659983E+03 -0.11845501093E+02  0.20422824438E+03  0.00000000000E+00 0. -1.
<scales pt_clust_5="13000.00000" pt_clust_6="13000.00000" pt_clust_7="13000.00000" pt_clust_8="13000.00000" pt_clust_9="203.78950"></scales>
<clustering>
<clus scale="   80.177">  5  6 -1 -1</clus>
<clus scale="   99.725">  7  8 -1 -1</clus>
<clus scale="  130.608">  2  5  1 -1</clus>
<clus scale="  203.790">  1  9  2 -1</clus>
<clus scale="  203.790">  1  5  2 -1</clus>
</clustering>
</event>
<event>
 9    2  0.1488992E-004  0.1345690E+03  0.7546771E-02  0.1231372E+00
         -3   -1    0    0    0  501 -0.00000000000E+00  0.00000000000E+00  0.18229521045E+03  0.18229521045E+03  0.00000000000E+00 0.  1.
         21   -1    0    0  501  502  0.00000000000E+00 -0.00000000000E+00 -0.23521564447E+03  0.23521564447E+03  0.00000000000E+00 0.  1.
         23    2    1    2    0    0  0.52077878907E+02  0.23593344127E+02 -0.61708096971E+02  0.12446433032E+03  0.91731831620E+02 0.  0.
         24    2    1    2    0    0 -0.20048465932E+02  0.87172570023E+02  0.91797457929E+02  0.15097049884E+03  0.79776690117E+02 0.  0.
        -11    1    4    4    0    0  0.13419523716E+02  0.75331306863E+02  0.35352058897E+02  0.84289130253E+02  0.00000000000E+00 0.  1.
         12    1    4    4    0    0 -0.33467989649E+02  0.11841263160E+02  0.56445399031E+02  0.66681368584E+02  0.00000000000E+00 0. -1.
        -11    1    3    3    0    0 -0.10212433371E+02  0.22261329274E+02 -0.56932320197E+02  0.61977009120E+02  0.00000000000E+00 0.  1.
         11    1    3    3    0    0  0.62290312278E+02  0.13320148534E+01 -0.47757767735E+01  0.62487321203E+02  0.00000000000E+00 0. -1.
         -4    1    1    2    0  502 -0.32029412975E+02 -0.11076591415E+03 -0.83009794984E+02  0.14207602576E+03  0.00000000000E+00 0.  1.
<scales pt_clust_5="13000.00000" pt_clust_6="13000.00000" pt_clust_7="13000.00000" pt_clust_8="13000.00000" pt_clust_9="108.37204"></scales>
<clustering>
<clus scale="   79.777">  5  6 -1 -1</clus>
<clus scale="   91.732">  7  8 -1 -1</clus>
<clus scale="  108.090">  1  7  2 -1</clus>
<clus scale="  108.372">  2  9  1 -1</clus>
<clus scale="  108.372">  2  5  1 -1</clus>
</clustering>
</event>
<event>
 9    2  0.1488992E-004  0.9822797E+02  0.7546771E-02  0.1287404E+00
         21   -1    0    0  501  502  0.00000000000E+00  0.00000000000E+00  0.37074834683E+02  0.37074834683E+02  0.00000000000E+00 0. -1.
          2   -1    0    0  502    0 -0.00000000000E+00 -0.00000000000E+00 -0.71572548770E+03  0.71572548770E+03  0.00000000000E+00 0. -1.
         24    2    1    2    0    0 -0.35910930058E+02 -0.23247692345E+02 -0.54287052844E+03  0.55047046693E+03  0.80493939005E+02 0.  0.
         23    2    1    2    0    0  0.36650753280E+02  0.43432579529E+02 -0.14627098859E+03  0.17956946800E+03  0.87294473215E+02 0.  0.
        -13    1    3    3    0    0 -0.29367508620E+02 -0.36612415271E+02 -0.14680213257E+03  0.15412263182E+03  0.00000000000E+00 0.  1.
         14    1    3    3    0    0 -0.65434214387E+01  0.13364722925E+02 -0.39606839588E+03  0.39634783511E+03  0.00000000000E+00 0. -1.
        -11    1    4    4    0    0 -0.24629000161E+02 -0.60645302609E+01 -0.33932823441E+02  0.42365111623E+02  0.00000000000E+00 0. -1.
         11    1    4    4    0    0  0.61279753441E+02  0.49497109790E+02 -0.11233816515E+03  0.13720435638E+03  0.00000000000E+00 0.  1.
          1    1    1    2  501    0 -0.73982322111E+00 -0.20184887184E+02  0.10490864018E+02  0.22760387449E+02  0.00000000000E+00 0. -1.
<scales pt_clust_5="13000.00000" pt_clust_6="13000.00000" pt_clust_7="13000.00000" pt_clust_8="13000.00000" pt_clust_9="20.19844"></scales>
<clustering>
<clus scale="   20.198">  1  9  2 -1</clus>
<clus scale="   80.494">  5  6 -1 -1</clus>
<clus scale="   87.294">  7  8 -1 -1</clus>
<clus scale="   92.237">  2  5  1 -1</clus>
<clus scale="   20.198">  1  5  2 -1</clus>
</clustering>
</event>
<event>
 9    2  0.1488992E-004  0.1267260E+03  0.7546771E-02  0.1235248E+00
          2   -1    0    0  502    0 -0.00000000000E+00  0.00000000000E+00  0.24105847810E+03  0.24105847810E+03  0.00000000000E+00 0. -1.
         21   -1    0    0  501  502  0.00000000000E+00 -0.00000000000E+00 -0.24283411540E+03  0.24283411540E+03  0.00000000000E+00 0. -1.
         23    2    1    2    0    0 -0.54477357553E+02 -0.73344576990E+02  0.19383535865E+03  0.23328975676E+03  0.92221227957E+02 0.  0.
         24    2    1    2    0    0  0.49007524727E+02  0.22238280507E+02 -0.16131730648E+03  0.18881424759E+03  0.82044305862E+02 0.  0.
        -11    1    4    4    0    0  0.10180835240E+02  0.19177702252E+02  0.11509094183E+01  0.21743004906E+02  0.00000000000E+00 0.  1.
         12    1    4    4    0    0  0.38826689487E+02  0.30605782546E+01 -0.16246821590E+03  0.16707124269E+03  0.00000000000E+00 0. -1.
        -11    1    3    3    0    0 -0.28574233686E+02  0.17684753693E+02  0.35945715791E+02  0.49207030267E+02  0.00000000000E+00 0.  1.
         11    1    3    3    0    0 -0.25903123867E+02 -0.91029330683E+02  0.15788964286E+03  0.18408272649E+03  0.00000000000E+00 0. -1.
          1    1    1    2  501    0  0.54698328263E+01  0.51106296483E+02 -0.34293689468E+02  0.61788589146E+02  0.00000000000E+00 0. -1.
<scales pt_clust_5="13000.00000" pt_clust_6="13000.00000" pt_clust_7="13000.00000" pt_clust_8="13000.00000" pt_clust_9="51.39818"></scales>
<clustering>
<clus scale="   51.398">  2  9  1 -1</clus>
<clus scale="   82.044">  5  6 -1 -1</clus>
<clus scale="   92.221">  7  8 -1 -1</clus>
<clus scale="  119.524">  2  5  1 -1</clus>
<clus scale="   51.398">  2  5  1 -1</clus>
</clustering>
</event>
<event>
 9    2  0.1488992E-004  0.1125681E+03  0.7546771E-02  0.1258627E+00
          2   -1    0    0  502    0 -0.00000000000E+00  0.00000000000E+00  0.10117341095E+04  0.10117341095E+04  0.00000000000E+00 0. -1.
         21   -1    0    0  501  502  0.00000000000E+00 -0.00000000000E+00 -0.20676654960E+02  0.20676654960E+02  0.00000000000E+00 0. -1.
         24    2    1    2    0    0 -0.53463904443E+02 -0.60013153743E+02  0.44468498750E+03  0.45946725775E+03  0.83099068247E+02 0.  0.
         23    2    1    2    0    0  0.51644457846E+02  0.11633141228E+02  0.22888125200E+03  0.25178216466E+03  0.90582288121E+02 0.  0.
        -13    1    3    3    0    0 -0.57761799686E+02 -0.64483546320E+01  0.17249367917E+03  0.18202218583E+03  0.00000000000E+00 0.  1.
         14    1    3    3    0    0  0.42978952430E+01 -0.53564799111E+02  0.27219130833E+03  0.27744507193E+03  0.00000000000E+00 0. -1.
        -13    1    4    4    0    0  0.57389858991E+02  0.34097105737E+02  0.21414532448E+03  0.22430877943E+03  0.00000000000E+00 0.  1.
         13    1    4    4    0    0 -0.57454011450E+01 -0.22463964509E+02  0.14735927523E+02  0.27473385226E+02  0.00000000000E+00 0. -1.
          1    1    1    2  501    0  0.18194465976E+01  0.48380012515E+02  0.31749121502E+03  0.32116134202E+03  0.00000000000E+00 0. -1.
<scales pt_clust_5="13000.00000" pt_clust_6="13000.00000" pt_clust_7="13000.00000" pt_clust_8="13000.00000" pt_clust_9="48.41424"></scales>
<clustering>
<clus scale="   48.414">  2  9  1 -1</clus>
<clus scale="   83.099">  5  6 -1 -1</clus>
<clus scale="   90.582">  7  8 -1 -1</clus>
<clus scale="  106.639">  1  5  2 -1</clus>
<clus scale="   48.414">  2  5  1 -1</clus>
</clustering>
</event>
<event>
 9    2  0.1488992E-004  0.2526597E+03  0.7546771E-02  0.1128011E+00
         21   -1    0    0  501  502  0.00000000000E+00  0.00000000000E+00  0.70105631260E+02  0.70105631260E+02  0.00000000000E+00 0. -1.
          2   -1    0    0  502    0 -0.00000000000E+00 -0.00000000000E+00 -0.22212741171E+04  0.22212741171E+04  0.00000000000E+00 0. -1.
         23    2    1    2    0    0 -0.89395248078E+02  0.10517772287E+03 -0.18917788794E+03  0.25282732189E+03  0.95286502941E+02 0.  0.
         24    2    1    2    0    0 -0.20591026795E+03  0.18459490596E+02 -0.60729349359E+03  0.64654102106E+03  0.80437014605E+02 0.  0.
        -13    1    4    4    0    0 -0.52832794835E+02  0.12277845225E+02 -0.74467525164E+02  0.92127422614E+02  0.00000000000E+00 0.  1.
         14    1    4    4    0    0 -0.15307747312E+03  0.61816453713E+01 -0.53282596843E+03  0.55441359845E+03  0.00000000000E+00 0. -1.
        -11    1    3    3    0    0 -0.14157532184E+02  0.83195967965E+02 -0.12835748380E+03  0.15361526113E+03  0.00000000000E+00 0. -1.
         11    1    3    3    0    0 -0.75237715894E+02  0.21981754905E+02 -0.60820404135E+02  0.99212060763E+02  0.00000000000E+00 0.  1.
          1    1    1    2  501    0  0.29530551603E+03 -0.12363721347E+03 -0.13546971043E+04  0.13920114054E+04  0.00000000000E+00 0. -1.
<scales pt_clust_5="13000.00000" pt_clust_6="13000.00000" pt_clust_7="13000.00000" pt_clust_8="13000.00000" pt_clust_9="239.51381"></scales>
<clustering>
<clus scale="   80.437">  5  6 -1 -1</clus>
<clus scale="   95.287">  7  8 -1 -1</clus>
<clus scale="  167.730">  2  7  1 -1</clus>
<clus scale="  239.514">  1  9  2 -1</clus>
<clus scale="  239.514">  1  5  2 -1</clus>
</clustering>
</event>
<event>
 9    2  0.1488992E-004  0.1390414E+03  0.7546771E-02  0.1217597E+00
         -1   -1    0    0    0  501 -0.00000000000E+00  0.00000000000E+00  0.19209515210E+03  0.19209515210E+03  0.00000000000E+00 0.  1.
         21   -1    0    0  501  502  0.00000000000E+00 -0.00000000000E+00 -0.28002791837E+03  0.28002791837E+03  0.00000000000E+00 0. -1.
         23    2    1    2    0    0  0.43069930192E+02  0.13008012402E+03 -0.17732449605E+02  0.16501021094E+03  0.90211265344E+02 0.  0.
         24    2    1    2    0    0 -0.26882466762E+02 -0.41273923480E+02 -0.15726574040E+03  0.18169769603E+03  0.76520166370E+02 0.  0.
        -13    1    4    4    0    0  0.21890248367E+02 -0.29381231555E+02 -0.40593252393E+02  0.54683195601E+02  0.00000000000E+00 0.  1.
         14    1    4    4    0    0 -0.48772715129E+02 -0.11892691925E+02 -0.11667248800E+03  0.12701450043E+03  0.00000000000E+00 0. -1.
        -11    1    3    3    0    0 -0.26403325607E+02  0.27278737162E+02  0.67044095841E+01  0.38551448898E+02  0.00000000000E+00 0.  1.
         11    1    3    3    0    0  0.69473255799E+02  0.10280138686E+03 -0.24436859189E+02  0.12645876204E+03  0.00000000000E+00 0. -1.
         -2    1    1    2    0  502 -0.16187463430E+02 -0.88806200537E+02  0.87065423730E+02  0.12541516350E+03  0.00000000000E+00 0.  1.
<scales pt_clust_5="13000.00000" pt_clust_6="13000.00000" pt_clust_7="13000.00000" pt_clust_8="13000.00000" pt_clust_9="90.26950"></scales>
<clustering>
<clus scale="   76.520">  5  6 -1 -1</clus>
<clus scale="   90.211">  7  8 -1 -1</clus>
<clus scale="   90.270">  2  9  1 -1</clus>
<clus scale="  130.575">  2  5  1 -1</clus>
<clus scale="   90.270">  2  5  1 -1</clus>
</clustering>
</event>
<event>
 9    2  0.1488992E-004  0.9687614E+02  0.7546771E-02  0.1305473E+00
         21   -1    0    0  501  502  0.00000000000E+00  0.00000000000E+00  0.10330921673E+03  0.10330921673E+03  0.00000000000E+00 0. -1.
          2   -1    0    0  502    0 -0.00000000000E+00 -0.00000000000E+00 -0.11787350541E+03  0.11787350541E+03  0.00000000000E+00 0. -1.
         23    2    1    2    0    0  0.26982256378E+02  0.19781257390E+02  0.14750646133E+01  0.97058950295E+02  0.91098428711E+02 0.  0.
         24    2    1    2    0    0  0.20681232118E+01 -0.40934980988E+02  0.17421379628E+02  0.75021580195E+02  0.60372040090E+02 0.  0.
        -13    1    4    4    0    0  0.29168970966E+02 -0.24165860327E+02  0.20382861724E+02  0.43014866321E+02  0.00000000000E+00 0.  1.
         14    1    4    4    0    0 -0.27100847755E+02 -0.16769120662E+02 -0.29614820958E+01  0.32006713874E+02  0.00000000000E+00 0. -1.
        -13    1    3    3    0    0  0.75708021340E+01 -0.36085302788E+02 -0.63064444374E+01  0.37406381323E+02  0.00000000000E+00 0. -1.
         13    1    3    3    0    0  0.19411454244E+02  0.55866560177E+02  0.77815090507E+01  0.59652568972E+02  0.00000000000E+00 0.  1.
          1    1    1    2  501    0 -0.29050379590E+02  0.21153723599E+02 -0.33460732924E+02  0.49102191644E+02  0.00000000000E+00 0. -1.
<scales pt_clust_5="13000.00000" pt_clust_6="13000.00000" pt_clust_7="13000.00000" pt_clust_8="13000.00000" pt_clust_9="35.93614"></scales>
<clustering>
<clus scale="   35.936">  1  9  2 -1</clus>
<clus scale="   60.372">  5  6 -1 -1</clus>
<clus scale="   68.781">  1  5  2 -1</clus>
<clus scale="   91.098">  7  8 -1 -1</clus>
<clus scale="   35.936">  1  5  2 -1</clus>
</clustering>
</event>
<event>
 9    2  0.1488992E-004  0.1614238E+03  0.7546771E-02  0.1215417E+00
          2   -1    0    0  502    0 -0.00000000000E+00  0.00000000000E+00  0.46846216820E+03  0.46846216820E+03  0.00000000000E+00 0. -1.
         21   -1    0    0  501  502  0.00000000000E+00 -0.00000000000E+00 -0.21238113249E+03  0.21238113249E+03  0.00000000000E+00 0. -1.
         24    2    1    2    0    0 -0.61271631298E+00 -0.38439633405E+02  0.47339021837E+02  0.99375829998E+02  0.78463951990E+02 0.  0.
         23    2    1    2    0    0 -0.13312533257E+03  0.31221582739E+02  0.35020834358E+03  0.38665810640E+03  0.90340832036E+02 0.  0.
        -13    1    3    3    0    0  0.10407956722E+02  0.18460580457E+02 -0.44455677169E+01  0.21653675583E+02  0.00000000000E+00 0.  1.
         14    1    3    3    0    0 -0.11020673035E+02 -0.56900213862E+02  0.51784589553E+02  0.77722154415E+02  0.00000000000E+00 0. -1.
        -13    1    4    4    0    0 -0.96269127053E+02 -0.14443472622E+02  0.27190564273E+03  0.28880622790E+03  0.00000000000E+00 0. -1.
         13    1    4    4    0    0 -0.36856205521E+02  0.45665055360E+02  0.78302700849E+02  0.97851878504E+02  0.00000000000E+00 0.  1.
          1    1    1    2  501    0  0.13373804889E+03  0.72180506666E+01 -0.14146632971E+03  0.19480936429E+03  0.00000000000E+00 0. -1.
<scales pt_clust_5="13000.00000" pt_clust_6="13000.00000" pt_clust_7="13000.00000" pt_clust_8="13000.00000" pt_clust_9="133.77660"></scales>
<clustering>
<clus scale="   78.464">  5  6 -1 -1</clus>
<clus scale="   87.376">  1  5  2 -1</clus>
<clus scale="   90.341">  7  8 -1 -1</clus>
<clus scale="  133.777">  2  9  1 -1</clus>
<clus scale="  133.777">  2  5  1 -1</clus>
</clustering>
</event>
<event>
 9    2  0.1488992E-004  0.2106414E+03  0.7546771E-02  0.1175757E+00
          2   -1    0    0  502    0 -0.00000000000E+00  0.00000000000E+00  0.29204638645E+03  0.29204638645E+03  0.00000000000E+00 0. -1.
         21   -1    0    0  501  502  0.00000000000E+00 -0.00000000000E+00 -0.45013186512E+03  0.45013186512E+03  0.00000000000E+00 0. -1.
         24    2    1    2    0    0  0.43442799200E+02 -0.17571415889E+02  0.89334846682E+02  0.12945471328E+03  0.81128148635E+02 0.  0.
         23    2    1    2    0    0 -0.68487158500E+02 -0.17078353024E+03  0.90093977650E+02  0.22539846758E+03  0.93968288795E+02 0.  0.
        -13    1    3    3    0    0  0.40287604911E+02  0.89624111473E+01  0.57112652501E+01  0.41665747009E+02  0.00000000000E+00 0.  1.
         14    1    3    3    0    0  0.31551942894E+01 -0.26533827036E+02  0.83623581432E+02  0.87788966275E+02  0.00000000000E+00 0. -1.
        -11    1    4    4    0    0 -0.40705522660E+02 -0.39698631915E+02 -0.10531547537E+02  0.57825897697E+02  0.00000000000E+00 0.  1.
         11    1    4    4    0    0 -0.27781635840E+02 -0.13108489832E+03  0.10062552519E+03  0.16757256989E+03  0.00000000000E+00 0. -1.
          1    1    1    2  501    0  0.25044359300E+02  0.18835494613E+03 -0.33751430301E+03  0.38732507071E+03  0.00000000000E+00 0. -1.
<scales pt_clust_5="13000.00000" pt_clust_6="13000.00000" pt_clust_7="13000.00000" pt_clust_8="13000.00000" pt_clust_9="188.51994"></scales>
<clustering>
<clus scale="   81.128">  5  6 -1 -1</clus>
<clus scale="   93.690">  1  5  2 -1</clus>
<clus scale="   93.968">  7  8 -1 -1</clus>
<clus scale="  188.520">  2  9  1 -1</clus>
<clus scale="  188.520">  2  5  1 -1</clus>
</clustering>
</event>
<event>
 9    2  0.1488992E-004  0.2452011E+03  0.7546771E-02  0.1148224E+00
         21   -1    0    0  501  502  0.00000000000E+00  0.00000000000E+00  0.13159701671E+03  0.13159701671E+03  0.00000000000E+00 0. -1.
          2   -1    0    0  502    0 -0.00000000000E+00 -0.00000000000E+00 -0.71962092478E+03  0.71962092478E+03  0.00000000000E+00 0. -1.
         24    2    1    2    0    0 -0.67500402097E+02  0.38799807878E+02 -0.20130117656E+03  0.23060634244E+03  0.81212019527E+02 0.  0.
         23    2    1    2    0    0 -0.48138606082E+02  0.19450531392E+03 -0.15394014573E+03  0.27133893720E+03  0.98881787183E+02 0.  0.
        -11    1    3    3    0    0 -0.93219211539E+01 -0.24485806016E+02 -0.54930140167E+02  0.60858632987E+02  0.00000000000E+00 0.  1.
         12    1    3    3    0    0 -0.58178480943E+02  0.63285613894E+02 -0.14637103639E+03  0.16974770945E+03  0.00000000000E+00 0. -1.
        -13    1    4    4    0    0 -0.69467442992E+02  0.12887837869E+03 -0.13648702393E+03  0.20016011049E+03  0.00000000000E+00 0. -1.
         13    1    4    4    0    0  0.21328836909E+02  0.65626935232E+02 -0.17453121797E+02  0.71178826713E+02  0.00000000000E+00 0.  1.
          1    1    1    2  501    0  0.11563900818E+03 -0.23330512180E+03 -0.23278258578E+03  0.34927266184E+03  0.00000000000E+00 0. -1.
<scales pt_clust_5="13000.00000" pt_clust_6="13000.00000" pt_clust_7="13000.00000" pt_clust_8="13000.00000" pt_clust_9="224.37917"></scales>
<clustering>
<clus scale="   81.212">  5  6 -1 -1</clus>
<clus scale="   98.882">  7  8 -1 -1</clus>
<clus scale="  112.504">  2  5  1 -1</clus>
<clus scale="  224.379">  1  9  2 -1</clus>
<clus scale="  224.379">  1  5  2 -1</clus>
</clustering>
</event>
<event>
 9    2  0.1488992E-004  0.1707474E+03  0.7546771E-02  0.1177995E+00
          2   -1    0    0  502    0 -0.00000000000E+00  0.00000000000E+00  0.62181312580E+03  0.62181312580E+03  0.00000000000E+00 0. -1.
         21   -1    0    0  501  502  0.00000000000E+00 -0.00000000000E+00 -0.22914665000E+03  0.22914665000E+03  0.00000000000E+00 0. -1.
         24    2    1    2    0    0 -0.68929103838E+01  0.15444097532E+03  0.43128989296E+03  0.46849630599E+03  0.97868738062E+02 0.  0.
         23    2    1    2    0    0 -0.42102710623E+01 -0.11495293196E+03  0.13769255807E+03  0.20143886008E+03  0.91577676617E+02 0.  0.
        -13    1    3    3    0    0  0.23226226929E+02  0.11838447190E+02  0.22276697823E+02  0.34290781781E+02  0.00000000000E+00 0.  1.
         14    1    3    3    0    0 -0.30119137313E+02  0.14260252813E+03  0.40901319514E+03  0.43420552421E+03  0.00000000000E+00 0. -1.
        -13    1    4    4    0    0 -0.34541956366E+02 -0.76003227657E+02  0.41302936694E+02  0.93142739618E+02  0.00000000000E+00 0. -1.
         13    1    4    4    0    0  0.30331685304E+02 -0.38949704302E+02  0.96389621374E+02  0.10829612046E+03  0.00000000000E+00 0.  1.
          1    1    1    2  501    0  0.11103181446E+02 -0.39488043360E+02 -0.17631597523E+03  0.18102460973E+03  0.00000000000E+00 0. -1.
<scales pt_clust_5="13000.00000" pt_clust_6="13000.00000" pt_clust_7="13000.00000" pt_clust_8="13000.00000" pt_clust_9="41.01934"></scales>
<clustering>
<clus scale="   41.019">  2  9  1 -1</clus>
<clus scale="   91.578">  7  8 -1 -1</clus>
<clus scale="   97.869">  5  6 -1 -1</clus>
<clus scale="  167.221">  2  7  1 -1</clus>
<clus scale="   41.019">  2  5  1 -1</clus>
</clustering>
</event>
<event>
 9    2  0.1488992E-004  0.9293896E+02  0.7546771E-02  0.1306094E+00
          2   -1    0    0  502    0 -0.00000000000E+00  0.00000000000E+00  0.30508530497E+03  0.30508530497E+03  0.00000000000E+00 0. -1.
         21   -1    0    0  501  502  0.00000000000E+00 -0.00000000000E+00 -0.70743943099E+02  0.70743943099E+02  0.00000000000E+00 0. -1.
         24    2    1    2    0    0 -0.13636446482E+02  0.95623128085E+01  0.13631665587E+03  0.15505909661E+03  0.71997932437E+02 0.  0.
         23    2    1    2    0    0  0.52544509986E+02  0.57552291088E+01  0.13146251865E+03  0.16722996271E+03  0.88822398226E+02 0.  0.
        -11    1    3    3    0    0  0.78854783459E+01 -0.28735318284E+02  0.60326089210E+02  0.67283997540E+02  0.00000000000E+00 0.  1.
         12    1    3    3    0    0 -0.21521924828E+02  0.38297631092E+02  0.75990566665E+02  0.87775099075E+02  0.00000000000E+00 0. -1.
        -11    1    4    4    0    0 -0.24013360335E+02 -0.79552673535E+01  0.37826405186E+02  0.45505655500E+02  0.00000000000E+00 0.  1.
         11    1    4    4    0    0  0.76557870320E+02  0.13710496462E+02  0.93636113466E+02  0.12172430721E+03  0.00000000000E+00 0. -1.
          1    1    1    2  501    0 -0.38908063504E+02 -0.15317541917E+02 -0.33437812652E+02  0.53540188746E+02  0.00000000000E+00 0. -1.
<scales pt_clust_5="13000.00000" pt_clust_6="13000.00000" pt_clust_7="13000.00000" pt_clust_8="13000.00000" pt_clust_9="41.81464"></scales>
<clustering>
<clus scale="   41.815">  2  9  1 -1</clus>
<clus scale="   71.998">  5  6 -1 -1</clus>
<clus scale="   77.019">  1  5  2 -1</clus>
<clus scale="   88.822">  7  8 -1 -1</clus>
<clus scale="   41.815">  2  5  1 -1</clus>
</clustering>
</event>
<event>
 9    2  0.1488992E-004  0.2171798E+03  0.7546771E-02  0.1155471E+00
         21   -1    0    0  501  502  0.00000000000E+00  0.00000000000E+00  0.33077416666E+03  0.33077416666E+03  0.00000000000E+00 0. -1.
          2   -1    0    0  502    0 -0.00000000000E+00 -0.00000000000E+00 -0.30612792715E+03  0.30612792715E+03  0.00000000000E+00 0. -1.
         23    2    1    2    0    0 -0.63508234754E+01 -0.97723796605E+02  0.85063946227E+02  0.16078627171E+03  0.95005667419E+02 0.  0.
         24    2    1    2    0    0 -0.57685418927E+02 -0.12144652289E+03 -0.16303367139E+03  0.22578343208E+03  0.79506696039E+02 0.  0.
        -13    1    4    4    0    0 -0.31786510108E+01 -0.73746654986E+02 -0.42541074064E+02  0.85196337518E+02  0.00000000000E+00 0.  1.
         14    1    4    4    0    0 -0.54506767916E+02 -0.47699867905E+02 -0.12049259732E+03  0.14058709456E+03  0.00000000000E+00 0. -1.
        -13    1    3    3    0    0 -0.33170085670E+01 -0.70680488782E+02 -0.74853590799E+00  0.70762238138E+02  0.00000000000E+00 0.  1.
         13    1    3    3    0    0 -0.30338149084E+01 -0.27043307824E+02  0.85812482135E+02  0.90024033575E+02  0.00000000000E+00 0. -1.
          1    1    1    2  501    0  0.64036242402E+02  0.21917031950E+03  0.10261596467E+03  0.25033239002E+03  0.00000000000E+00 0. -1.
<scales pt_clust_5="13000.00000" pt_clust_6="13000.00000" pt_clust_7="13000.00000" pt_clust_8="13000.00000" pt_clust_9="202.10328"></scales>
<clustering>
<clus scale="   79.507">  5  6 -1 -1</clus>
<clus scale="   95.006">  7  8 -1 -1</clus>
<clus scale="  136.442">  2  7  1 -1</clus>
<clus scale="  202.103">  1  9  2 -1</clus>
<clus scale="  202.103">  1  5  2 -1</clus>
</clustering>
</event>
<event>
 9    2  0.1488992E-004  0.9217956E+02  0.7546771E-02  0.1304973E+00
         21   -1    0    0  501  502  0.00000000000E+00  0.00000000000E+00  0.11388057825E+02  0.11388057825E+02  0.00000000000E+00 0.  1.
         -3   -1    0    0    0  501 -0.00000000000E+00 -0.00000000000E+00 -0.12580027121E+04  0.12580027121E+04  0.00000000000E+00 0.  1.
         24    2    1    2    0    0  0.47747457225E+01 -0.16750002356E+02 -0.62442001500E+03  0.62982513168E+03  0.80473477605E+02 0.  0.
         23    2    1    2    0    0  0.19434633875E+02 -0.27037212961E+02 -0.42195110131E+03  0.43316581076E+03  0.92093277913E+02 0.  0.
        -13    1    3    3    0    0  0.16218894946E+02  0.23192891315E+02 -0.10504262739E+03  0.10878840163E+03  0.00000000000E+00 0.  1.
         14    1    3    3    0    0 -0.11444149224E+02 -0.39942893671E+02 -0.51937738761E+03  0.52103673005E+03  0.00000000000E+00 0. -1.
        -11    1    4    4    0    0  0.22003089522E+02 -0.59907694682E+02 -0.30789538359E+03  0.31444019315E+03  0.00000000000E+00 0.  1.
         11    1    4    4    0    0 -0.25684556472E+01  0.32870481721E+02 -0.11405571772E+03  0.11872561761E+03  0.00000000000E+00 0. -1.
         -4    1    1    2    0  502 -0.24209379598E+02  0.43787215317E+02 -0.20024353800E+03  0.20639982751E+03  0.00000000000E+00 0.  1.
<scales pt_clust_5="13000.00000" pt_clust_6="13000.00000" pt_clust_7="13000.00000" pt_clust_8="13000.00000" pt_clust_9="50.03413"></scales>
<clustering>
<clus scale="   50.034">  1  9  2 -1</clus>
<clus scale="   80.473">  5  6 -1 -1</clus>
<clus scale="   80.572">  2  5  1 -1</clus>
<clus scale="   92.093">  7  8 -1 -1</clus>
<clus scale="   50.034">  1  5  2 -1</clus>
</clustering>
</event>
<event>
 9    2  0.1488992E-004  0.2599342E+03  0.7546771E-02  0.1107495E+00
          2   -1    0    0  502    0 -0.00000000000E+00  0.00000000000E+00  0.13697051414E+04  0.13697051414E+04  0.00000000000E+00 0. -1.
         21   -1    0    0  501  502  0.00000000000E+00 -0.00000000000E+00 -0.11170829452E+03  0.11170829452E+03  0.00000000000E+00 0.  1.
         24    2    1    2    0    0  0.66532495331E+02  0.24439103288E+03  0.11598986827E+04  0.11900469292E+04  0.81811916227E+02 0.  0.
         23    2    1    2    0    0 -0.38216963491E+02 -0.19659697448E+03  0.77978255526E+02  0.23228307346E+03  0.88113059237E+02 0.  0.
        -13    1    3    3    0    0  0.17592549530E+01  0.99629174986E+02  0.31472837983E+03  0.33012576476E+03  0.00000000000E+00 0.  1.
         14    1    3    3    0    0  0.64773240378E+02  0.14476185789E+03  0.84517030286E+03  0.85992116442E+03  0.00000000000E+00 0. -1.
        -13    1    4    4    0    0  0.19321960835E+02 -0.68019053067E+02 -0.11407470241E+01  0.70719382453E+02  0.00000000000E+00 0. -1.
         13    1    4    4    0    0 -0.57538924327E+02 -0.12857792141E+03  0.79119002550E+02  0.16156369100E+03  0.00000000000E+00 0.  1.
          1    1    1    2  501    0 -0.28315531840E+02 -0.47794058403E+02  0.20119908623E+02  0.59083433253E+02  0.00000000000E+00 0. -1.
<scales pt_clust_5="13000.00000" pt_clust_6="13000.00000" pt_clust_7="13000.00000" pt_clust_8="13000.00000" pt_clust_9="55.55215"></scales>
<clustering>
<clus scale="   55.552">  2  9  1 -1</clus>
<clus scale="   81.812">  5  6 -1 -1</clus>
<clus scale="   88.113">  7  8 -1 -1</clus>
<clus scale="  257.866">  1  5  2 -1</clus>
<clus scale="   55.552">  2  5  1 -1</clus>
</clustering>
</event>
<event>
 9    2  0.1488992E-004  0.3323966E+03  0.7546771E-02  0.1070600E+00
          2   -1    0    0  502    0 -0.00000000000E+00  0.00000000000E+00  0.26449363137E+04  0.26449363137E+04  0.00000000000E+00 0. -1.
         21   -1    0    0  501  502  0.00000000000E+00 -0.00000000000E+00 -0.76673327562E+02  0.76673327562E+02  0.00000000000E+00 0. -1.
         23    2    1    2    0    0  0.17731887061E+03 -0.35871240621E+03  0.18312016999E+04  0.18765272266E+04  0.89096544262E+02 0.  0.
         24    2    1    2    0    0 -0.10814659185E+03  0.19401057276E+03  0.45790446549E+03  0.51366118924E+03  0.69537976324E+02 0.  0.
        -11    1    4    4    0    0 -0.50187480826E+02  0.29525637350E+02  0.10755422427E+03  0.12230477362E+03  0.00000000000E+00 0.  1.
         12    1    4    4    0    0 -0.57959111028E+02  0.16448493541E+03  0.35035024122E+03  0.39135641562E+03  0.00000000000E+00 0. -1.
        -11    1    3    3    0    0  0.11311272098E+02 -0.18863823177E+02  0.38315239184E+02  0.44179704107E+02  0.00000000000E+00 0.  1.
         11    1    3    3    0    0  0.16600759851E+03 -0.33984858303E+03  0.17928864607E+04  0.18323475225E+04  0.00000000000E+00 0. -1.
          1    1    1    2  501    0 -0.69172278757E+02  0.16470183345E+03  0.27915682078E+03  0.33142122545E+03  0.00000000000E+00 0. -1.
<scales pt_clust_5="13000.00000" pt_clust_6="13000.00000" pt_clust_7="13000.00000" pt_clust_8="13000.00000" pt_clust_9="178.63790"></scales>
<clustering>
<clus scale="   69.538">  5  6 -1 -1</clus>
<clus scale="   89.097">  7  8 -1 -1</clus>
<clus scale="  178.638">  2  9  1 -1</clus>
<clus scale="  327.696">  2  5  1 -1</clus>
<clus scale="  178.638">  2  5  1 -1</clus>
</clustering>
</event>
<event>
 9    2  0.1488992E-004  0.3346459E+03  0.7546771E-02  0.1104717E+00
          4   -1    0    0  502    0 -0.00000000000E+00  0.00000000000E+00  0.17184530226E+03  0.17184530226E+03  0.00000000000E+00 0. -1.
         21   -1    0    0  501  502  0.00000000000E+00 -0.00000000000E+00 -0.94767904214E+03  0.94767904214E+03  0.00000000000E+00 0. -1.
         23    2    1    2    0    0 -0.83743941766E+02  0.37440456991E+02 -0.65236715131E+02  0.14524643618E+03  0.91792497629E+02 0.  0.
         24    2    1    2    0    0 -0.19141588428E+03 -0.24338666334E+03 -0.29658505652E+03  0.43619549854E+03  0.80166754607E+02 0.  0.
        -11    1    4    4    0    0 -0.14860669169E+03 -0.16331096594E+03 -0.25196609093E+03  0.33502437432E+03  0.00000000000E+00 0.  1.
         12    1    4    4    0    0 -0.42809192594E+02 -0.80075697402E+02 -0.44618965597E+02  0.10117112422E+03  0.00000000000E+00 0. -1.
        -13    1    3    3    0    0 -0.79070283850E+02 -0.90954424075E+01 -0.56652576861E+02  0.97695196022E+02  0.00000000000E+00 0. -1.
         13    1    3    3    0    0 -0.46736579152E+01  0.46535899398E+02 -0.85841382698E+01  0.47551240162E+02  0.00000000000E+00 0.  1.
          3    1    1    2  501    0  0.27515982605E+03  0.20594620635E+03 -0.41401196822E+03  0.53808240968E+03  0.00000000000E+00 0. -1.
<scales pt_clust_5="13000.00000" pt_clust_6="13000.00000" pt_clust_7="13000.00000" pt_clust_8="13000.00000" pt_clust_9="324.90180"></scales>
<clustering>
<clus scale="   80.167">  5  6 -1 -1</clus>
<clus scale="   91.792">  7  8 -1 -1</clus>
<clus scale="  129.772">  1  7  2 -1</clus>
<clus scale="  324.902">  2  9  1 -1</clus>
<clus scale="  324.902">  2  5  1 -1</clus>
</clustering>
</event>
<event>
 9    2  0.1488992E-004  0.1317828E+03  0.7546771E-02  0.1233616E+00
         -3   -1    0    0    0  501 -0.00000000000E+00  0.00000000000E+00  0.11439979269E+03  0.11439979269E+03  0.00000000000E+00 0.  1.
         21   -1    0    0  501  502  0.00000000000E+00 -0.00000000000E+00 -0.52239347516E+03  0.52239347516E+03  0.00000000000E+00 0.  1.
         24    2    1    2    0    0 -0.68608206417E+01 -0.75346629340E+02  0.23962608414E+02  0.11248440733E+03  0.79714176138E+02 0.  0.
         23    2    1    2    0    0 -0.94905174960E+02 -0.72455712233E+00 -0.53870675725E+02  0.12544563125E+03  0.61863070394E+02 0.  0.
        -11    1    3    3    0    0 -0.27701188468E+02 -0.59335109296E+02  0.44464567454E+02  0.79152440244E+02  0.00000000000E+00 0.  1.
         12    1    3    3    0    0  0.20840367826E+02 -0.16011520044E+02 -0.20501959040E+02  0.33331967085E+02  0.00000000000E+00 0. -1.
        -13    1    4    4    0    0 -0.14218472478E+02  0.24720609431E+02 -0.16586846507E+02  0.32990861875E+02  0.00000000000E+00 0. -1.
         13    1    4    4    0    0 -0.80686702481E+02 -0.25445166553E+02 -0.37283829218E+02  0.92454769371E+02  0.00000000000E+00 0.  1.
         -4    1    1    2    0  502  0.10176599560E+03  0.76071186462E+02 -0.37808561516E+03  0.39886322927E+03  0.00000000000E+00 0.  1.
<scales pt_clust_5="13000.00000" pt_clust_6="13000.00000" pt_clust_7="13000.00000" pt_clust_8="13000.00000" pt_clust_9="116.36006"></scales>
<clustering>
<clus scale="   61.863">  7  8 -1 -1</clus>
<clus scale="   79.714">  5  6 -1 -1</clus>
<clus scale="  109.902">  1  5  2 -1</clus>
<clus scale="  116.360">  2  9  1 -1</clus>
<clus scale="  116.360">  2  5  1 -1</clus>
</clustering>
</event>
<event>
 9    2  0.1488992E-004  0.1504230E+03  0.7546771E-02  0.1202117E+00
         -1   -1    0    0    0  501 -0.00000000000E+00  0.00000000000E+00  0.15379678111E+04  0.15379678111E+04  0.00000000000E+00 0.  1.
         21   -1    0    0  501  502  0.00000000000E+00 -0.00000000000E+00 -0.28483683503E+02  0.28483683503E+02  0.00000000000E+00 0.  1.
         23    2    1    2    0    0 -0.59945413312E+02  0.14550429013E+03  0.79755758812E+03  0.81812194964E+03  0.91980797403E+02 0.  0.
         24    2    1    2    0    0 -0.16851089770E+02 -0.79666445697E+02  0.24196904127E+03  0.26760886228E+03  0.80217108144E+02 0.  0.
        -11    1    4    4    0    0 -0.40545107898E+02 -0.68582839086E+02  0.21810349306E+03  0.23219958070E+03  0.00000000000E+00 0.  1.
         12    1    4    4    0    0  0.23694018128E+02 -0.11083606611E+02  0.23865548216E+02  0.35409281583E+02  0.00000000000E+00 0. -1.
        -13    1    3    3    0    0 -0.21087618259E+02  0.11627315459E+03  0.69050680633E+03  0.70054534736E+03  0.00000000000E+00 0.  1.
         13    1    3    3    0    0 -0.38857795053E+02  0.29231135535E+02  0.10705078179E+03  0.11757660227E+03  0.00000000000E+00 0. -1.
         -2    1    1    2    0  502  0.76796503082E+02 -0.65837844428E+02  0.46995749824E+03  0.48072068272E+03  0.00000000000E+00 0.  1.
<scales pt_clust_5="13000.00000" pt_clust_6="13000.00000" pt_clust_7="13000.00000" pt_clust_8="13000.00000" pt_clust_9="101.15500"></scales>
<clustering>
<clus scale="   80.217">  5  6 -1 -1</clus>
<clus scale="   91.981">  7  8 -1 -1</clus>
<clus scale="  101.155">  2  9  1 -1</clus>
<clus scale="  143.532">  2  5  1 -1</clus>
<clus scale="  101.155">  2  5  1 -1</clus>
</clustering>
</event>
<event>
 9    2  0.1488992E-004  0.2694482E+03  0.7546771E-02  0.1116745E+00
         21   -1    0    0  501  502  0.00000000000E+00  0.00000000000E+00  0.34184666098E+03  0.34184666098E+03  0.00000000000E+00 0.  1.
         -1   -1    0    0    0  501 -0.00000000000E+00 -0.00000000000E+00 -0.46787542094E+03  0.46787542094E+03  0.00000000000E+00 0.  1.
         23    2    1    2    0    0  0.69660231811E+01  0.15947444399E+03 -0.14839771263E+02  0.18367650053E+03  0.89644934453E+02 0.  0.
         24    2    1    2    0    0  0.25495618785E+03 -0.27420402466E+02  0.74803683527E+02  0.27872038991E+03  0.79592263979E+02 0.  0.
        -13    1    4    4    0    0  0.19080102708E+03 -0.38690285821E+02  0.24090613341E+02  0.19616913060E+03  0.00000000000E+00 0.  1.
         14    1    4    4    0    0  0.64155160776E+02  0.11269883355E+02  0.50713070186E+02  0.82551259305E+02  0.00000000000E+00 0. -1.
        -13    1    3    3    0    0 -0.21112413680E+02  0.15267587664E+03 -0.14173817244E+02  0.15477905031E+03  0.00000000000E+00 0.  1.
         13    1    3    3    0    0  0.28078436861E+02  0.67985673416E+01 -0.66595401993E+00  0.28897450220E+02  0.00000000000E+00 0. -1.
         -2    1    1    2    0  502 -0.26192221103E+03 -0.13205404152E+03 -0.18599267222E+03  0.34732519148E+03  0.00000000000E+00 0.  1.
<scales pt_clust_5="13000.00000" pt_clust_6="13000.00000" pt_clust_7="13000.00000" pt_clust_8="13000.00000" pt_clust_9="257.42469"></scales>
<clustering>
<clus scale="   79.592">  5  6 -1 -1</clus>
<clus scale="   89.645">  7  8 -1 -1</clus>
<clus scale="  183.076">  2  7  1 -1</clus>
<clus scale="  257.425">  1  9  2 -1</clus>
<clus scale="  257.425">  1  5  2 -1</clus>
</clustering>
</event>
<event>
 9    2  0.1488992E-004  0.1954220E+03  0.7546771E-02  0.1176177E+00
         21   -1    0    0  501  502  0.00000000000E+00  0.00000000000E+00  0.12750646826E+03  0.12750646826E+03  0.00000000000E+00 0. -1.
          2   -1    0    0  502    0 -0.00000000000E+00 -0.00000000000E+00 -0.11073541435E+04  0.11073541435E+04  0.00000000000E+00 0. -1.
         23    2    1    2    0    0  0.34976521422E+02 -0.57944365403E+02  0.51348730219E+01  0.11633137596E+03  0.94476005304E+02 0.  0.
         24    2    1    2    0    0 -0.31615980120E+02 -0.16772452751E+03 -0.11626034048E+03  0.22096808649E+03  0.78608785471E+02 0.  0.
        -13    1    4    4    0    0  0.67763035366E+00 -0.99373445031E+02 -0.25015317490E+02  0.10247588433E+03  0.00000000000E+00 0.  1.
         14    1    4    4    0    0 -0.32293610474E+02 -0.68351082480E+02 -0.91245022987E+02  0.11849220216E+03  0.00000000000E+00 0. -1.
        -11    1    3    3    0    0  0.55590931063E+02 -0.65276516364E+02  0.22218634836E+02  0.88572247003E+02  0.00000000000E+00 0. -1.
         11    1    3    3    0    0 -0.20614409641E+02  0.73321509611E+01 -0.17083761814E+02  0.27759128954E+02  0.00000000000E+00 0.  1.
          1    1    1    2  501    0 -0.33605413023E+01  0.22566889291E+03 -0.86872220783E+03  0.89756114936E+03  0.00000000000E+00 0. -1.
<scales pt_clust_5="13000.00000" pt_clust_6="13000.00000" pt_clust_7="13000.00000" pt_clust_8="13000.00000" pt_clust_9="178.91460"></scales>
<clustering>
<clus scale="   78.609">  5  6 -1 -1</clus>
<clus scale="   94.476">  7  8 -1 -1</clus>
<clus scale="  116.218">  2  7  1 -1</clus>
<clus scale="  178.915">  1  9  2 -1</clus>
<clus scale="  178.915">  1  5  2 -1</clus>
</clustering>
</event>
<event>
 9    2  0.1488992E-004  0.1919121E+03  0.7546771E-02  0.1168652E+00
          2   -1    0    0  502    0 -0.00000000000E+00  0.00000000000E+00  0.71581528371E+03  0.71581528371E+03  0.00000000000E+00 0. -1.
         21   -1    0    0  501  502  0.00000000000E+00 -0.00000000000E+00 -0.13822232746E+03  0.13822232746E+03  0.00000000000E+00 0. -1.
         23    2    1    2    0    0  0.38689439370E+02  0.10631000824E+03 -0.98828290269E+01  0.14598865508E+03  0.91740539199E+02 0.  0.
         24    2    1    2    0    0  0.14817240309E+03 -0.75761196752E+02  0.40335136983E+03  0.44394220038E+03  0.81838436952E+02 0.  0.
        -13    1    4    4    0    0  0.50443251145E+02  0.57239579740E+01  0.17855555257E+03  0.18563235342E+03  0.00000000000E+00 0.  1.
         14    1    4    4    0    0  0.97729151944E+02 -0.81485154726E+02  0.22479581726E+03  0.25830984696E+03  0.00000000000E+00 0. -1.
        -13    1    3    3    0    0 -0.20038217469E+02  0.76428313567E+01  0.17806461148E+02  0.27874954513E+02  0.00000000000E+00 0.  1.
         13    1    3    3    0    0  0.58727656839E+02  0.98667176884E+02 -0.27689290175E+02  0.11811370057E+03  0.00000000000E+00 0. -1.
          1    1    1    2  501    0 -0.18686184246E+03 -0.30548811489E+02  0.18412441544E+03  0.26410675571E+03  0.00000000000E+00 0. -1.
<scales pt_clust_5="13000.00000" pt_clust_6="13000.00000" pt_clust_7="13000.00000" pt_clust_8="13000.00000" pt_clust_9="173.58784"></scales>
<clustering>
<clus scale="   81.838">  5  6 -1 -1</clus>
<clus scale="   91.741">  7  8 -1 -1</clus>
<clus scale="  145.654">  1  7  2 -1</clus>
<clus scale="  173.588">  2  9  1 -1</clus>
<clus scale="  173.588">  2  5  1 -1</clus>
</clustering>
</event>
<event>
 9    2  0.1488992E-004  0.1060150E+03  0.7546771E-02  0.1273269E+00
          2   -1    0    0  502    0 -0.00000000000E+00  0.00000000000E+00  0.87016866442E+02  0.87016866442E+02  0.00000000000E+00 0. -1.
         21   -1    0    0  501  502  0.00000000000E+00 -0.00000000000E+00 -0.18030045376E+03  0.18030045376E+03  0.00000000000E+00 0.  1.
         24    2    1    2    0    0  0.46864177523E+02  0.17959339297E+02  0.12020042232E+02  0.95248791314E+02  0.80056616394E+02 0.  0.
         23    2    1    2    0    0 -0.62481089125E+02 -0.11909808041E+01 -0.74779413223E+02  0.13390056383E+03  0.91826441822E+02 0.  0.
        -13    1    3    3    0    0  0.20652637770E+02  0.47426181412E+02  0.19174422786E+02  0.55167314774E+02  0.00000000000E+00 0.  1.
         14    1    3    3    0    0  0.26211539753E+02 -0.29466842115E+02 -0.71543805545E+01  0.40081476539E+02  0.00000000000E+00 0. -1.
        -13    1    4    4    0    0  0.36666504787E+01  0.29317004252E+02 -0.47853059814E+02  0.56239189162E+02  0.00000000000E+00 0.  1.
         13    1    4    4    0    0 -0.66147739604E+02 -0.30507985056E+02 -0.26926353409E+02  0.77661374665E+02  0.00000000000E+00 0. -1.
          1    1    1    2  501    0  0.15616911602E+02 -0.16768358493E+02 -0.30524216324E+02  0.38167965059E+02  0.00000000000E+00 0. -1.
<scales pt_clust_5="13000.00000" pt_clust_6="13000.00000" pt_clust_7="13000.00000" pt_clust_8="13000.00000" pt_clust_9="22.91431"></scales>
<clustering>
<clus scale="   22.914">  2  9  1 -1</clus>
<clus scale="   80.057">  5  6 -1 -1</clus>
<clus scale="   91.826">  7  8 -1 -1</clus>
<clus scale="   96.001">  1  5  2 -1</clus>
<clus scale="   22.914">  2  5  1 -1</clus>
</clustering>
</event>
<event>
 9    2  0.1763149E-004  0.1319876E+03  0.7546771E-02  0.1225951E+00
          2   -1    0    0  502    0 -0.00000000000E+00  0.00000000000E+00  0.65121336253E+03  0.65121336253E+03  0.00000000000E+00 0. -1.
         21   -1    0    0  501  502  0.00000000000E+00 -0.00000000000E+00 -0.37706433389E+03  0.37706433389E+03  0.00000000000E+00 0. -1.
         24    2    1    2    0    0 -0.97200510407E+02  0.31352693637E+02  0.60481704173E+03  0.61877078614E+03  0.81502768010E+02 0.  0.
         23    2    1    2    0    0  0.49759282772E+02 -0.44637050369E+02 -0.43787196565E+02  0.11842659989E+03  0.87401879213E+02 0.  0.
        -13    1    3    3    0    0 -0.25375459453E+02  0.38504140884E+02  0.11902629696E+03  0.12764694346E+03  0.00000000000E+00 0.  1.
         14    1    3    3    0    0 -0.71825050954E+02 -0.71514472465E+01  0.48579074476E+03  0.49112384267E+03  0.00000000000E+00 0. -1.
        -11    1    4    4    0    0  0.57768875255E+02  0.15949350278E+01 -0.58471723974E+01  0.58085937980E+02  0.00000000000E+00 0.  1.
         11    1    4    4    0    0 -0.80095924824E+01 -0.46231985397E+02 -0.37940024167E+02  0.60340661906E+02  0.00000000000E+00 0. -1.
          1    1    1    2  501    0  0.47441227635E+02  0.13284356732E+02 -0.28688081652E+03  0.29108031040E+03  0.00000000000E+00 0. -1.
<scales pt_clust_5="13000.00000" pt_clust_6="13000.00000" pt_clust_7="13000.00000" pt_clust_8="13000.00000" pt_clust_9="49.26606"></scales>
<clustering>
<clus scale="   49.266">  2  9  1 -1</clus>
<clus scale="   81.503">  5  6 -1 -1</clus>
<clus scale="   87.402">  7  8 -1 -1</clus>
<clus scale="  128.157">  1  5  2 -1</clus>
<clus scale="   49.266">  2  5  1 -1</clus>
</clustering>
</event>
<event>
 9    2  0.1488992E-004  0.1097472E+03  0.7546771E-02  0.1266820E+00
         21   -1    0    0  501  502  0.00000000000E+00  0.00000000000E+00  0.96191002086E+02  0.96191002086E+02  0.00000000000E+00 0. -1.
          4   -1    0    0  502    0 -0.00000000000E+00 -0.00000000000E+00 -0.16323413348E+03  0.16323413348E+03  0.00000000000E+00 0. -1.
         24    2    1    2    0    0 -0.27172705082E+02 -0.36577767337E+02 -0.46945467077E+02  0.10355474591E+03  0.80270913517E+02 0.  0.
         23    2    1    2    0    0  0.38782831139E+02  0.66902831858E+02 -0.12588970805E+02  0.12254194770E+03  0.94222873325E+02 0.  0.
        -13    1    3    3    0    0 -0.28189861667E+02  0.67877752769E+01 -0.52348217227E+02  0.59842109261E+02  0.00000000000E+00 0.  1.
         14    1    3    3    0    0  0.10171565847E+01 -0.43365542614E+02  0.54027501500E+01  0.43712636650E+02  0.00000000000E+00 0. -1.
        -11    1    4    4    0    0  0.12925996331E+01 -0.21330452581E+02 -0.15870131181E+02  0.26618040589E+02  0.00000000000E+00 0.  1.
         11    1    4    4    0    0  0.37490231506E+02  0.88233284439E+02  0.32811603754E+01  0.95923907107E+02  0.00000000000E+00 0. -1.
          3    1    1    2  501    0 -0.11610126057E+02 -0.30325064521E+02 -0.75086935142E+01  0.33328441961E+02  0.00000000000E+00 0. -1.
<scales pt_clust_5="13000.00000" pt_clust_6="13000.00000" pt_clust_7="13000.00000" pt_clust_8="13000.00000" pt_clust_9="32.47160"></scales>
<clustering>
<clus scale="   32.472">  1  9  2 -1</clus>
<clus scale="   80.271">  5  6 -1 -1</clus>
<clus scale="   94.223">  7  8 -1 -1</clus>
<clus scale="   98.030">  2  5  1 -1</clus>
<clus scale="   32.472">  1  5  2 -1</clus>
</clustering>
</event>
<event>
 9    2  0.1488992E-004  0.1377960E+03  0.7546771E-02  0.1218593E+00
         21   -1    0    0  501  502  0.00000000000E+00  0.00000000000E+00  0.97022407390E+02  0.97022407390E+02  0.00000000000E+00 0.  1.
         -3   -1    0    0    0  501 -0.00000000000E+00 -0.00000000000E+00 -0.40579970791E+03  0.40579970791E+03  0.00000000000E+00 0.  1.
         24    2    1    2    0    0 -0.91638989923E+02  0.49212964882E+02 -0.17906215152E+03  0.22205548230E+03  0.80160855334E+02 0.  0.
         23    2    1    2    0    0  0.11864621760E+03  0.25515571361E+02 -0.13272812398E+03  0.20125045543E+03  0.90316231013E+02 0.  0.
        -11    1    3    3    0    0 -0.65211475278E+02 -0.10000151194E+02 -0.10002595207E+03  0.11982374815E+03  0.00000000000E+00 0.  1.
         12    1    3    3    0    0 -0.26427514645E+02  0.59213116076E+02 -0.79036199441E+02  0.10223173415E+03  0.00000000000E+00 0. -1.
        -13    1    4    4    0    0  0.82650007245E+02  0.25789903091E+02 -0.28768053008E+02  0.91234553064E+02  0.00000000000E+00 0. -1.
         13    1    4    4    0    0  0.35996210358E+02 -0.27433173010E+00 -0.10396007097E+03  0.11001590237E+03  0.00000000000E+00 0.  1.
         -4    1    1    2    0  502 -0.27007227680E+02 -0.74728536243E+02  0.30129749754E+01  0.79516177563E+02  0.00000000000E+00 0.  1.
<scales pt_clust_5="13000.00000" pt_clust_6="13000.00000" pt_clust_7="13000.00000" pt_clust_8="13000.00000" pt_clust_9="79.45907"></scales>
<clustering>
<clus scale="   79.459">  1  9  2 -1</clus>
<clus scale="   80.161">  5  6 -1 -1</clus>
<clus scale="   90.316">  7  8 -1 -1</clus>
<clus scale="  131.364">  2  5  1 -1</clus>
<clus scale="   79.459">  1  5  2 -1</clus>
</clustering>
</event>
<event>
 9    2  0.1488992E-004  0.1373407E+03  0.7546771E-02  0.1221854E+00
         21   -1    0    0  501  502  0.00000000000E+00  0.00000000000E+00  0.18935663687E+03  0.18935663687E+03  0.00000000000E+00 0. -1.
          2   -1    0    0  502    0 -0.00000000000E+00 -0.00000000000E+00 -0.28744659123E+03  0.28744659123E+03  0.00000000000E+00 0. -1.
         24    2    1    2    0    0  0.73417884182E+02 -0.75252662856E+02 -0.20503772461E+03  0.24268136460E+03  0.76161848901E+02 0.  0.
         23    2    1    2    0    0 -0.29361300743E+01  0.83762685435E+02  0.33854830883E+02  0.13222644686E+03  0.96503240066E+02 0.  0.
        -11    1    3    3    0    0  0.38685314537E+02  0.56898640979E+01 -0.87178625108E+02  0.95546013993E+02  0.00000000000E+00 0.  1.
         12    1    3    3    0    0  0.34732569646E+02 -0.80942526954E+02 -0.11785909950E+03  0.14713535061E+03  0.00000000000E+00 0. -1.
        -13    1    4    4    0    0  0.18806220751E+02 -0.70244370425E+01  0.33284972472E+02  0.38870374929E+02  0.00000000000E+00 0.  1.
         13    1    4    4    0    0 -0.21742350826E+02  0.90787122477E+02  0.56985841130E+00  0.93356071927E+02  0.00000000000E+00 0. -1.
          1    1    1    2  501    0 -0.70481754108E+02 -0.85100225789E+01  0.73092939368E+02  0.10189541664E+03  0.00000000000E+00 0. -1.
<scales pt_clust_5="13000.00000" pt_clust_6="13000.00000" pt_clust_7="13000.00000" pt_clust_8="13000.00000" pt_clust_9="70.99365"></scales>
<clustering>
<clus scale="   70.994">  1  9  2 -1</clus>
<clus scale="   76.162">  5  6 -1 -1</clus>
<clus scale="   96.503">  7  8 -1 -1</clus>
<clus scale="  123.896">  2  5  1 -1</clus>
<clus scale="   70.994">  1  5  2 -1</clus>
</clustering>
</event>
<event>
 9    2  0.1488992E-004  0.1150427E+03  0.7546771E-02  0.1251575E+00
         21   -1    0    0  501  502  0.00000000000E+00  0.00000000000E+00  0.96631184009E+03  0.96631184009E+03  0.00000000000E+00 0.  1.
         -3   -1    0    0    0  501 -0.00000000000E+00 -0.00000000000E+00 -0.51908275752E+02  0.51908275752E+02  0.00000000000E+00 0.  1.
         23    2    1    2    0    0 -0.24053773671E+02 -0.78332117031E+02  0.77168645699E+02  0.14334987432E+03  0.88767572919E+02 0.  0.
         24    2    1    2    0    0 -0.88667615408E+02  0.56137873720E+02  0.34914095025E+03  0.37343787522E+03  0.80889038958E+02 0.  0.
        -11    1    4    4    0    0 -0.10253992588E+03  0.49364643535E+02  0.32855679535E+03  0.34770802723E+03  0.00000000000E+00 0.  1.
         12    1    4    4    0    0  0.13872310469E+02  0.67732301854E+01  0.20584154901E+02  0.25729847995E+02  0.00000000000E+00 0. -1.
        -11    1    3    3    0    0  0.27954280595E+02 -0.51230127663E+02  0.20661203955E+02  0.61910040646E+02  0.00000000000E+00 0.  1.
         11    1    3    3    0    0 -0.52008054265E+02 -0.27101989368E+02  0.56507441744E+02  0.81439833672E+02  0.00000000000E+00 0. -1.
         -4    1    1    2    0  502  0.11272138908E+03  0.22194243311E+02  0.48809396839E+03  0.50143236630E+03  0.00000000000E+00 0.  1.
<scales pt_clust_5="13000.00000" pt_clust_6="13000.00000" pt_clust_7="13000.00000" pt_clust_8="13000.00000" pt_clust_9="114.88558"></scales>
<clustering>
<clus scale="   80.889">  5  6 -1 -1</clus>
<clus scale="   88.768">  7  8 -1 -1</clus>
<clus scale="  114.886">  1  9  2 -1</clus>
<clus scale="  114.886">  1  5  2 -1</clus>
<clus scale="  114.886">  1  5  2 -1</clus>
</clustering>
</event>
<event>
 9    2  0.1488992E-004  0.1349056E+03  0.7546771E-02  0.1224217E+00
          2   -1    0    0  502    0 -0.00000000000E+00  0.00000000000E+00  0.46324081160E+03  0.46324081160E+03  0.00000000000E+00 0. -1.
         21   -1    0    0  501  502  0.00000000000E+00 -0.00000000000E+00 -0.12902001072E+03  0.12902001072E+03  0.00000000000E+00 0.  1.
         23    2    1    2    0    0  0.66890859968E+02 -0.54588026600E+02  0.17959961113E+03  0.22134222442E+03  0.96343760541E+02 0.  0.
         24    2    1    2    0    0 -0.10505262476E+03  0.85161994003E+02 -0.46157451957E+02  0.16427119110E+03  0.81030208339E+02 0.  0.
        -13    1    4    4    0    0 -0.21329163417E+02 -0.81408833600E+01 -0.30262085459E+02  0.37907796167E+02  0.00000000000E+00 0.  1.
         14    1    4    4    0    0 -0.83723461338E+02  0.93302877363E+02 -0.15895366498E+02  0.12636339493E+03  0.00000000000E+00 0. -1.
        -11    1    3    3    0    0  0.25110335671E+02 -0.61970933667E+02  0.16227983106E+03  0.17551543848E+03  0.00000000000E+00 0.  1.
         11    1    3    3    0    0  0.41780524296E+02  0.73829070670E+01  0.17319780074E+02  0.45826785934E+02  0.00000000000E+00 0. -1.
          1    1    1    2  501    0  0.38161764788E+02 -0.30573967403E+02  0.20077864171E+03  0.20664740681E+03  0.00000000000E+00 0. -1.
<scales pt_clust_5="13000.00000" pt_clust_6="13000.00000" pt_clust_7="13000.00000" pt_clust_8="13000.00000" pt_clust_9="48.89877"></scales>
<clustering>
<clus scale="   48.899">  2  9  1 -1</clus>
<clus scale="   81.030">  5  6 -1 -1</clus>
<clus scale="   96.344">  7  8 -1 -1</clus>
<clus scale="  124.432">  2  5  1 -1</clus>
<clus scale="   48.899">  2  5  1 -1</clus>
</clustering>
</event>
<event>
 9    2  0.1488992E-004  0.1018503E+03  0.7546771E-02  0.1282152E+00
          2   -1    0    0  502    0 -0.00000000000E+00  0.00000000000E+00  0.45921297198E+03  0.45921297198E+03  0.00000000000E+00 0. -1.
         21   -1    0    0  501  502  0.00000000000E+00 -0.00000000000E+00 -0.10359975645E+03  0.10359975645E+03  0.00000000000E+00 0. -1.
         24    2    1    2    0    0 -0.31259765436E+00  0.49870452130E+02  0.37912317559E+03  0.39030165232E+03  0.78191034139E+02 0.  0.
         23    2    1    2    0    0  0.48994902401E+02 -0.22616432688E+02  0.12867153915E+02  0.10590745164E+03  0.90215415388E+02 0.  0.
        -11    1    3    3    0    0 -0.34511693017E+02  0.46197010022E+01  0.11494971122E+03  0.12010759635E+03  0.00000000000E+00 0.  1.
         12    1    3    3    0    0  0.34199095363E+02  0.45250751128E+02  0.26417346437E+03  0.27019405597E+03  0.00000000000E+00 0. -1.
        -13    1    4    4    0    0  0.68201151168E+02 -0.40109314093E+02  0.87233671640E+01  0.79600573066E+02  0.00000000000E+00 0.  1.
         13    1    4    4    0    0 -0.19206248767E+02  0.17492881404E+02  0.41437867509E+01  0.26306878572E+02  0.00000000000E+00 0. -1.
          1    1    1    2  501    0 -0.48682304747E+02 -0.27254019442E+02 -0.36377113984E+02  0.66603624473E+02  0.00000000000E+00 0. -1.
<scales pt_clust_5="13000.00000" pt_clust_6="13000.00000" pt_clust_7="13000.00000" pt_clust_8="13000.00000" pt_clust_9="55.79201"></scales>
<clustering>
<clus scale="   55.792">  2  9  1 -1</clus>
<clus scale="   78.191">  5  6 -1 -1</clus>
<clus scale="   90.215">  7  8 -1 -1</clus>
<clus scale="   91.370">  1  5  2 -1</clus>
<clus scale="   55.792">  2  5  1 -1</clus>
</clustering>
</event>
<event>
 9    2  0.1488992E-004  0.2611798E+03  0.7546771E-02  0.1138082E+00
         21   -1    0    0  501  502  0.00000000000E+00  0.00000000000E+00  0.19253226539E+04  0.19253226539E+04  0.00000000000E+00 0.  1.
         -1   -1    0    0    0  501 -0.00000000000E+00 -0.00000000000E+00 -0.19613046046E+03  0.19613046046E+03  0.00000000000E+00 0.  1.
         24    2    1    2    0    0 -0.62030600602E+02  0.60347692285E+02  0.33593080726E+03  0.35629545249E+03  0.81285317386E+02 0.  0.
         23    2    1    2    0    0 -0.19102799730E+03 -0.15127632852E+03  0.14640948653E+04  0.14870856341E+04  0.92052621954E+02 0.  0.
        -13    1    3    3    0    0 -0.74559016775E+02  0.38277969356E+02  0.30489754220E+03  0.31620683288E+03  0.00000000000E+00 0.  1.
         14    1    3    3    0    0  0.12528416172E+02  0.22069722929E+02  0.31033265067E+02  0.40088619616E+02  0.00000000000E+00 0. -1.
        -11    1    4    4    0    0 -0.99648908766E+02 -0.13462359086E+03  0.92145796332E+03  0.93655656231E+03  0.00000000000E+00 0.  1.
         11    1    4    4    0    0 -0.91379088534E+02 -0.16652737663E+02  0.54263690196E+03  0.55052907177E+03  0.00000000000E+00 0. -1.
         -2    1    1    2    0  502  0.25305859790E+03  0.90928636237E+02 -0.70833479136E+02  0.27807202777E+03  0.00000000000E+00 0.  1.
<scales pt_clust_5="13000.00000" pt_clust_6="13000.00000" pt_clust_7="13000.00000" pt_clust_8="13000.00000" pt_clust_9="244.42025"></scales>
<clustering>
<clus scale="   81.285">  5  6 -1 -1</clus>
<clus scale="   92.053">  7  8 -1 -1</clus>
<clus scale="  118.731">  2  5  1 -1</clus>
<clus scale="  244.420">  1  9  2 -1</clus>
<clus scale="  244.420">  1  5  2 -1</clus>
</clustering>
</event>
<event>
 9    2  0.1488992E-004  0.1136085E+03  0.7546771E-02  0.1258052E+00
          2   -1    0    0  502    0 -0.00000000000E+00  0.00000000000E+00  0.84427108664E+03  0.84427108664E+03  0.00000000000E+00 0. -1.
         21   -1    0    0  501  502  0.00000000000E+00 -0.00000000000E+00 -0.23730221864E+02  0.23730221864E+02  0.00000000000E+00 0. -1.
         24    2    1    2    0    0  0.25826655307E+02 -0.66616638567E+02  0.62757006169E+03  0.63674102431E+03  0.80561511022E+02 0.  0.
         23    2    1    2    0    0 -0.11080995823E+02  0.52672662351E+02  0.17131540517E+03  0.20158158467E+03  0.91591317283E+02 0.  0.
        -13    1    3    3    0    0  0.38556682859E+02 -0.21001164978E+00  0.17918643922E+03  0.18328786621E+03  0.00000000000E+00 0.  1.
         14    1    3    3    0    0 -0.12730027552E+02 -0.66406626917E+02  0.44838362246E+03  0.45345315810E+03  0.00000000000E+00 0. -1.
        -13    1    4    4    0    0 -0.20135950326E+02  0.76234534643E+02  0.11060792945E+03  0.13583546969E+03  0.00000000000E+00 0.  1.
         13    1    4    4    0    0  0.90549545028E+01 -0.23561872292E+02  0.60707475726E+02  0.65746114988E+02  0.00000000000E+00 0. -1.
          1    1    1    2  501    0 -0.14745659484E+02  0.13943976216E+02  0.21655397920E+02  0.29678699524E+02  0.00000000000E+00 0. -1.
<scales pt_clust_5="13000.00000" pt_clust_6="13000.00000" pt_clust_7="13000.00000" pt_clust_8="13000.00000" pt_clust_9="20.29455"></scales>
<clustering>
<clus scale="   20.295">  2  9  1 -1</clus>
<clus scale="   80.562">  5  6 -1 -1</clus>
<clus scale="   91.591">  7  8 -1 -1</clus>
<clus scale="  104.919">  1  5  2 -1</clus>
<clus scale="   20.295">  2  5  1 -1</clus>
</clustering>
</event>
<event>
 9    2  0.1488992E-004  0.1093018E+03  0.7546771E-02  0.1265937E+00
         -3   -1    0    0    0  501 -0.00000000000E+00  0.00000000000E+00  0.18291750135E+03  0.18291750135E+03  0.00000000000E+00 0.  1.
         21   -1    0    0  501  502  0.00000000000E+00 -0.00000000000E+00 -0.11035133353E+03  0.11035133353E+03  0.00000000000E+00 0. -1.
         24    2    1    2    0    0  0.21987650566E+02  0.37486802769E+02  0.22957068203E+02  0.95501626818E+02  0.81882944409E+02 0.  0.
         23    2    1    2    0    0 -0.84467773895E+02 -0.29957583090E+02  0.30468198407E+02  0.13198857126E+03  0.91980488241E+02 0.  0.
        -13    1    3    3    0    0 -0.72849002778E+01  0.56642776562E+02  0.19505322535E+02  0.60348417675E+02  0.00000000000E+00 0.  1.
         14    1    3    3    0    0  0.29272550844E+02 -0.19155973793E+02  0.34517456684E+01  0.35153209143E+02  0.00000000000E+00 0. -1.
        -11    1    4    4    0    0 -0.66077844853E+02  0.24795196841E+02  0.14317564580E+02  0.72014415379E+02  0.00000000000E+00 0. -1.
         11    1    4    4    0    0 -0.18389929042E+02 -0.54752779931E+02  0.16150633827E+02  0.59974155879E+02  0.00000000000E+00 0.  1.
         -4    1    1    2    0  502  0.62480123329E+02 -0.75292196797E+01  0.19140901206E+02  0.65778636799E+02  0.00000000000E+00 0.  1.
<scales pt_clust_5="13000.00000" pt_clust_6="13000.00000" pt_clust_7="13000.00000" pt_clust_8="13000.00000" pt_clust_9="62.93218"></scales>
<clustering>
<clus scale="   62.932">  2  9  1 -1</clus>
<clus scale="   81.883">  5  6 -1 -1</clus>
<clus scale="   91.980">  7  8 -1 -1</clus>
<clus scale="  100.952">  1  5  2 -1</clus>
<clus scale="   62.932">  2  5  1 -1</clus>
</clustering>
</event>
<event>
 9    2  0.1488992E-004  0.9469249E+02  0.7546771E-02  0.1298519E+00
         -3   -1    0    0    0  501 -0.00000000000E+00  0.00000000000E+00  0.53079010124E+02  0.53079010124E+02  0.00000000000E+00 0.  1.
         21   -1    0    0  501  502  0.00000000000E+00 -0.00000000000E+00 -0.30323171880E+03  0.30323171880E+03  0.00000000000E+00 0.  1.
         23    2    1    2    0    0 -0.24888911370E+02 -0.23980311231E+01 -0.16333023928E+02  0.95876416922E+02  0.91106043645E+02 0.  0.
         24    2    1    2    0    0  0.22866185891E+02  0.28996813367E+02 -0.18644095216E+03  0.20606215978E+03  0.79609719316E+02 0.  0.
        -11    1    4    4    0    0  0.41804186257E+02  0.44479994848E+02 -0.10998799173E+03  0.12579116922E+03  0.00000000000E+00 0.  1.
         12    1    4    4    0    0 -0.18938000366E+02 -0.15483181481E+02 -0.76452960432E+02  0.80270990560E+02  0.00000000000E+00 0. -1.
        -13    1    3    3    0    0  0.23206131283E+02 -0.25545223272E+02 -0.23882664297E+02  0.41969805993E+02  0.00000000000E+00 0.  1.
         13    1    3    3    0    0 -0.48095042653E+02  0.23147192149E+02  0.75496403689E+01  0.53906610929E+02  0.00000000000E+00 0. -1.
         -4    1    1    2    0  502  0.20227254789E+01 -0.26598782244E+02 -0.47378732586E+02  0.54372152217E+02  0.00000000000E+00 0.  1.
<scales pt_clust_5="13000.00000" pt_clust_6="13000.00000" pt_clust_7="13000.00000" pt_clust_8="13000.00000" pt_clust_9="26.67558"></scales>
<clustering>
<clus scale="   26.676">  2  9  1 -1</clus>
<clus scale="   79.610">  5  6 -1 -1</clus>
<clus scale="   83.690">  2  5  1 -1</clus>
<clus scale="   91.106">  7  8 -1 -1</clus>
<clus scale="   26.676">  2  5  1 -1</clus>
</clustering>
</event>
<event>
 9    2  0.1488992E-004  0.1011424E+03  0.7546771E-02  0.1283595E+00
         -3   -1    0    0    0  501 -0.00000000000E+00  0.00000000000E+00  0.50028790172E+03  0.50028790172E+03  0.00000000000E+00 0.  1.
         21   -1    0    0  501  502  0.00000000000E+00 -0.00000000000E+00 -0.38771092973E+02  0.38771092973E+02  0.00000000000E+00 0. -1.
         23    2    1    2    0    0 -0.11110795176E+02 -0.47596909669E+02  0.37937762677E+03  0.39331421520E+03  0.91541097911E+02 0.  0.
         24    2    1    2    0    0  0.12572797074E+02  0.26367556097E+02  0.89227451721E+02  0.12331563617E+03  0.79949263546E+02 0.  0.
        -13    1    4    4    0    0 -0.19734761593E+02  0.10638279418E+02  0.84077583638E+02  0.87015365738E+02  0.00000000000E+00 0.  1.
         14    1    4    4    0    0  0.32307558667E+02  0.15729276679E+02  0.51498680826E+01  0.36300270427E+02  0.00000000000E+00 0. -1.
        -13    1    3    3    0    0  0.36607292015E+02 -0.41036693311E+01  0.18043350845E+03  0.18415532819E+03  0.00000000000E+00 0.  1.
         13    1    3    3    0    0 -0.47718087191E+02 -0.43493240338E+02  0.19894411832E+03  0.20915888701E+03  0.00000000000E+00 0. -1.
         -4    1    1    2    0  502 -0.14620018984E+01  0.21229353572E+02 -0.70882697392E+01  0.22429143331E+02  0.00000000000E+00 0.  1.
<scales pt_clust_5="13000.00000" pt_clust_6="13000.00000" pt_clust_7="13000.00000" pt_clust_8="13000.00000" pt_clust_9="21.27964"></scales>
<clustering>
<clus scale="   21.280">  2  9  1 -1</clus>
<clus scale="   79.949">  5  6 -1 -1</clus>
<clus scale="   90.785">  2  5  1 -1</clus>
<clus scale="   91.541">  7  8 -1 -1</clus>
<clus scale="   21.280">  2  5  1 -1</clus>
</clustering>
</event>
<event>
 9    2  0.1488992E-004  0.4665663E+03  0.7546771E-02  0.1022894E+00
          2   -1    0    0  502    0 -0.00000000000E+00  0.00000000000E+00  0.14379288640E+04  0.14379288640E+04  0.00000000000E+00 0. -1.
         21   -1    0    0  501  502  0.00000000000E+00 -0.00000000000E+00 -0.14853332335E+03  0.14853332335E+03  0.00000000000E+00 0. -1.
         24    2    1    2    0    0  0.58331446271E+02  0.10780856713E+03  0.46379655873E+03  0.48628429864E+03  0.79623655012E+02 0.  0.
         23    2    1    2    0    0  0.25964852264E+03  0.12875552507E+03  0.51011321033E+03  0.59361584669E+03  0.90382219157E+02 0.  0.
        -13    1    3    3    0    0  0.60104512235E+02  0.33354857950E+02  0.27158128914E+03  0.28014548997E+03  0.00000000000E+00 0.  1.
         14    1    3    3    0    0 -0.17730659639E+01  0.74453709181E+02  0.19221526959E+03  0.20613880866E+03  0.00000000000E+00 0. -1.
        -11    1    4    4    0    0  0.13573963695E+02  0.38380393496E+02  0.55393252484E+02  0.68743868935E+02  0.00000000000E+00 0.  1.
         11    1    4    4    0    0  0.24607455894E+03  0.90375131577E+02  0.45471995785E+03  0.52487197775E+03  0.00000000000E+00 0. -1.
          1    1    1    2  501    0 -0.31797996891E+03 -0.23656409220E+03  0.31548577157E+03  0.50656204201E+03  0.00000000000E+00 0. -1.
<scales pt_clust_5="13000.00000" pt_clust_6="13000.00000" pt_clust_7="13000.00000" pt_clust_8="13000.00000" pt_clust_9="396.32541"></scales>
<clustering>
<clus scale="   79.624">  5  6 -1 -1</clus>
<clus scale="   90.382">  7  8 -1 -1</clus>
<clus scale="  145.276">  5  7 -1 -1</clus>
<clus scale="  396.325">  2  9  1 -1</clus>
<clus scale="  396.325">  2  5  1 -1</clus>
</clustering>
</event>
<event>
 9    2  0.1488992E-004  0.1123275E+03  0.7546771E-02  0.1260313E+00
          2   -1    0    0  502    0 -0.00000000000E+00  0.00000000000E+00  0.48230501095E+03  0.48230501095E+03  0.00000000000E+00 0. -1.
         21   -1    0    0  501  502  0.00000000000E+00 -0.00000000000E+00 -0.13766516872E+03  0.13766516872E+03  0.00000000000E+00 0.  1.
         23    2    1    2    0    0 -0.35352419149E+02 -0.64058853108E+02  0.24829885078E+03  0.27427642378E+03  0.90674732657E+02 0.  0.
         24    2    1    2    0    0 -0.46006050598E+02  0.29132378860E+02 -0.94570353983E+02  0.13525088712E+03  0.79899927556E+02 0.  0.
        -11    1    4    4    0    0 -0.64994609650E+02  0.16978001450E+02 -0.89902257443E+02  0.11222730376E+03  0.00000000000E+00 0.  1.
         12    1    4    4    0    0  0.18988559051E+02  0.12154377410E+02 -0.46680965407E+01  0.23023583352E+02  0.00000000000E+00 0. -1.
        -13    1    3    3    0    0 -0.48662385753E+02 -0.18374568649E+01  0.72678686785E+02  0.87484830386E+02  0.00000000000E+00 0. -1.
         13    1    3    3    0    0  0.13309966604E+02 -0.62221396243E+02  0.17562016399E+03  0.18679159339E+03  0.00000000000E+00 0.  1.
          1    1    1    2  501    0  0.81358469747E+02  0.34926474248E+02  0.19091134544E+03  0.21044286878E+03  0.00000000000E+00 0. -1.
<scales pt_clust_5="13000.00000" pt_clust_6="13000.00000" pt_clust_7="13000.00000" pt_clust_8="13000.00000" pt_clust_9="88.53851"></scales>
<clustering>
<clus scale="   79.900">  5  6 -1 -1</clus>
<clus scale="   88.539">  2  9  1 -1</clus>
<clus scale="   90.675">  7  8 -1 -1</clus>
<clus scale="  103.825">  2  5  1 -1</clus>
<clus scale="   88.539">  2  5  1 -1</clus>
</clustering>
</event>
<event>
 9    2  0.1488992E-004  0.1315881E+03  0.7546771E-02  0.1225808E+00
         21   -1    0    0  501  502  0.00000000000E+00  0.00000000000E+00  0.95683529249E+02  0.95683529249E+02  0.00000000000E+00 0.  1.
         -3   -1    0    0    0  501 -0.00000000000E+00 -0.00000000000E+00 -0.46353452810E+03  0.46353452810E+03  0.00000000000E+00 0.  1.
         24    2    1    2    0    0  0.92028258800E+02 -0.51156655420E+02 -0.35189560742E+03  0.37892673551E+03  0.93106114493E+02 0.  0.
         23    2    1    2    0    0 -0.35254701288E+02  0.11548356225E+02  0.23603680594E+02  0.10056068546E+03  0.90438151394E+02 0.  0.
        -11    1    3    3    0    0  0.64463145638E+02 -0.47536856969E+02 -0.33890248832E+03  0.34823863443E+03  0.00000000000E+00 0.  1.
         12    1    3    3    0    0  0.27565113162E+02 -0.36197984517E+01 -0.12993119093E+02  0.30688101086E+02  0.00000000000E+00 0. -1.
        -11    1    4    4    0    0 -0.39166056164E+02  0.32592973868E+02 -0.17781859524E+02  0.53967364482E+02  0.00000000000E+00 0. -1.
         11    1    4    4    0    0  0.39113548756E+01 -0.21044617643E+02  0.41385540118E+02  0.46593320976E+02  0.00000000000E+00 0.  1.
         -4    1    1    2    0  502 -0.56773557512E+02  0.39608299196E+02 -0.39559072030E+02  0.79730636380E+02  0.00000000000E+00 0.  1.
<scales pt_clust_5="13000.00000" pt_clust_6="13000.00000" pt_clust_7="13000.00000" pt_clust_8="13000.00000" pt_clust_9="69.22466"></scales>
<clustering>
<clus scale="   69.225">  1  9  2 -1</clus>
<clus scale="   90.438">  7  8 -1 -1</clus>
<clus scale="   93.106">  5  6 -1 -1</clus>
<clus scale="  129.714">  1  7  2 -1</clus>
<clus scale="   69.225">  1  5  2 -1</clus>
</clustering>
</event>
<event>
 9    2  0.1488992E-004  0.1118361E+03  0.7546771E-02  0.1264373E+00
          2   -1    0    0  502    0 -0.00000000000E+00  0.00000000000E+00  0.10763838220E+03  0.10763838220E+03  0.00000000000E+00 0. -1.
         21   -1    0    0  501  502  0.00000000000E+00 -0.00000000000E+00 -0.68965508764E+03  0.68965508764E+03  0.00000000000E+00 0. -1.
         23    2    1    2    0    0  0.17209705920E+02 -0.55956035919E+02  0.68034912981E+02  0.13139328572E+03  0.95959336259E+02 0.  0.
         24    2    1    2    0    0 -0.34488128770E+02  0.27429077346E+02 -0.59330707105E+03  0.60008016498E+03  0.78365416760E+02 0.  0.
        -11    1    4    4    0    0 -0.46288418994E+02  0.15455309140E+00 -0.18536645222E+03  0.19105853351E+03  0.00000000000E+00 0.  1.
         12    1    4    4    0    0  0.11800290224E+02  0.27274524255E+02 -0.40794061883E+03  0.40902163148E+03  0.00000000000E+00 0. -1.
        -13    1    3    3    0    0  0.33142429316E+01  0.27207993664E+02  0.10670906159E+02  0.29413047507E+02  0.00000000000E+00 0.  1.
         13    1    3    3    0    0  0.13895462988E+02 -0.83164029582E+02  0.57364006822E+02  0.10198023822E+03  0.00000000000E+00 0. -1.
          1    1    1    2  501    0  0.17278422851E+02  0.28526958573E+02 -0.56744547380E+02  0.65820019135E+02  0.00000000000E+00 0. -1.
<scales pt_clust_5="13000.00000" pt_clust_6="13000.00000" pt_clust_7="13000.00000" pt_clust_8="13000.00000" pt_clust_9="33.35163"></scales>
<clustering>
<clus scale="   33.352">  2  9  1 -1</clus>
<clus scale="   78.365">  5  6 -1 -1</clus>
<clus scale="   95.959">  7  8 -1 -1</clus>
<clus scale="   97.161">  2  5  1 -1</clus>
<clus scale="   33.352">  2  5  1 -1</clus>
</clustering>
</event>
<event>
 9    2  0.1488992E-004  0.1096338E+03  0.7546771E-02  0.1265959E+00
         21   -1    0    0  501  502  0.00000000000E+00  0.00000000000E+00  0.57945440616E+02  0.57945440616E+02  0.00000000000E+00 0. -1.
         -1   -1    0    0    0  501 -0.00000000000E+00 -0.00000000000E+00 -0.46207075995E+03  0.46207075995E+03  0.00000000000E+00 0.  1.
         24    2    1    2    0    0  0.38143890532E+02  0.57824772893E+02 -0.18214136487E+03  0.21079859334E+03  0.80386002581E+02 0.  0.
         23    2    1    2    0    0 -0.77695184808E+02  0.24838281978E+02 -0.11573001456E+03  0.16890586409E+03  0.92099254385E+02 0.  0.
        -11    1    3    3    0    0  0.29472097833E+02 -0.41407247678E+01 -0.11597641490E+03  0.11973420132E+03  0.00000000000E+00 0.  1.
         12    1    3    3    0    0  0.86717926989E+01  0.61965497661E+02 -0.66164949966E+02  0.91064392014E+02  0.00000000000E+00 0. -1.
        -11    1    4    4    0    0 -0.64521966377E+02 -0.21392874461E+02 -0.39023218413E+02  0.78380806312E+02  0.00000000000E+00 0. -1.
         11    1    4    4    0    0 -0.13173218431E+02  0.46231156439E+02 -0.76706796149E+02  0.90525057774E+02  0.00000000000E+00 0.  1.
         -2    1    1    2    0  502  0.39551294276E+02 -0.82663054871E+02 -0.10625393991E+03  0.14031174315E+03  0.00000000000E+00 0.  1.
<scales pt_clust_5="13000.00000" pt_clust_6="13000.00000" pt_clust_7="13000.00000" pt_clust_8="13000.00000" pt_clust_9="91.63780"></scales>
<clustering>
<clus scale="   80.386">  5  6 -1 -1</clus>
<clus scale="   91.638">  1  9  2 -1</clus>
<clus scale="   92.099">  7  8 -1 -1</clus>
<clus scale="   99.996">  2  5  1 -1</clus>
<clus scale="   91.638">  1  5  2 -1</clus>
</clustering>
</event>
<event>
 9    2  0.1488992E-004  0.1026847E+03  0.7546771E-02  0.1277560E+00
         21   -1    0    0  501  502  0.00000000000E+00  0.00000000000E+00  0.61758569730E+03  0.61758569730E+03  0.00000000000E+00 0.  1.
         -1   -1    0    0    0  501 -0.00000000000E+00 -0.00000000000E+00 -0.34432836917E+02  0.34432836917E+02  0.00000000000E+00 0.  1.
         23    2    1    2    0    0 -0.52548586104E+02 -0.53314503890E+00  0.97218369814E+02  0.14105416283E+03  0.87654020314E+02 0.  0.
         24    2    1    2    0    0  0.50597663412E+02  0.37577263464E+02  0.22486195854E+03  0.24726958610E+03  0.81284522129E+02 0.  0.
        -13    1    4    4    0    0 -0.12224203096E+01  0.43260714802E+02  0.14947125699E+03  0.15561054084E+03  0.00000000000E+00 0.  1.
         14    1    4    4    0    0  0.51820083722E+02 -0.56834513378E+01  0.75390701560E+02  0.91659045259E+02  0.00000000000E+00 0. -1.
        -11    1    3    3    0    0 -0.87701856956E+01  0.26004095360E+02 -0.38964828809E+01  0.27718436310E+02  0.00000000000E+00 0. -1.
         11    1    3    3    0    0 -0.43778400408E+02 -0.26537240399E+02  0.10111485270E+03  0.11333572652E+03  0.00000000000E+00 0.  1.
         -2    1    1    2    0  502  0.19509226912E+01 -0.37044118425E+02  0.26107253203E+03  0.26369478529E+03  0.00000000000E+00 0.  1.
<scales pt_clust_5="13000.00000" pt_clust_6="13000.00000" pt_clust_7="13000.00000" pt_clust_8="13000.00000" pt_clust_9="37.09546"></scales>
<clustering>
<clus scale="   37.095">  1  9  2 -1</clus>
<clus scale="   81.285">  5  6 -1 -1</clus>
<clus scale="   87.654">  7  8 -1 -1</clus>
<clus scale="   97.304">  1  5  2 -1</clus>
<clus scale="   37.095">  1  5  2 -1</clus>
</clustering>
</event>
<event>
 9    2  0.1488992E-004  0.9706878E+02  0.7546771E-02  0.1292367E+00
         21   -1    0    0  501  502  0.00000000000E+00  0.00000000000E+00  0.10334364925E+03  0.10334364925E+03  0.00000000000E+00 0. -1.
         -1   -1    0    0    0  501 -0.00000000000E+00 -0.00000000000E+00 -0.22509548422E+03  0.22509548422E+03  0.00000000000E+00 0.  1.
         23    2    1    2    0    0 -0.16540140345E+02  0.25775280482E+02 -0.16436305852E+03  0.19091174565E+03  0.92163649523E+02 0.  0.
         24    2    1    2    0    0 -0.21345221696E+01 -0.35212539171E+02  0.62494766256E+02  0.10866287429E+03  0.81593782477E+02 0.  0.
        -13    1    4    4    0    0  0.20573603600E+02 -0.52188201849E+02  0.24395750005E+02  0.61172168473E+02  0.00000000000E+00 0.  1.
         14    1    4    4    0    0 -0.22708125770E+02  0.16975662678E+02  0.38099016251E+02  0.47490705813E+02  0.00000000000E+00 0. -1.
        -13    1    3    3    0    0  0.23357866804E+02  0.16558436041E+02 -0.86578857712E+01  0.29912049943E+02  0.00000000000E+00 0.  1.
         13    1    3    3    0    0 -0.39898007149E+02  0.92168444414E+01 -0.15570517275E+03  0.16099969571E+03  0.00000000000E+00 0. -1.
         -2    1    1    2    0  502  0.18674662514E+02  0.94372586883E+01 -0.19883542697E+02  0.28864513538E+02  0.00000000000E+00 0.  1.
<scales pt_clust_5="13000.00000" pt_clust_6="13000.00000" pt_clust_7="13000.00000" pt_clust_8="13000.00000" pt_clust_9="20.92380"></scales>
<clustering>
<clus scale="   20.924">  1  9  2 -1</clus>
<clus scale="   81.594">  5  6 -1 -1</clus>
<clus scale="   87.096">  1  5  2 -1</clus>
<clus scale="   92.164">  7  8 -1 -1</clus>
<clus scale="   20.924">  1  5  2 -1</clus>
</clustering>
</event>
<event>
 9    2  0.1488992E-004  0.1004599E+03  0.7546771E-02  0.1288892E+00
          2   -1    0    0  502    0 -0.00000000000E+00  0.00000000000E+00  0.26056038205E+03  0.26056038205E+03  0.00000000000E+00 0. -1.
         21   -1    0    0  501  502  0.00000000000E+00 -0.00000000000E+00 -0.53048390040E+02  0.53048390040E+02  0.00000000000E+00 0.  1.
         24    2    1    2    0    0 -0.11048992873E+02 -0.33499307746E+02  0.10140811029E+03  0.12875150030E+03  0.71056738828E+02 0.  0.
         23    2    1    2    0    0  0.38232548301E+02  0.56420611509E+02  0.64247883895E+02  0.12993681653E+03  0.90059827634E+02 0.  0.
        -13    1    3    3    0    0  0.12896388417E+02 -0.30420639409E+02  0.99141928824E+02  0.10450289081E+03  0.00000000000E+00 0.  1.
         14    1    3    3    0    0 -0.23945381289E+02 -0.30786683376E+01  0.22661814699E+01  0.24248609491E+02  0.00000000000E+00 0. -1.
        -11    1    4    4    0    0  0.55574056245E+02  0.10016529901E+02  0.56344828480E+02  0.79771838986E+02  0.00000000000E+00 0.  1.
         11    1    4    4    0    0 -0.17341507943E+02  0.46404081608E+02  0.79030554155E+01  0.50164977549E+02  0.00000000000E+00 0. -1.
          1    1    1    2  501    0 -0.27183555429E+02 -0.22921303763E+02  0.41855997821E+02  0.54920455256E+02  0.00000000000E+00 0. -1.
<scales pt_clust_5="13000.00000" pt_clust_6="13000.00000" pt_clust_7="13000.00000" pt_clust_8="13000.00000" pt_clust_9="35.55746"></scales>
<clustering>
<clus scale="   35.557">  2  9  1 -1</clus>
<clus scale="   71.057">  5  6 -1 -1</clus>
<clus scale="   83.848">  1  5  2 -1</clus>
<clus scale="   90.060">  7  8 -1 -1</clus>
<clus scale="   35.557">  2  5  1 -1</clus>
</clustering>
</event>
<event>
 9    2  0.1488992E-004  0.1002737E+03  0.7546771E-02  0.1283013E+00
         21   -1    0    0  501  502  0.00000000000E+00  0.00000000000E+00  0.10481800748E+03  0.10481800748E+03  0.00000000000E+00 0. -1.
          2   -1    0    0  502    0 -0.00000000000E+00 -0.00000000000E+00 -0.42133145518E+03  0.42133145518E+03  0.00000000000E+00 0. -1.
         24    2    1    2    0    0 -0.46151418178E+02 -0.53862583590E+01 -0.91086325992E+02  0.13339551169E+03  0.85666087675E+02 0.  0.
         23    2    1    2    0    0  0.98290812904E+01 -0.54724107409E+02  0.42454819406E+02  0.11581839421E+03  0.92304658470E+02 0.  0.
        -13    1    3    3    0    0 -0.51410327030E+02 -0.13724315739E+02 -0.10419390995E+03  0.11699465560E+03  0.00000000000E+00 0.  1.
         14    1    3    3    0    0  0.52589088523E+01  0.83380573795E+01  0.13107583961E+02  0.16400856090E+02  0.00000000000E+00 0. -1.
        -13    1    4    4    0    0 -0.40772039555E+02 -0.17512332551E+02  0.23485685238E+02  0.50205760744E+02  0.00000000000E+00 0. -1.
         13    1    4    4    0    0  0.50601120845E+02 -0.37211774858E+02  0.18969134168E+02  0.65612633463E+02  0.00000000000E+00 0.  1.
          1    1    1    2  501    0  0.36322336887E+02  0.60110365768E+02 -0.26788194111E+03  0.27693555676E+03  0.00000000000E+00 0. -1.
<scales pt_clust_5="13000.00000" pt_clust_6="13000.00000" pt_clust_7="13000.00000" pt_clust_8="13000.00000" pt_clust_9="70.23228"></scales>
<clustering>
<clus scale="   70.232">  1  9  2 -1</clus>
<clus scale="   85.666">  5  6 -1 -1</clus>
<clus scale="   92.305">  7  8 -1 -1</clus>
<clus scale="   94.198">  2  5  1 -1</clus>
<clus scale="   70.232">  1  5  2 -1</clus>
</clustering>
</event>
<event>
 9    2  0.1488992E-004  0.1093832E+03  0.7546771E-02  0.1266251E+00
         21   -1    0    0  501  502  0.00000000000E+00  0.00000000000E+00  0.73191819387E+02  0.73191819387E+02  0.00000000000E+00 0. -1.
          2   -1    0    0  502    0 -0.00000000000E+00 -0.00000000000E+00 -0.47461610715E+03  0.47461610715E+03  0.00000000000E+00 0. -1.
         24    2    1    2    0    0 -0.20137160365E+02  0.73192488459E+02 -0.85785430602E+02  0.13975914016E+03  0.80067668638E+02 0.  0.
         23    2    1    2    0    0  0.77086067362E+01 -0.32993670861E+02 -0.82806030536E+01  0.97823851449E+02  0.91394379426E+02 0.  0.
        -13    1    3    3    0    0  0.16501480888E+02  0.28675550501E+02  0.37183585303E+01  0.33292825927E+02  0.00000000000E+00 0.  1.
         14    1    3    3    0    0 -0.36638641253E+02  0.44516937958E+02 -0.89503789133E+02  0.10646631424E+03  0.00000000000E+00 0. -1.
        -13    1    4    4    0    0  0.40954733922E+02 -0.23054972419E+02  0.21886237660E+02  0.51844280135E+02  0.00000000000E+00 0. -1.
         13    1    4    4    0    0 -0.33246127186E+02 -0.99386984421E+01 -0.30166840714E+02  0.45979571314E+02  0.00000000000E+00 0.  1.
          1    1    1    2  501    0  0.12428553629E+02 -0.40198817598E+02 -0.30735825411E+03  0.31022493493E+03  0.00000000000E+00 0. -1.
<scales pt_clust_5="13000.00000" pt_clust_6="13000.00000" pt_clust_7="13000.00000" pt_clust_8="13000.00000" pt_clust_9="42.07631"></scales>
<clustering>
<clus scale="   42.076">  1  9  2 -1</clus>
<clus scale="   80.068">  5  6 -1 -1</clus>
<clus scale="   91.394">  7  8 -1 -1</clus>
<clus scale="  100.113">  2  5  1 -1</clus>
<clus scale="   42.076">  1  5  2 -1</clus>
</clustering>
</event>
<event>
 9    2  0.1488992E-004  0.1442430E+03  0.7546771E-02  0.1209628E+00
         21   -1    0    0  501  502  0.00000000000E+00  0.00000000000E+00  0.11751693731E+03  0.11751693731E+03  0.00000000000E+00 0. -1.
         -1   -1    0    0    0  501 -0.00000000000E+00 -0.00000000000E+00 -0.44668165505E+03  0.44668165505E+03  0.00000000000E+00 0.  1.
         24    2    1    2    0    0  0.11295314761E+03  0.21093058100E+02 -0.32093405138E+03  0.35085324917E+03  0.83042196840E+02 0.  0.
         23    2    1    2    0    0 -0.96376917925E+02  0.43955704770E+02  0.17238145947E+02  0.14154859298E+03  0.92294291303E+02 0.  0.
        -11    1    3    3    0    0  0.68381446163E+02 -0.24537112221E+02 -0.12254435703E+03  0.14246126314E+03  0.00000000000E+00 0.  1.
         12    1    3    3    0    0  0.44571701451E+02  0.45630170321E+02 -0.19838969435E+03  0.20839198602E+03  0.00000000000E+00 0. -1.
        -13    1    4    4    0    0 -0.45412067249E+02  0.11470916059E+02 -0.37505257872E+02  0.60004017658E+02  0.00000000000E+00 0.  1.
         13    1    4    4    0    0 -0.50964850676E+02  0.32484788710E+02  0.54743403819E+02  0.81544575317E+02  0.00000000000E+00 0. -1.
         -2    1    1    2    0  502 -0.16576229690E+02 -0.65048762870E+02 -0.25468812305E+02  0.71796750218E+02  0.00000000000E+00 0.  1.
<scales pt_clust_5="13000.00000" pt_clust_6="13000.00000" pt_clust_7="13000.00000" pt_clust_8="13000.00000" pt_clust_9="67.12759"></scales>
<clustering>
<clus scale="   67.128">  1  9  2 -1</clus>
<clus scale="   83.042">  5  6 -1 -1</clus>
<clus scale="   92.294">  7  8 -1 -1</clus>
<clus scale="  138.506">  2  5  1 -1</clus>
<clus scale="   67.128">  1  5  2 -1</clus>
</clustering>
</event>
<event>
 9    2  0.1488992E-004  0.1682486E+03  0.7546771E-02  0.1190581E+00
         21   -1    0    0  501  502  0.00000000000E+00  0.00000000000E+00  0.29826657269E+03  0.29826657269E+03  0.00000000000E+00 0.  1.
          2   -1    0    0  502    0 -0.00000000000E+00 -0.00000000000E+00 -0.33374191611E+03  0.33374191611E+03  0.00000000000E+00 0. -1.
         24    2    1    2    0    0  0.96687692110E+02 -0.51180584017E+02 -0.87228783527E+01  0.13227580431E+03  0.73843332900E+02 0.  0.
         23    2    1    2    0    0  0.20637741735E+01 -0.13602373939E+03  0.15249575761E+03  0.22237508837E+03  0.87686983042E+02 0.  0.
        -13    1    3    3    0    0  0.54064387307E+02 -0.65697758493E+02  0.49237555138E+01  0.85225564323E+02  0.00000000000E+00 0.  1.
         14    1    3    3    0    0  0.42623304804E+02  0.14517174476E+02 -0.13646633867E+02  0.47050239989E+02  0.00000000000E+00 0. -1.
        -11    1    4    4    0    0  0.37166494500E+02 -0.10372292807E+03  0.12753110523E+03  0.16853479440E+03  0.00000000000E+00 0.  1.
         11    1    4    4    0    0 -0.35102720326E+02 -0.32300811318E+02  0.24964652380E+02  0.53840293968E+02  0.00000000000E+00 0. -1.
          1    1    1    2  501    0 -0.98751466284E+02  0.18720432340E+03 -0.17924822268E+03  0.27735759612E+03  0.00000000000E+00 0. -1.
<scales pt_clust_5="13000.00000" pt_clust_6="13000.00000" pt_clust_7="13000.00000" pt_clust_8="13000.00000" pt_clust_9="143.59174"></scales>
<clustering>
<clus scale="   73.843">  5  6 -1 -1</clus>
<clus scale="   87.687">  7  8 -1 -1</clus>
<clus scale="  131.988">  2  5  1 -1</clus>
<clus scale="  143.592">  1  9  2 -1</clus>
<clus scale="  143.592">  1  5  2 -1</clus>
</clustering>
</event>
<event>
 9    2  0.1488992E-004  0.2389781E+03  0.7546771E-02  0.1122015E+00
         21   -1    0    0  501  502  0.00000000000E+00  0.00000000000E+00  0.31962967697E+03  0.31962967697E+03  0.00000000000E+00 0. -1.
          2   -1    0    0  502    0 -0.00000000000E+00 -0.00000000000E+00 -0.13909070860E+04  0.13909070860E+04  0.00000000000E+00 0. -1.
         24    2    1    2    0    0  0.28051773855E+02  0.20724445701E+03 -0.92415967673E+03  0.95101228443E+03  0.81339351220E+02 0.  0.
         23    2    1    2    0    0 -0.54487026762E+01 -0.23194413517E+03 -0.41653953994E+03  0.48803031043E+03  0.10411832388E+03 0.  0.
        -13    1    3    3    0    0 -0.16821550298E+02  0.27392980000E+02 -0.70853234676E+02  0.77804375017E+02  0.00000000000E+00 0.  1.
         14    1    3    3    0    0  0.44873324153E+02  0.17985147701E+03 -0.85330644206E+03  0.87320790941E+03  0.00000000000E+00 0. -1.
        -11    1    4    4    0    0  0.23159921511E+02 -0.74725603085E+01 -0.70390716590E+02  0.74478682212E+02  0.00000000000E+00 0. -1.
         11    1    4    4    0    0 -0.28608624187E+02 -0.22447157486E+03 -0.34614882334E+03  0.41355162822E+03  0.00000000000E+00 0.  1.
          1    1    1    2  501    0 -0.22603071179E+02  0.24699678155E+02  0.26942180760E+03  0.27149416815E+03  0.00000000000E+00 0. -1.
<scales pt_clust_5="13000.00000" pt_clust_6="13000.00000" pt_clust_7="13000.00000" pt_clust_8="13000.00000" pt_clust_9="33.48093"></scales>
<clustering>
<clus scale="   33.481">  1  9  2 -1</clus>
<clus scale="   81.339">  5  6 -1 -1</clus>
<clus scale="  104.118">  7  8 -1 -1</clus>
<clus scale="  229.970">  2  5  1 -1</clus>
<clus scale="   33.481">  1  5  2 -1</clus>
</clustering>
</event>
<event>
 9    2  0.1488992E-004  0.2189116E+03  0.7546771E-02  0.1135534E+00
          2   -1    0    0  502    0 -0.00000000000E+00  0.00000000000E+00  0.18348272004E+04  0.18348272004E+04  0.00000000000E+00 0. -1.
         21   -1    0    0  501  502  0.00000000000E+00 -0.00000000000E+00 -0.45428262406E+02  0.45428262406E+02  0.00000000000E+00 0. -1.
         24    2    1    2    0    0 -0.13783353358E+03  0.14129496843E+03  0.11270888678E+04  0.11470894201E+04  0.80761815238E+02 0.  0.
         23    2    1    2    0    0  0.82932283370E+02 -0.19466428215E+03  0.55778283235E+03  0.60359608329E+03  0.91840063881E+02 0.  0.
        -11    1    3    3    0    0 -0.34024791142E+02  0.24864370833E+02  0.10459411171E+03  0.11276458466E+03  0.00000000000E+00 0.  1.
         12    1    3    3    0    0 -0.10380874244E+03  0.11643059760E+03  0.10224947561E+04  0.10343248355E+04  0.00000000000E+00 0. -1.
        -13    1    4    4    0    0  0.85247306379E+02 -0.97389607259E+02  0.37203428127E+03  0.39390524913E+03  0.00000000000E+00 0.  1.
         13    1    4    4    0    0 -0.23150230082E+01 -0.97274674894E+02  0.18574855108E+03  0.20969083417E+03  0.00000000000E+00 0. -1.
          1    1    1    2  501    0  0.54901250213E+02  0.53369313721E+02  0.10452723790E+03  0.12956995942E+03  0.00000000000E+00 0. -1.
<scales pt_clust_5="13000.00000" pt_clust_6="13000.00000" pt_clust_7="13000.00000" pt_clust_8="13000.00000" pt_clust_9="76.56651"></scales>
<clustering>
<clus scale="   76.567">  2  9  1 -1</clus>
<clus scale="   80.762">  5  6 -1 -1</clus>
<clus scale="   91.840">  7  8 -1 -1</clus>
<clus scale="  214.500">  1  5  2 -1</clus>
<clus scale="   76.567">  2  5  1 -1</clus>
</clustering>
</event>
<event>
 9    2  0.1577568E-004  0.2325714E+03  0.7546771E-02  0.1165411E+00
         -1   -1    0    0    0  501 -0.00000000000E+00  0.00000000000E+00  0.80174636177E+03  0.80174636177E+03  0.00000000000E+00 0.  1.
         21   -1    0    0  501  502  0.00000000000E+00 -0.00000000000E+00 -0.27359532114E+03  0.27359532114E+03  0.00000000000E+00 0. -1.
         24    2    1    2    0    0 -0.21040513426E+02  0.25702388245E+02  0.62469180426E+02  0.10805858909E+03  0.81675848365E+02 0.  0.
         23    2    1    2    0    0  0.16345274948E+03 -0.14244035061E+03 -0.17989068101E+03  0.29596133580E+03  0.90699505974E+02 0.  0.
        -13    1    3    3    0    0 -0.38833989392E+02 -0.12743652209E+02  0.12913636029E+02  0.42863054012E+02  0.00000000000E+00 0.  1.
         14    1    3    3    0    0  0.17793475966E+02  0.38446040454E+02  0.49555544397E+02  0.65195535078E+02  0.00000000000E+00 0. -1.
        -13    1    4    4    0    0  0.14356068832E+03 -0.69666061549E+02 -0.12185706197E+03  0.20077892050E+03  0.00000000000E+00 0.  1.
         13    1    4    4    0    0  0.19892061151E+02 -0.72774289056E+02 -0.58033619034E+02  0.95182415301E+02  0.00000000000E+00 0. -1.
         -2    1    1    2    0  502 -0.14241223605E+03  0.11673796236E+03  0.64557254121E+03  0.67132175802E+03  0.00000000000E+00 0.  1.
<scales pt_clust_5="13000.00000" pt_clust_6="13000.00000" pt_clust_7="13000.00000" pt_clust_8="13000.00000" pt_clust_9="214.15673"></scales>
<clustering>
<clus scale="   81.676">  5  6 -1 -1</clus>
<clus scale="   88.172">  1  5  2 -1</clus>
<clus scale="   90.700">  7  8 -1 -1</clus>
<clus scale="  214.157">  2  9  1 -1</clus>
<clus scale="  214.157">  2  5  1 -1</clus>
</clustering>
</event>
<event>
 9    2  0.1488992E-004  0.1951799E+03  0.7546771E-02  0.1154804E+00
         21   -1    0    0  501  502  0.00000000000E+00  0.00000000000E+00  0.22135239108E+03  0.22135239108E+03  0.00000000000E+00 0.  1.
          2   -1    0    0  502    0 -0.00000000000E+00 -0.00000000000E+00 -0.62685549255E+03  0.62685549255E+03  0.00000000000E+00 0. -1.
         23    2    1    2    0    0  0.13377659670E+02  0.14674740287E+03 -0.48744413916E+02  0.17936383952E+03  0.89897758654E+02 0.  0.
         24    2    1    2    0    0  0.12930712982E+03 -0.22030759706E+03  0.10559312996E+02  0.26797927283E+03  0.80284621392E+02 0.  0.
        -11    1    4    4    0    0  0.64928703787E+02 -0.17551751405E+03  0.23078702714E+02  0.18855970098E+03  0.00000000000E+00 0.  1.
         12    1    4    4    0    0  0.64378426037E+02 -0.44790083012E+02 -0.12519389718E+02  0.79419571858E+02  0.00000000000E+00 0. -1.
        -13    1    3    3    0    0  0.49550258262E+02  0.55288606363E+02 -0.19691458129E+02  0.76810231159E+02  0.00000000000E+00 0.  1.
         13    1    3    3    0    0 -0.36172598592E+02  0.91458796506E+02 -0.29052955786E+02  0.10255360836E+03  0.00000000000E+00 0. -1.
          1    1    1    2  501    0 -0.14268478949E+03  0.73560194192E+02 -0.36731800055E+03  0.40086477128E+03  0.00000000000E+00 0. -1.
<scales pt_clust_5="13000.00000" pt_clust_6="13000.00000" pt_clust_7="13000.00000" pt_clust_8="13000.00000" pt_clust_9="160.53061"></scales>
<clustering>
<clus scale="   80.285">  5  6 -1 -1</clus>
<clus scale="   89.898">  7  8 -1 -1</clus>
<clus scale="  160.531">  1  9  2 -1</clus>
<clus scale="  190.943">  1  5  2 -1</clus>
<clus scale="  160.531">  1  5  2 -1</clus>
</clustering>
</event>
<event>
 9    2  0.1488992E-004  0.2272103E+03  0.7546771E-02  0.1129789E+00
         21   -1    0    0  501  502  0.00000000000E+00  0.00000000000E+00  0.29787266585E+03  0.29787266585E+03  0.00000000000E+00 0. -1.
          2   -1    0    0  502    0 -0.00000000000E+00 -0.00000000000E+00 -0.35370552088E+03  0.35370552088E+03  0.00000000000E+00 0. -1.
         24    2    1    2    0    0  0.19624342538E+01  0.18868316012E+03 -0.80584400858E+02  0.21932940811E+03  0.77500693808E+02 0.  0.
         23    2    1    2    0    0 -0.96528708563E+02 -0.21938568454E+03 -0.96848238793E+02  0.27517576101E+03  0.94309320492E+02 0.  0.
        -13    1    3    3    0    0  0.27883282118E+02  0.13467674449E+03 -0.29637763002E+02  0.14069008467E+03  0.00000000000E+00 0.  1.
         14    1    3    3    0    0 -0.25920847864E+02  0.54006415629E+02 -0.50946637856E+02  0.78639323445E+02  0.00000000000E+00 0. -1.
        -13    1    4    4    0    0 -0.13715600035E+02 -0.12292207941E+03 -0.79081915947E+02  0.14680566992E+03  0.00000000000E+00 0.  1.
         13    1    4    4    0    0 -0.82813108528E+02 -0.96463605136E+02 -0.17766322846E+02  0.12837009109E+03  0.00000000000E+00 0. -1.
          1    1    1    2  501    0  0.94566274309E+02  0.30702524427E+02  0.12159978462E+03  0.15707301761E+03  0.00000000000E+00 0. -1.
<scales pt_clust_5="13000.00000" pt_clust_6="13000.00000" pt_clust_7="13000.00000" pt_clust_8="13000.00000" pt_clust_9="99.42548"></scales>
<clustering>
<clus scale="   77.501">  5  6 -1 -1</clus>
<clus scale="   94.309">  7  8 -1 -1</clus>
<clus scale="   99.425">  1  9  2 -1</clus>
<clus scale="  220.764">  2  5  1 -1</clus>
<clus scale="   99.425">  1  5  2 -1</clus>
</clustering>
</event>
<event>
 9    2  0.1488992E-004  0.2036570E+03  0.7546771E-02  0.1147847E+00
         21   -1    0    0  501  502  0.00000000000E+00  0.00000000000E+00  0.84268035561E+02  0.84268035561E+02  0.00000000000E+00 0.  1.
          2   -1    0    0  502    0 -0.00000000000E+00 -0.00000000000E+00 -0.62003348707E+03  0.62003348707E+03  0.00000000000E+00 0. -1.
         24    2    1    2    0    0  0.19299339166E+03  0.47452152987E+01 -0.30282804507E+03  0.36770548280E+03  0.78952713105E+02 0.  0.
         23    2    1    2    0    0 -0.16987947463E+03 -0.48793652975E+01 -0.24377060406E+03  0.31106900853E+03  0.91961821207E+02 0.  0.
        -11    1    3    3    0    0  0.79665425764E+02  0.29892586367E+02 -0.17770704820E+03  0.19702776901E+03  0.00000000000E+00 0.  1.
         12    1    3    3    0    0  0.11332796590E+03 -0.25147371068E+02 -0.12512099687E+03  0.17067771379E+03  0.00000000000E+00 0. -1.
        -11    1    4    4    0    0 -0.13350673789E+03 -0.28352667234E+02 -0.22653807105E+03  0.26447574640E+03  0.00000000000E+00 0. -1.
         11    1    4    4    0    0 -0.36372736741E+02  0.23473301936E+02 -0.17232533009E+02  0.46593262128E+02  0.00000000000E+00 0.  1.
          1    1    1    2  501    0 -0.23113917032E+02  0.13414999885E+00  0.10833197615E+02  0.25527031307E+02  0.00000000000E+00 0. -1.
<scales pt_clust_5="13000.00000" pt_clust_6="13000.00000" pt_clust_7="13000.00000" pt_clust_8="13000.00000" pt_clust_9="23.11431"></scales>
<clustering>
<clus scale="   23.114">  1  9  2 -1</clus>
<clus scale="   78.953">  5  6 -1 -1</clus>
<clus scale="   91.962">  7  8 -1 -1</clus>
<clus scale="  198.123">  2  5  1 -1</clus>
<clus scale="   23.114">  1  5  2 -1</clus>
</clustering>
</event>
<event>
 9    2  0.1488992E-004  0.1162620E+03  0.7546771E-02  0.1259152E+00
         21   -1    0    0  501  502  0.00000000000E+00  0.00000000000E+00  0.36180939512E+03  0.36180939512E+03  0.00000000000E+00 0. -1.
         -1   -1    0    0    0  501 -0.00000000000E+00 -0.00000000000E+00 -0.13129883854E+03  0.13129883854E+03  0.00000000000E+00 0.  1.
         24    2    1    2    0    0 -0.38464459877E+02  0.97852589026E+01 -0.47024506773E+02  0.10339526415E+03  0.83090375173E+02 0.  0.
         23    2    1    2    0    0  0.12641680855E+03 -0.53381310609E+01  0.24582466909E+03  0.29611306733E+03  0.10603525633E+03 0.  0.
        -13    1    3    3    0    0 -0.60429378919E+02  0.17274207357E+02 -0.49575490266E+02  0.80048968210E+02  0.00000000000E+00 0.  1.
         14    1    3    3    0    0  0.21964919041E+02 -0.74889484539E+01  0.25509834931E+01  0.23346295942E+02  0.00000000000E+00 0. -1.
        -11    1    4    4    0    0  0.40976111912E+02 -0.47745195549E+02  0.58551791650E+02  0.85947412706E+02  0.00000000000E+00 0.  1.
         11    1    4    4    0    0  0.85440696635E+02  0.42407064488E+02  0.18727287744E+03  0.21016565463E+03  0.00000000000E+00 0. -1.
         -2    1    1    2    0  502 -0.87952348670E+02 -0.44471278417E+01  0.31710394265E+02  0.93599902174E+02  0.00000000000E+00 0.  1.
<scales pt_clust_5="13000.00000" pt_clust_6="13000.00000" pt_clust_7="13000.00000" pt_clust_8="13000.00000" pt_clust_9="88.06475"></scales>
<clustering>
<clus scale="   83.090">  5  6 -1 -1</clus>
<clus scale="   88.065">  1  9  2 -1</clus>
<clus scale="   95.799">  2  5  1 -1</clus>
<clus scale="  106.035">  7  8 -1 -1</clus>
<clus scale="   88.065">  1  5  2 -1</clus>
</clustering>
</event>
<event>
 9    2  0.1488992E-004  0.1374923E+03  0.7546771E-02  0.1218473E+00
          4   -1    0    0  502    0 -0.00000000000E+00  0.00000000000E+00  0.14854974126E+03  0.14854974126E+03  0.00000000000E+00 0. -1.
         21   -1    0    0  501  502  0.00000000000E+00 -0.00000000000E+00 -0.24516674863E+03  0.24516674863E+03  0.00000000000E+00 0. -1.
         24    2    1    2    0    0  0.11663284711E+03  0.21866613970E+02  0.34000306043E+02  0.14878695863E+03  0.83067252359E+02 0.  0.
         23    2    1    2    0    0 -0.66211957990E+02 -0.60027753389E+02 -0.38205837033E+02  0.13295444659E+03  0.90718489443E+02 0.  0.
        -13    1    3    3    0    0  0.15149710900E+02 -0.26366595794E+02  0.17874855203E+02  0.35273524953E+02  0.00000000000E+00 0.  1.
         14    1    3    3    0    0  0.10148313621E+03  0.48233209763E+02  0.16125450840E+02  0.11351343367E+03  0.00000000000E+00 0. -1.
        -11    1    4    4    0    0 -0.15929943419E+02  0.18415434420E+02 -0.31114872618E+02  0.39509829413E+02  0.00000000000E+00 0.  1.
         11    1    4    4    0    0 -0.50282014570E+02 -0.78443187809E+02 -0.70909644153E+01  0.93444617176E+02  0.00000000000E+00 0. -1.
          3    1    1    2  501    0 -0.50420889123E+02  0.38161139420E+02 -0.92411476374E+02  0.11197508467E+03  0.00000000000E+00 0. -1.
<scales pt_clust_5="13000.00000" pt_clust_6="13000.00000" pt_clust_7="13000.00000" pt_clust_8="13000.00000" pt_clust_9="63.23400"></scales>
<clustering>
<clus scale="   63.234">  2  9  1 -1</clus>
<clus scale="   83.067">  5  6 -1 -1</clus>
<clus scale="   90.718">  7  8 -1 -1</clus>
<clus scale="  132.569">  1  5  2 -1</clus>
<clus scale="   63.234">  2  5  1 -1</clus>
</clustering>
</event>
<event>
 9    2  0.1488992E-004  0.1232145E+03  0.7546771E-02  0.1237988E+00
         -3   -1    0    0    0  501 -0.00000000000E+00  0.00000000000E+00  0.18324140360E+03  0.18324140360E+03  0.00000000000E+00 0.  1.
         21   -1    0    0  501  502  0.00000000000E+00 -0.00000000000E+00 -0.48205596313E+03  0.48205596313E+03  0.00000000000E+00 0.  1.
         23    2    1    2    0    0 -0.72073444389E+02 -0.25901745840E+02  0.76092696062E+02  0.14342298064E+03  0.94417006725E+02 0.  0.
         24    2    1    2    0    0  0.12040689694E+03 -0.53042612872E+01 -0.42116023383E+03  0.44805517779E+03  0.94082643301E+02 0.  0.
        -11    1    4    4    0    0  0.83249932697E+02 -0.19389350282E+02 -0.13949844039E+03  0.16360413525E+03  0.00000000000E+00 0.  1.
         12    1    4    4    0    0  0.37156964247E+02  0.14085088994E+02 -0.28166179344E+03  0.28445104255E+03  0.00000000000E+00 0. -1.
        -13    1    3    3    0    0 -0.77519725266E+02  0.13854374736E+02  0.64109552673E+02  0.10154450378E+03  0.00000000000E+00 0.  1.
         13    1    3    3    0    0  0.54462808766E+01 -0.39756120576E+02  0.11983143389E+02  0.41878476860E+02  0.00000000000E+00 0. -1.
         -4    1    1    2    0  502 -0.48333452554E+02  0.31206007127E+02  0.46252978242E+02  0.73819208292E+02  0.00000000000E+00 0.  1.
<scales pt_clust_5="13000.00000" pt_clust_6="13000.00000" pt_clust_7="13000.00000" pt_clust_8="13000.00000" pt_clust_9="57.53209"></scales>
<clustering>
<clus scale="   57.532">  2  9  1 -1</clus>
<clus scale="   94.083">  5  6 -1 -1</clus>
<clus scale="   94.417">  7  8 -1 -1</clus>
<clus scale="  122.959">  2  5  1 -1</clus>
<clus scale="   57.532">  2  5  1 -1</clus>
</clustering>
</event>
<event>
 9    2  0.1488992E-004  0.1608214E+03  0.7546771E-02  0.1199697E+00
         21   -1    0    0  501  502  0.00000000000E+00  0.00000000000E+00  0.87362398516E+02  0.87362398516E+02  0.00000000000E+00 0. -1.
          2   -1    0    0  502    0 -0.00000000000E+00 -0.00000000000E+00 -0.12530548121E+04  0.12530548121E+04  0.00000000000E+00 0. -1.
         24    2    1    2    0    0 -0.84828943240E+02  0.50006026964E+02 -0.19833146663E+03  0.23378864935E+03  0.75001397095E+02 0.  0.
         23    2    1    2    0    0 -0.37146948287E+02 -0.13009300439E+03 -0.39442247142E+02  0.16730691479E+03  0.90176645098E+02 0.  0.
        -13    1    3    3    0    0 -0.80915077752E+01  0.41206571733E+02 -0.10205888504E+03  0.11036063640E+03  0.00000000000E+00 0.  1.
         14    1    3    3    0    0 -0.76737435464E+02  0.87994552308E+01 -0.96272581589E+02  0.12342801295E+03  0.00000000000E+00 0. -1.
        -11    1    4    4    0    0  0.19952459130E+02 -0.65719976186E+02  0.78336461437E+01  0.69127287717E+02  0.00000000000E+00 0. -1.
         11    1    4    4    0    0 -0.57099407417E+02 -0.64373028200E+02 -0.47275893286E+02  0.98179627077E+02  0.00000000000E+00 0.  1.
          1    1    1    2  501    0  0.12197589153E+03  0.80086977422E+02 -0.92791869983E+03  0.93932164648E+03  0.00000000000E+00 0. -1.
<scales pt_clust_5="13000.00000" pt_clust_6="13000.00000" pt_clust_7="13000.00000" pt_clust_8="13000.00000" pt_clust_9="133.16045"></scales>
<clustering>
<clus scale="   75.001">  5  6 -1 -1</clus>
<clus scale="   90.177">  7  8 -1 -1</clus>
<clus scale="  123.781">  2  5  1 -1</clus>
<clus scale="  133.160">  1  9  2 -1</clus>
<clus scale="  133.160">  1  5  2 -1</clus>
</clustering>
</event>
<event>
 9    2  0.1488992E-004  0.9591650E+02  0.7546771E-02  0.1294616E+00
         21   -1    0    0  501  502  0.00000000000E+00  0.00000000000E+00  0.22695531103E+03  0.22695531103E+03  0.00000000000E+00 0.  1.
          2   -1    0    0  502    0 -0.00000000000E+00 -0.00000000000E+00 -0.19954752297E+03  0.19954752297E+03  0.00000000000E+00 0. -1.
         23    2    1    2    0    0  0.34472153741E+02 -0.10010771194E+02 -0.65874500376E+02  0.11780587435E+03  0.90830772912E+02 0.  0.
         24    2    1    2    0    0  0.30563976502E+02  0.57346380658E+02  0.16894385818E+03  0.19826584403E+03  0.80898415650E+02 0.  0.
        -13    1    4    4    0    0 -0.19416577177E+02  0.46310016193E+02  0.62656178336E+02  0.80295814043E+02  0.00000000000E+00 0.  1.
         14    1    4    4    0    0  0.49980553679E+02  0.11036364464E+02  0.10628767985E+03  0.11797002998E+03  0.00000000000E+00 0. -1.
        -13    1    3    3    0    0  0.63525946721E+02 -0.14691647589E+02 -0.58185313180E+02  0.87389479261E+02  0.00000000000E+00 0. -1.
         13    1    3    3    0    0 -0.29053792980E+02  0.46808763951E+01 -0.76891871960E+01  0.30416395087E+02  0.00000000000E+00 0.  1.
          1    1    1    2  501    0 -0.65036130243E+02 -0.47335609463E+02 -0.75661569751E+02  0.11043111562E+03  0.00000000000E+00 0. -1.
<scales pt_clust_5="13000.00000" pt_clust_6="13000.00000" pt_clust_7="13000.00000" pt_clust_8="13000.00000" pt_clust_9="80.43858"></scales>
<clustering>
<clus scale="   80.439">  1  9  2 -1</clus>
<clus scale="   80.898">  5  6 -1 -1</clus>
<clus scale="   86.570">  1  5  2 -1</clus>
<clus scale="   90.831">  7  8 -1 -1</clus>
<clus scale="   80.439">  1  5  2 -1</clus>
</clustering>
</event>
<event>
 9    2  0.1488992E-004  0.1221721E+03  0.7546771E-02  0.1240780E+00
         21   -1    0    0  501  502  0.00000000000E+00  0.00000000000E+00  0.58805840827E+03  0.58805840827E+03  0.00000000000E+00 0.  1.
          4   -1    0    0  502    0 -0.00000000000E+00 -0.00000000000E+00 -0.37633986349E+02  0.37633986349E+02  0.00000000000E+00 0. -1.
         23    2    1    2    0    0 -0.21138292732E+02 -0.72516476063E+02  0.23525942616E+03  0.26255388017E+03  0.88781054713E+02 0.  0.
         24    2    1    2    0    0  0.40396642751E+02  0.86556763171E+02  0.31438331974E+03  0.33929266103E+03  0.84608959943E+02 0.  0.
        -13    1    4    4    0    0  0.43698537511E+02  0.95010499442E+02  0.31312891213E+03  0.33013069048E+03  0.00000000000E+00 0.  1.
         14    1    4    4    0    0 -0.33018947596E+01 -0.84537362710E+01  0.12544076103E+01  0.91619705520E+01  0.00000000000E+00 0. -1.
        -13    1    3    3    0    0  0.31377639248E+02 -0.49043044890E+02  0.10278065278E+03  0.11812552257E+03  0.00000000000E+00 0. -1.
         13    1    3    3    0    0 -0.52515931981E+02 -0.23473431172E+02  0.13247877338E+03  0.14442835760E+03  0.00000000000E+00 0.  1.
          3    1    1    2  501    0 -0.19258350019E+02 -0.14040287108E+02  0.78167601613E+00  0.23845853412E+02  0.00000000000E+00 0. -1.
<scales pt_clust_5="13000.00000" pt_clust_6="13000.00000" pt_clust_7="13000.00000" pt_clust_8="13000.00000" pt_clust_9="23.83305"></scales>
<clustering>
<clus scale="   23.833">  1  9  2 -1</clus>
<clus scale="   84.609">  5  6 -1 -1</clus>
<clus scale="   88.781">  7  8 -1 -1</clus>
<clus scale="  119.175">  1  5  2 -1</clus>
<clus scale="   23.833">  1  5  2 -1</clus>
</clustering>
</event>
<event>
 9    2  0.1488992E-004  0.4064763E+03  0.7546771E-02  0.1046579E+00
          2   -1    0    0  502    0 -0.00000000000E+00  0.00000000000E+00  0.99991610510E+03  0.99991610510E+03  0.00000000000E+00 0. -1.
         21   -1    0    0  501  502  0.00000000000E+00 -0.00000000000E+00 -0.87444957790E+03  0.87444957790E+03  0.00000000000E+00 0. -1.
         24    2    1    2    0    0 -0.30004172163E+03 -0.16451038379E+03  0.12693063745E+02  0.35188572425E+03  0.81078652980E+02 0.  0.
         23    2    1    2    0    0  0.97872437958E+02 -0.37588254199E+03 -0.52701393908E+03  0.66095523250E+03  0.90837370668E+02 0.  0.
        -13    1    3    3    0    0 -0.18139520277E+03 -0.78290194847E+02 -0.28331454821E+02  0.19959019397E+03  0.00000000000E+00 0.  1.
         14    1    3    3    0    0 -0.11864651886E+03 -0.86220188943E+02  0.41024518565E+02  0.15229553028E+03  0.00000000000E+00 0. -1.
        -11    1    4    4    0    0  0.40758050932E+02 -0.30375078800E+03 -0.39229041721E+03  0.49781274728E+03  0.00000000000E+00 0. -1.
         11    1    4    4    0    0  0.57114387026E+02 -0.72131753991E+02 -0.13472352187E+03  0.16314248522E+03  0.00000000000E+00 0.  1.
          1    1    1    2  501    0  0.20216928367E+03  0.54039292578E+03  0.63978740253E+03  0.86152472625E+03  0.00000000000E+00 0. -1.
<scales pt_clust_5="13000.00000" pt_clust_6="13000.00000" pt_clust_7="13000.00000" pt_clust_8="13000.00000" pt_clust_9="396.19651"></scales>
<clustering>
<clus scale="   81.079">  5  6 -1 -1</clus>
<clus scale="   90.837">  7  8 -1 -1</clus>
<clus scale="  351.657">  1  5  2 -1</clus>
<clus scale="  396.197">  2  9  1 -1</clus>
<clus scale="  396.197">  2  5  1 -1</clus>
</clustering>
</event>
<event>
 9    2  0.1488992E-004  0.1426076E+03  0.7546771E-02  0.1237991E+00
         21   -1    0    0  501  502  0.00000000000E+00  0.00000000000E+00  0.76789247167E+02  0.76789247167E+02  0.00000000000E+00 0. -1.
          2   -1    0    0  502    0 -0.00000000000E+00 -0.00000000000E+00 -0.37369312629E+03  0.37369312629E+03  0.00000000000E+00 0. -1.
         24    2    1    2    0    0  0.23749939216E+02  0.30777650303E+01 -0.10421276089E+03  0.13095550379E+03  0.75601006542E+02 0.  0.
         23    2    1    2    0    0 -0.16237658875E+01 -0.11093260960E+03 -0.92645927806E+02  0.17076102960E+03  0.90925138454E+02 0.  0.
        -13    1    3    3    0    0  0.34010385293E+02  0.10199752389E+02 -0.11379569317E+02  0.37285866685E+02  0.00000000000E+00 0.  1.
         14    1    3    3    0    0 -0.10260446078E+02 -0.71219873584E+01 -0.92833191575E+02  0.93669637106E+02  0.00000000000E+00 0. -1.
        -11    1    4    4    0    0 -0.31113619909E+01 -0.89724024130E+02 -0.11093814991E+03  0.14271423960E+03  0.00000000000E+00 0.  1.
         11    1    4    4    0    0  0.14875961035E+01 -0.21208585469E+02  0.18292222103E+02  0.28046789999E+02  0.00000000000E+00 0. -1.
          1    1    1    2  501    0 -0.22126173328E+02  0.10785484457E+03 -0.10004519043E+03  0.14876584007E+03  0.00000000000E+00 0. -1.
<scales pt_clust_5="13000.00000" pt_clust_6="13000.00000" pt_clust_7="13000.00000" pt_clust_8="13000.00000" pt_clust_9="109.86149"></scales>
<clustering>
<clus scale="   75.601">  5  6 -1 -1</clus>
<clus scale="   79.303">  2  5  1 -1</clus>
<clus scale="   90.925">  7  8 -1 -1</clus>
<clus scale="  109.861">  1  9  2 -1</clus>
<clus scale="  109.861">  1  5  2 -1</clus>
</clustering>
</event>
<event>
 9    2  0.1488992E-004  0.2766468E+03  0.7546771E-02  0.1097710E+00
          4   -1    0    0  502    0 -0.00000000000E+00  0.00000000000E+00  0.14199993400E+03  0.14199993400E+03  0.00000000000E+00 0. -1.
         21   -1    0    0  501  502  0.00000000000E+00 -0.00000000000E+00 -0.91951992050E+03  0.91951992050E+03  0.00000000000E+00 0. -1.
         24    2    1    2    0    0  0.23018359513E+03 -0.12716538816E+03 -0.21381222829E+03  0.34852641086E+03  0.81237101652E+02 0.  0.
         23    2    1    2    0    0 -0.28326705264E+03  0.12695707397E+01 -0.33848805552E+03  0.44957073243E+03  0.85427424213E+02 0.  0.
        -11    1    3    3    0    0  0.15827169834E+03 -0.75172678255E+02 -0.92240296800E+02  0.19801296525E+03  0.00000000000E+00 0.  1.
         12    1    3    3    0    0  0.71911896793E+02 -0.51992709902E+02 -0.12157193149E+03  0.15051344561E+03  0.00000000000E+00 0. -1.
        -11    1    4    4    0    0 -0.20425068056E+03 -0.37273899747E+02 -0.22791652343E+03  0.30830768035E+03  0.00000000000E+00 0. -1.
         11    1    4    4    0    0 -0.79016372075E+02  0.38543470486E+02 -0.11057153210E+03  0.14126305208E+03  0.00000000000E+00 0.  1.
          3    1    1    2  501    0  0.53083457501E+02  0.12589581742E+03 -0.22521970269E+03  0.26342271121E+03  0.00000000000E+00 0. -1.
<scales pt_clust_5="13000.00000" pt_clust_6="13000.00000" pt_clust_7="13000.00000" pt_clust_8="13000.00000" pt_clust_9="136.62946"></scales>
<clustering>
<clus scale="   81.237">  5  6 -1 -1</clus>
<clus scale="   85.427">  7  8 -1 -1</clus>
<clus scale="  136.629">  2  9  1 -1</clus>
<clus scale="  275.382">  1  5  2 -1</clus>
<clus scale="  136.629">  2  5  1 -1</clus>
</clustering>
</event>
<event>
 9    2  0.1488992E-004  0.1208921E+03  0.7546771E-02  0.1242500E+00
          2   -1    0    0  502    0 -0.00000000000E+00  0.00000000000E+00  0.41005836430E+03  0.41005836430E+03  0.00000000000E+00 0. -1.
         21   -1    0    0  501  502  0.00000000000E+00 -0.00000000000E+00 -0.10310003995E+03  0.10310003995E+03  0.00000000000E+00 0. -1.
         23    2    1    2    0    0 -0.55989287564E+02  0.78130031394E+02  0.34340792540E+03  0.36557561875E+03  0.80482468120E+02 0.  0.
         24    2    1    2    0    0  0.19440016983E+02 -0.59503795018E+02 -0.12920497484E+02  0.10029214608E+03  0.77284923678E+02 0.  0.
        -13    1    4    4    0    0  0.36412537793E+02 -0.47358925177E+02 -0.35543248056E+02  0.69513043272E+02  0.00000000000E+00 0.  1.
         14    1    4    4    0    0 -0.16972520811E+02 -0.12144869840E+02  0.22622750572E+02  0.30779102806E+02  0.00000000000E+00 0. -1.
        -11    1    3    3    0    0 -0.89795312973E+01  0.72025701350E+02  0.25659370105E+03  0.26666207277E+03  0.00000000000E+00 0.  1.
         11    1    3    3    0    0 -0.47009756267E+02  0.61043300438E+01  0.86814224345E+02  0.98913545979E+02  0.00000000000E+00 0. -1.
          1    1    1    2  501    0  0.36549270581E+02 -0.18626236376E+02 -0.23529103566E+02  0.47290639414E+02  0.00000000000E+00 0. -1.
<scales pt_clust_5="13000.00000" pt_clust_6="13000.00000" pt_clust_7="13000.00000" pt_clust_8="13000.00000" pt_clust_9="41.02177"></scales>
<clustering>
<clus scale="   41.022">  2  9  1 -1</clus>
<clus scale="   77.285">  5  6 -1 -1</clus>
<clus scale="   80.482">  7  8 -1 -1</clus>
<clus scale="  118.787">  2  5  1 -1</clus>
<clus scale="   41.022">  2  5  1 -1</clus>
</clustering>
</event>
<event>
 9    2  0.1488992E-004  0.1369124E+03  0.7546771E-02  0.1233351E+00
          2   -1    0    0  502    0 -0.00000000000E+00  0.00000000000E+00  0.68074393374E+03  0.68074393374E+03  0.00000000000E+00 0. -1.
         21   -1    0    0  501  502  0.00000000000E+00 -0.00000000000E+00 -0.71723781172E+02  0.71723781172E+02  0.00000000000E+00 0. -1.
         23    2    1    2    0    0 -0.39431488720E+02  0.64155786132E+01  0.11980700858E+03  0.15512533771E+03  0.90078572060E+02 0.  0.
         24    2    1    2    0    0  0.55453294096E+02  0.10273410906E+03  0.46249261603E+03  0.48383317413E+03  0.81029349734E+02 0.  0.
        -13    1    4    4    0    0  0.46196613273E+02  0.61845372319E+02  0.15155487763E+03  0.17008191582E+03  0.00000000000E+00 0.  1.
         14    1    4    4    0    0  0.92566808231E+01  0.40888736738E+02  0.31093773840E+03  0.31375125831E+03  0.00000000000E+00 0. -1.
        -13    1    3    3    0    0 -0.48242034876E+02  0.38562871721E+02  0.57111178571E+02  0.84119413467E+02  0.00000000000E+00 0. -1.
         13    1    3    3    0    0  0.88105461557E+01 -0.32147293107E+02  0.62695830004E+02  0.71005924243E+02  0.00000000000E+00 0.  1.
          1    1    1    2  501    0 -0.16021805377E+02 -0.10914968767E+03  0.26720527957E+02  0.11350920306E+03  0.00000000000E+00 0. -1.
<scales pt_clust_5="13000.00000" pt_clust_6="13000.00000" pt_clust_7="13000.00000" pt_clust_8="13000.00000" pt_clust_9="110.35967"></scales>
<clustering>
<clus scale="   81.029">  5  6 -1 -1</clus>
<clus scale="   90.079">  7  8 -1 -1</clus>
<clus scale="   98.540">  1  7  2 -1</clus>
<clus scale="  110.360">  2  9  1 -1</clus>
<clus scale="  110.360">  2  5  1 -1</clus>
</clustering>
</event>
<event>
 9    2  0.1488992E-004  0.1342393E+03  0.7546771E-02  0.1238807E+00
         21   -1    0    0  501  502  0.00000000000E+00  0.00000000000E+00  0.48618522153E+03  0.48618522153E+03  0.00000000000E+00 0. -1.
          2   -1    0    0  502    0 -0.00000000000E+00 -0.00000000000E+00 -0.77076937682E+02  0.77076937682E+02  0.00000000000E+00 0. -1.
         23    2    1    2    0    0  0.14566592125E+02  0.85613912797E+00  0.24529635696E+02  0.96676139012E+02  0.92366954300E+02 0.  0.
         24    2    1    2    0    0 -0.82550957812E+02  0.74111308156E+02  0.31569808480E+03  0.34416656040E+03  0.80487228296E+02 0.  0.
        -13    1    4    4    0    0 -0.23765043404E+02 -0.16026107526E+02  0.82457962200E+02  0.87297932052E+02  0.00000000000E+00 0.  1.
         14    1    4    4    0    0 -0.58785914408E+02  0.90137415682E+02  0.23324012260E+03  0.25686862834E+03  0.00000000000E+00 0. -1.
        -13    1    3    3    0    0  0.16454551787E+02  0.31687316743E+02 -0.21175533233E+02  0.41511944360E+02  0.00000000000E+00 0.  1.
         13    1    3    3    0    0 -0.18879596611E+01 -0.30831177615E+02  0.45705168929E+02  0.55164194652E+02  0.00000000000E+00 0. -1.
          1    1    1    2  501    0  0.67984365687E+02 -0.74967447284E+02  0.68880563353E+02  0.12241945980E+03  0.00000000000E+00 0. -1.
<scales pt_clust_5="13000.00000" pt_clust_6="13000.00000" pt_clust_7="13000.00000" pt_clust_8="13000.00000" pt_clust_9="107.43368"></scales>
<clustering>
<clus scale="   80.487">  5  6 -1 -1</clus>
<clus scale="   92.367">  7  8 -1 -1</clus>
<clus scale="   93.512">  2  7  1 -1</clus>
<clus scale="  107.434">  1  9  2 -1</clus>
<clus scale="  107.434">  1  5  2 -1</clus>
</clustering>
</event>
<event>
 9    2  0.1488992E-004  0.1226056E+03  0.7546771E-02  0.1253689E+00
          2   -1    0    0  502    0 -0.00000000000E+00  0.00000000000E+00  0.92688952945E+03  0.92688952945E+03  0.00000000000E+00 0. -1.
         21   -1    0    0  501  502  0.00000000000E+00 -0.00000000000E+00 -0.26549177802E+02  0.26549177802E+02  0.00000000000E+00 0.  1.
         23    2    1    2    0    0  0.54136645168E+01 -0.21431839186E+01  0.17711927679E+03  0.19912991916E+03  0.90816218218E+02 0.  0.
         24    2    1    2    0    0  0.45566678627E+02 -0.76039844769E+02  0.39015266254E+03  0.40840974408E+03  0.81981941824E+02 0.  0.
        -11    1    4    4    0    0  0.62518435337E+02 -0.27497678972E+02  0.19576502111E+03  0.20733697354E+03  0.00000000000E+00 0.  1.
         12    1    4    4    0    0 -0.16951756710E+02 -0.48542165797E+02  0.19438764143E+03  0.20107277055E+03  0.00000000000E+00 0. -1.
        -13    1    3    3    0    0  0.17390307452E+02  0.31166422165E+02  0.26620296559E+02  0.44524250165E+02  0.00000000000E+00 0.  1.
         13    1    3    3    0    0 -0.11976642935E+02 -0.33309606084E+02  0.15049898023E+03  0.15460566899E+03  0.00000000000E+00 0. -1.
          1    1    1    2  501    0 -0.50980343144E+02  0.78183028687E+02  0.33306841232E+03  0.34589904401E+03  0.00000000000E+00 0. -1.
<scales pt_clust_5="13000.00000" pt_clust_6="13000.00000" pt_clust_7="13000.00000" pt_clust_8="13000.00000" pt_clust_9="91.16523"></scales>
<clustering>
<clus scale="   81.982">  5  6 -1 -1</clus>
<clus scale="   90.816">  7  8 -1 -1</clus>
<clus scale="   91.003">  1  7  2 -1</clus>
<clus scale="   91.165">  2  9  1 -1</clus>
<clus scale="   91.165">  2  5  1 -1</clus>
</clustering>
</event>
<event>
 9    2  0.1488992E-004  0.1526985E+03  0.7546771E-02  0.1200134E+00
          2   -1    0    0  502    0 -0.00000000000E+00  0.00000000000E+00  0.15909999609E+03  0.15909999609E+03  0.00000000000E+00 0. -1.
         21   -1    0    0  501  502  0.00000000000E+00 -0.00000000000E+00 -0.19957218258E+03  0.19957218258E+03  0.00000000000E+00 0.  1.
         23    2    1    2    0    0 -0.27129459794E+01 -0.10765338363E+03  0.33582736929E+01  0.14469672048E+03  0.96588052224E+02 0.  0.
         24    2    1    2    0    0  0.49113948645E+02  0.12751432068E+03 -0.29081031389E+02  0.16139166298E+03  0.80805201341E+02 0.  0.
        -11    1    4    4    0    0  0.19412478701E+02  0.53728657225E+02 -0.53418551335E+02  0.78212240496E+02  0.00000000000E+00 0.  1.
         12    1    4    4    0    0  0.29701469944E+02  0.73785663451E+02  0.24337519946E+02  0.83179422485E+02  0.00000000000E+00 0. -1.
        -11    1    3    3    0    0 -0.28100111099E+02  0.45023136025E+01  0.81541696504E+01  0.29603674675E+02  0.00000000000E+00 0.  1.
         11    1    3    3    0    0  0.25387165120E+02 -0.11215569723E+03 -0.47958959574E+01  0.11509304581E+03  0.00000000000E+00 0. -1.
          1    1    1    2  501    0 -0.46401002666E+02 -0.19860937046E+02 -0.14749428791E+02  0.52583795207E+02  0.00000000000E+00 0. -1.
<scales pt_clust_5="13000.00000" pt_clust_6="13000.00000" pt_clust_7="13000.00000" pt_clust_8="13000.00000" pt_clust_9="50.47286"></scales>
<clustering>
<clus scale="   50.473">  2  9  1 -1</clus>
<clus scale="   80.805">  5  6 -1 -1</clus>
<clus scale="   96.588">  7  8 -1 -1</clus>
<clus scale="  143.238">  2  5  1 -1</clus>
<clus scale="   50.473">  2  5  1 -1</clus>
</clustering>
</event>
<event>
 9    2  0.1488992E-004  0.1718925E+03  0.7546771E-02  0.1176979E+00
         -1   -1    0    0    0  501 -0.00000000000E+00  0.00000000000E+00  0.17884727289E+03  0.17884727289E+03  0.00000000000E+00 0.  1.
         21   -1    0    0  501  502  0.00000000000E+00 -0.00000000000E+00 -0.32365167978E+03  0.32365167978E+03  0.00000000000E+00 0.  1.
         23    2    1    2    0    0 -0.59014568165E+02  0.13966270146E+03  0.99219288279E+02  0.20168564004E+03  0.88567718717E+02 0.  0.
         24    2    1    2    0    0  0.45186547331E+02 -0.12018418045E+03 -0.20114935558E+03  0.25173341922E+03  0.80141061967E+02 0.  0.
        -13    1    4    4    0    0 -0.19692386697E+01 -0.91583469207E+02 -0.94172647096E+02  0.13137692794E+03  0.00000000000E+00 0.  1.
         14    1    4    4    0    0  0.47155786001E+02 -0.28600711247E+02 -0.10697670848E+03  0.12035649129E+03  0.00000000000E+00 0. -1.
        -13    1    3    3    0    0  0.17611878741E+02  0.67727692980E+02  0.47247689141E+02  0.84436738440E+02  0.00000000000E+00 0.  1.
         13    1    3    3    0    0 -0.76626446906E+02  0.71935008475E+02  0.51971599137E+02  0.11724890160E+03  0.00000000000E+00 0. -1.
         -2    1    1    2    0  502  0.13828020834E+02 -0.19478521001E+02 -0.42874339593E+02  0.49079893399E+02  0.00000000000E+00 0.  1.
<scales pt_clust_5="13000.00000" pt_clust_6="13000.00000" pt_clust_7="13000.00000" pt_clust_8="13000.00000" pt_clust_9="23.88780"></scales>
<clustering>
<clus scale="   23.888">  2  9  1 -1</clus>
<clus scale="   80.141">  5  6 -1 -1</clus>
<clus scale="   88.568">  7  8 -1 -1</clus>
<clus scale="  167.706">  2  5  1 -1</clus>
<clus scale="   23.888">  2  5  1 -1</clus>
</clustering>
</event>
<event>
 9    2  0.1488992E-004  0.1841376E+03  0.7546771E-02  0.1164448E+00
         -1   -1    0    0    0  501 -0.00000000000E+00  0.00000000000E+00  0.15444520338E+03  0.15444520338E+03  0.00000000000E+00 0.  1.
         21   -1    0    0  501  502  0.00000000000E+00 -0.00000000000E+00 -0.44058296806E+03  0.44058296806E+03  0.00000000000E+00 0.  1.
         24    2    1    2    0    0  0.17732541975E+03  0.74121870681E+02 -0.45050521603E+02  0.21495436564E+03  0.85073342523E+02 0.  0.
         23    2    1    2    0    0 -0.67494403799E+02 -0.89393438862E+02 -0.22636669487E+03  0.26821332396E+03  0.90276381988E+02 0.  0.
        -11    1    3    3    0    0  0.16423497908E+03  0.74164813638E+02 -0.64594487578E+02  0.19143143880E+03  0.00000000000E+00 0.  1.
         12    1    3    3    0    0  0.13090440670E+02 -0.42942957481E-01  0.19543965976E+02  0.23522926839E+02  0.00000000000E+00 0. -1.
        -13    1    4    4    0    0 -0.76201253611E+02 -0.35879110612E+02 -0.17156160343E+03  0.19112123221E+03  0.00000000000E+00 0.  1.
         13    1    4    4    0    0  0.87068498125E+01 -0.53514328250E+02 -0.54805091439E+02  0.77092091743E+02  0.00000000000E+00 0. -1.
         -2    1    1    2    0  502 -0.10983101595E+03  0.15271568182E+02 -0.14720548211E+02  0.11186048184E+03  0.00000000000E+00 0.  1.
<scales pt_clust_5="13000.00000" pt_clust_6="13000.00000" pt_clust_7="13000.00000" pt_clust_8="13000.00000" pt_clust_9="110.88771"></scales>
<clustering>
<clus scale="   85.073">  5  6 -1 -1</clus>
<clus scale="   90.276">  7  8 -1 -1</clus>
<clus scale="  110.888">  2  9  1 -1</clus>
<clus scale="  181.643">  1  5  2 -1</clus>
<clus scale="  110.888">  2  5  1 -1</clus>
</clustering>
</event>
<event>
 9    2  0.1488992E-004  0.2576726E+03  0.7546771E-02  0.1111662E+00
         21   -1    0    0  501  502  0.00000000000E+00  0.00000000000E+00  0.50446355090E+03  0.50446355090E+03  0.00000000000E+00 0.  1.
         -3   -1    0    0    0  501 -0.00000000000E+00 -0.00000000000E+00 -0.42278285200E+03  0.42278285200E+03  0.00000000000E+00 0.  1.
         24    2    1    2    0    0 -0.39308904699E+02 -0.22044825759E+03 -0.17769781222E+03  0.29704853807E+03  0.80738449573E+02 0.  0.
         23    2    1    2    0    0 -0.21377039591E+03  0.16709744205E+03  0.35876711575E+02  0.28836677158E+03  0.90823560882E+02 0.  0.
        -13    1    3    3    0    0 -0.44698366806E+02 -0.19945424000E+03 -0.12383328235E+03  0.23898665165E+03  0.00000000000E+00 0.  1.
         14    1    3    3    0    0  0.53894621071E+01 -0.20994017587E+02 -0.53864529874E+02  0.58061886422E+02  0.00000000000E+00 0. -1.
        -13    1    4    4    0    0 -0.93075674062E+02  0.56419141715E+02  0.57652548477E+02  0.12316662291E+03  0.00000000000E+00 0. -1.
         13    1    4    4    0    0 -0.12069472185E+03  0.11067830034E+03 -0.21775836902E+02  0.16520014867E+03  0.00000000000E+00 0.  1.
         -4    1    1    2    0  502  0.25307930061E+03  0.53350815538E+02  0.22350179955E+03  0.34183109325E+03  0.00000000000E+00 0.  1.
<scales pt_clust_5="13000.00000" pt_clust_6="13000.00000" pt_clust_7="13000.00000" pt_clust_8="13000.00000" pt_clust_9="241.13536"></scales>
<clustering>
<clus scale="   80.738">  5  6 -1 -1</clus>
<clus scale="   90.824">  7  8 -1 -1</clus>
<clus scale="  238.036">  2  5  1 -1</clus>
<clus scale="  241.135">  1  9  2 -1</clus>
<clus scale="  241.135">  1  5  2 -1</clus>
</clustering>
</event>
<event>
 9    2  0.1488992E-004  0.1000008E+03  0.7546771E-02  0.1287277E+00
          2   -1    0    0  502    0 -0.00000000000E+00  0.00000000000E+00  0.18128407867E+03  0.18128407867E+03  0.00000000000E+00 0. -1.
         21   -1    0    0  501  502  0.00000000000E+00 -0.00000000000E+00 -0.70812699516E+02  0.70812699516E+02  0.00000000000E+00 0.  1.
         23    2    1    2    0    0 -0.25838962528E+02 -0.24399327791E+02  0.50131809736E+02  0.11103356982E+03  0.92478516961E+02 0.  0.
         24    2    1    2    0    0  0.22361652387E+01  0.46897366644E+02  0.30255082606E+02  0.96697341539E+02  0.78934418374E+02 0.  0.
        -11    1    4    4    0    0  0.28018494890E+02 -0.45868947872E+01  0.26755490706E+02  0.39011946153E+02  0.00000000000E+00 0.  1.
         12    1    4    4    0    0 -0.25782329652E+02  0.51484261431E+02  0.34995919001E+01  0.57685395386E+02  0.00000000000E+00 0. -1.
        -11    1    3    3    0    0  0.27832605966E+02 -0.22469269400E+02  0.44408629088E+02  0.57023226494E+02  0.00000000000E+00 0. -1.
         11    1    3    3    0    0 -0.53671568494E+02 -0.19300583904E+01  0.57231806473E+01  0.54010343330E+02  0.00000000000E+00 0.  1.
          1    1    1    2  501    0  0.23602797289E+02 -0.22498038853E+02  0.30084486808E+02  0.44365866819E+02  0.00000000000E+00 0. -1.
<scales pt_clust_5="13000.00000" pt_clust_6="13000.00000" pt_clust_7="13000.00000" pt_clust_8="13000.00000" pt_clust_9="32.60759"></scales>
<clustering>
<clus scale="   32.608">  2  9  1 -1</clus>
<clus scale="   78.934">  5  6 -1 -1</clus>
<clus scale="   87.627">  2  5  1 -1</clus>
<clus scale="   92.479">  7  8 -1 -1</clus>
<clus scale="   32.608">  2  5  1 -1</clus>
</clustering>
</event>
<event>
 9    2  0.1488992E-004  0.2902737E+03  0.7546771E-02  0.1090695E+00
          2   -1    0    0  502    0 -0.00000000000E+00  0.00000000000E+00  0.16491899459E+04  0.16491899459E+04  0.00000000000E+00 0. -1.
         21   -1    0    0  501  502  0.00000000000E+00 -0.00000000000E+00 -0.76023019585E+02  0.76023019585E+02  0.00000000000E+00 0. -1.
         24    2    1    2    0    0  0.14616130516E+03  0.27736677962E+03  0.95743380221E+03  0.10104293846E+04  0.77411873394E+02 0.  0.
         23    2    1    2    0    0 -0.53473746587E+02 -0.23079419618E+03  0.49077819325E+03  0.55238369235E+03  0.90216994197E+02 0.  0.
        -13    1    3    3    0    0  0.81771106755E+02  0.79784657413E+02  0.30469877165E+03  0.32541273316E+03  0.00000000000E+00 0.  1.
         14    1    3    3    0    0  0.64390198405E+02  0.19758212221E+03  0.65273503056E+03  0.68501665146E+03  0.00000000000E+00 0. -1.
        -11    1    4    4    0    0 -0.77502296964E+02 -0.15461006908E+03  0.35394523249E+03  0.39393921751E+03  0.00000000000E+00 0.  1.
         11    1    4    4    0    0  0.24028550377E+02 -0.76184127106E+02  0.13683296076E+03  0.15844447484E+03  0.00000000000E+00 0. -1.
          1    1    1    2  501    0 -0.92687558573E+02 -0.46572583438E+02  0.12495493087E+03  0.16239988852E+03  0.00000000000E+00 0. -1.
<scales pt_clust_5="13000.00000" pt_clust_6="13000.00000" pt_clust_7="13000.00000" pt_clust_8="13000.00000" pt_clust_9="103.73037"></scales>
<clustering>
<clus scale="   77.412">  5  6 -1 -1</clus>
<clus scale="   90.217">  7  8 -1 -1</clus>
<clus scale="  103.730">  2  9  1 -1</clus>
<clus scale="  286.552">  1  5  2 -1</clus>
<clus scale="  103.730">  2  5  1 -1</clus>
</clustering>
</event>
<event>
 9    2  0.1488992E-004  0.1198116E+03  0.7546771E-02  0.1246774E+00
         -1   -1    0    0    0  501 -0.00000000000E+00  0.00000000000E+00  0.66131270403E+03  0.66131270403E+03  0.00000000000E+00 0.  1.
         21   -1    0    0  501  502  0.00000000000E+00 -0.00000000000E+00 -0.40201129578E+02  0.40201129578E+02  0.00000000000E+00 0. -1.
         24    2    1    2    0    0 -0.28177671039E+02  0.78055813285E+02  0.42034123908E+03  0.43600899877E+03  0.80810881740E+02 0.  0.
         23    2    1    2    0    0  0.95482185709E+01 -0.67746928807E+02  0.21248213712E+03  0.24120471346E+03  0.91379649604E+02 0.  0.
        -13    1    3    3    0    0  0.27897658329E+02  0.30611869642E+02  0.12558107224E+03  0.13223453259E+03  0.00000000000E+00 0.  1.
         14    1    3    3    0    0 -0.56075329368E+02  0.47443943643E+02  0.29476016684E+03  0.30377446618E+03  0.00000000000E+00 0. -1.
        -13    1    4    4    0    0  0.41295908237E+02 -0.48015949193E+02  0.72257429874E+02  0.96083399117E+02  0.00000000000E+00 0. -1.
         13    1    4    4    0    0 -0.31747689666E+02 -0.19730979614E+02  0.14022470724E+03  0.14512131435E+03  0.00000000000E+00 0.  1.
         -2    1    1    2    0  502  0.18629452468E+02 -0.10308884478E+02 -0.11711801748E+02  0.24300121370E+02  0.00000000000E+00 0.  1.
<scales pt_clust_5="13000.00000" pt_clust_6="13000.00000" pt_clust_7="13000.00000" pt_clust_8="13000.00000" pt_clust_9="21.29154"></scales>
<clustering>
<clus scale="   21.292">  2  9  1 -1</clus>
<clus scale="   80.811">  5  6 -1 -1</clus>
<clus scale="   91.380">  7  8 -1 -1</clus>
<clus scale="  111.960">  1  5  2 -1</clus>
<clus scale="   21.292">  2  5  1 -1</clus>
</clustering>
</event>
<event>
 9    2  0.1488992E-004  0.8679501E+02  0.7546771E-02  0.1312755E+00
         21   -1    0    0  501  502  0.00000000000E+00  0.00000000000E+00  0.10240521174E+03  0.10240521174E+03  0.00000000000E+00 0. -1.
         -1   -1    0    0    0  501 -0.00000000000E+00 -0.00000000000E+00 -0.25446820705E+03  0.25446820705E+03  0.00000000000E+00 0.  1.
         24    2    1    2    0    0  0.14322420776E+02 -0.22475351670E+01 -0.19174989522E+03  0.20908911723E+03  0.82097828677E+02 0.  0.
         23    2    1    2    0    0 -0.28331010539E+02 -0.29881866268E+02 -0.31234639439E+00  0.94600857440E+02  0.85168377807E+02 0.  0.
        -13    1    3    3    0    0 -0.25260903562E+02 -0.25227935698E+02 -0.10656858281E+03  0.11238961175E+03  0.00000000000E+00 0.  1.
         14    1    3    3    0    0  0.39583324338E+02  0.22980400531E+02 -0.85181312419E+02  0.96699505477E+02  0.00000000000E+00 0. -1.
        -11    1    4    4    0    0  0.17510981299E+02 -0.43405811802E+02 -0.58526163231E-01  0.46804939799E+02  0.00000000000E+00 0. -1.
         11    1    4    4    0    0 -0.45841991838E+02  0.13523945534E+02 -0.25382023116E+00  0.47795917641E+02  0.00000000000E+00 0.  1.
         -2    1    1    2    0  502  0.14008589763E+02  0.32129401435E+02  0.39999246310E+02  0.53183444125E+02  0.00000000000E+00 0.  1.
<scales pt_clust_5="13000.00000" pt_clust_6="13000.00000" pt_clust_7="13000.00000" pt_clust_8="13000.00000" pt_clust_9="35.05052"></scales>
<clustering>
<clus scale="   35.051">  1  9  2 -1</clus>
<clus scale="   82.098">  5  6 -1 -1</clus>
<clus scale="   83.784">  2  5  1 -1</clus>
<clus scale="   85.168">  7  8 -1 -1</clus>
<clus scale="   35.051">  1  5  2 -1</clus>
</clustering>
</event>
<event>
 9    2  0.1488992E-004  0.2495943E+03  0.7546771E-02  0.1114425E+00
          2   -1    0    0  502    0 -0.00000000000E+00  0.00000000000E+00  0.11415504187E+03  0.11415504187E+03  0.00000000000E+00 0. -1.
         21   -1    0    0  501  502  0.00000000000E+00 -0.00000000000E+00 -0.13391804435E+04  0.13391804435E+04  0.00000000000E+00 0. -1.
         24    2    1    2    0    0 -0.21711520474E+03 -0.77276179137E+02 -0.33143341970E+03  0.41168429007E+03  0.80778852470E+02 0.  0.
         23    2    1    2    0    0  0.19186960452E+03 -0.17778201499E+03 -0.50620815738E+03  0.57715334788E+03  0.91863476867E+02 0.  0.
        -11    1    3    3    0    0 -0.27649509259E+02 -0.32898219751E+02 -0.10298761310E+03  0.11159407098E+03  0.00000000000E+00 0.  1.
         12    1    3    3    0    0 -0.18946569548E+03 -0.44377959386E+02 -0.22844580660E+03  0.30009021910E+03  0.00000000000E+00 0. -1.
        -11    1    4    4    0    0  0.14170223515E+03 -0.81434193082E+02 -0.35660330115E+03  0.39227154579E+03  0.00000000000E+00 0. -1.
         11    1    4    4    0    0  0.50167369373E+02 -0.96347821906E+02 -0.14960485623E+03  0.18488180209E+03  0.00000000000E+00 0.  1.
          1    1    1    2  501    0  0.25245600222E+02  0.25505819412E+03 -0.38738382450E+03  0.46449784736E+03  0.00000000000E+00 0. -1.
<scales pt_clust_5="13000.00000" pt_clust_6="13000.00000" pt_clust_7="13000.00000" pt_clust_8="13000.00000" pt_clust_9="232.07433"></scales>
<clustering>
<clus scale="   80.779">  5  6 -1 -1</clus>
<clus scale="   91.863">  7  8 -1 -1</clus>
<clus scale="  244.205">  1  5  2 -1</clus>
<clus scale="  232.074">  2  9  1 -1</clus>
<clus scale="  232.074">  2  5  1 -1</clus>
</clustering>
</event>
<event>
 9    2  0.1488992E-004  0.1388614E+03  0.7546771E-02  0.1217310E+00
          2   -1    0    0  502    0 -0.00000000000E+00  0.00000000000E+00  0.83087313153E+03  0.83087313153E+03  0.00000000000E+00 0. -1.
         21   -1    0    0  501  502  0.00000000000E+00 -0.00000000000E+00 -0.65424016730E+02  0.65424016730E+02  0.00000000000E+00 0. -1.
         23    2    1    2    0    0 -0.11517834684E+03  0.17578739757E+02  0.56911172547E+03  0.58810511857E+03  0.91675573323E+02 0.  0.
         24    2    1    2    0    0  0.44936458185E+02  0.18682377182E+02 -0.24343049735E+01  0.94278547233E+02  0.80710607334E+02 0.  0.
        -11    1    4    4    0    0 -0.17467890865E+02  0.19148986029E+02 -0.15938960801E+02  0.30427969841E+02  0.00000000000E+00 0.  1.
         12    1    4    4    0    0  0.62404349050E+02 -0.46660884789E+00  0.13504655828E+02  0.63850577392E+02  0.00000000000E+00 0. -1.
        -13    1    3    3    0    0 -0.65215561829E+02  0.53680549666E+02  0.37699758024E+03  0.38634420718E+03  0.00000000000E+00 0. -1.
         13    1    3    3    0    0 -0.49962785008E+02 -0.36101809909E+02  0.19211414523E+03  0.20176091138E+03  0.00000000000E+00 0.  1.
          1    1    1    2  501    0  0.70241888652E+02 -0.36261116938E+02  0.19877169431E+03  0.21391348246E+03  0.00000000000E+00 0. -1.
<scales pt_clust_5="13000.00000" pt_clust_6="13000.00000" pt_clust_7="13000.00000" pt_clust_8="13000.00000" pt_clust_9="79.04934"></scales>
<clustering>
<clus scale="   79.049">  2  9  1 -1</clus>
<clus scale="   80.711">  5  6 -1 -1</clus>
<clus scale="   91.676">  7  8 -1 -1</clus>
<clus scale="  131.880">  2  5  1 -1</clus>
<clus scale="   79.049">  2  5  1 -1</clus>
</clustering>
</event>
<event>
 9    2  0.1488992E-004  0.1305335E+03  0.7546771E-02  0.1243222E+00
         21   -1    0    0  501  502  0.00000000000E+00  0.00000000000E+00  0.33970357778E+02  0.33970357778E+02  0.00000000000E+00 0. -1.
          2   -1    0    0  502    0 -0.00000000000E+00 -0.00000000000E+00 -0.12436434902E+04  0.12436434902E+04  0.00000000000E+00 0. -1.
         23    2    1    2    0    0 -0.15424010258E+02 -0.17955597446E+02 -0.97999981129E+02  0.13510120759E+03  0.89933511101E+02 0.  0.
         24    2    1    2    0    0  0.11119051870E+03  0.42319434902E+02 -0.86493958527E+03  0.87672649831E+03  0.79841096326E+02 0.  0.
        -11    1    4    4    0    0  0.14302450767E+01  0.32080766921E+02 -0.15640134273E+03  0.15966402605E+03  0.00000000000E+00 0.  1.
         12    1    4    4    0    0  0.10976027362E+03  0.10238667981E+02 -0.70853824254E+03  0.71706247226E+03  0.00000000000E+00 0. -1.
        -11    1    3    3    0    0 -0.33059646231E+02 -0.38063075655E+02 -0.22884764964E+02  0.55366509776E+02  0.00000000000E+00 0. -1.
         11    1    3    3    0    0  0.17635635973E+02  0.20107478209E+02 -0.75115216165E+02  0.79734697815E+02  0.00000000000E+00 0.  1.
          1    1    1    2  501    0 -0.95766508442E+02 -0.24363837456E+02 -0.24673356602E+03  0.26578614207E+03  0.00000000000E+00 0. -1.
<scales pt_clust_5="13000.00000" pt_clust_6="13000.00000" pt_clust_7="13000.00000" pt_clust_8="13000.00000" pt_clust_9="103.26855"></scales>
<clustering>
<clus scale="   79.841">  5  6 -1 -1</clus>
<clus scale="   89.934">  7  8 -1 -1</clus>
<clus scale="   92.996">  2  7  1 -1</clus>
<clus scale="  103.269">  1  9  2 -1</clus>
<clus scale="  103.269">  1  5  2 -1</clus>
</clustering>
</event>
<event>
 9    2  0.1488992E-004  0.9545118E+02  0.7546771E-02  0.1296369E+00
          2   -1    0    0  502    0 -0.00000000000E+00  0.00000000000E+00  0.13791995930E+03  0.13791995930E+03  0.00000000000E+00 0. -1.
         21   -1    0    0  501  502  0.00000000000E+00 -0.00000000000E+00 -0.29061351281E+03  0.29061351281E+03  0.00000000000E+00 0. -1.
         23    2    1    2    0    0  0.23023687926E+02 -0.48390775124E+01  0.10544396573E+03  0.14184414569E+03  0.91912049715E+02 0.  0.
         24    2    1    2    0    0 -0.44713650272E+02  0.11140263266E+02 -0.15307589977E+03  0.17922722475E+03  0.81035492312E+02 0.  0.
        -11    1    4    4    0    0 -0.47697195613E+02  0.43141203474E+00 -0.15943699134E+03  0.16641923805E+03  0.00000000000E+00 0.  1.
         12    1    4    4    0    0  0.29835453411E+01  0.10708851231E+02  0.63610915645E+01  0.12807986703E+02  0.00000000000E+00 0. -1.
        -11    1    3    3    0    0 -0.14175327390E+02  0.33129056143E+02  0.67567359395E+02  0.76575598745E+02  0.00000000000E+00 0.  1.
         11    1    3    3    0    0  0.37199015316E+02 -0.37968133656E+02  0.37876606332E+02  0.65268546950E+02  0.00000000000E+00 0. -1.
          1    1    1    2  501    0  0.21689962347E+02 -0.63011857535E+01 -0.10506161946E+03  0.10746210166E+03  0.00000000000E+00 0. -1.
<scales pt_clust_5="13000.00000" pt_clust_6="13000.00000" pt_clust_7="13000.00000" pt_clust_8="13000.00000" pt_clust_9="22.58671"></scales>
<clustering>
<clus scale="   22.587">  2  9  1 -1</clus>
<clus scale="   81.035">  5  6 -1 -1</clus>
<clus scale="   85.029">  2  5  1 -1</clus>
<clus scale="   91.912">  7  8 -1 -1</clus>
<clus scale="   22.587">  2  5  1 -1</clus>
</clustering>
</event>
<event>
 9    2  0.1488992E-004  0.1365230E+03  0.7546771E-02  0.1222875E+00
          4   -1    0    0  502    0 -0.00000000000E+00  0.00000000000E+00  0.24622879079E+03  0.24622879079E+03  0.00000000000E+00 0. -1.
         21   -1    0    0  501  502  0.00000000000E+00 -0.00000000000E+00 -0.11408370816E+03  0.11408370816E+03  0.00000000000E+00 0.  1.
         23    2    1    2    0    0  0.84670149341E+02 -0.65950215104E+02  0.11071177575E+03  0.18273711845E+03  0.98067793432E+02 0.  0.
         24    2    1    2    0    0 -0.42947699341E+02  0.73812679577E+02  0.49837584546E+02  0.12649324888E+03  0.78891955441E+02 0.  0.
        -11    1    4    4    0    0 -0.33199156592E+02 -0.48270766183E+01  0.13116683795E+01  0.33573875871E+02  0.00000000000E+00 0.  1.
         12    1    4    4    0    0 -0.97485427494E+01  0.78639756196E+02  0.48525916166E+02  0.92919373007E+02  0.00000000000E+00 0. -1.
        -11    1    3    3    0    0  0.37078593104E+02 -0.34855501750E+02 -0.76210903085E+01  0.51456866270E+02  0.00000000000E+00 0.  1.
         11    1    3    3    0    0  0.47591556237E+02 -0.31094713354E+02  0.11833286605E+03  0.13128025218E+03  0.00000000000E+00 0. -1.
          3    1    1    2  501    0 -0.41722450000E+02 -0.78624644737E+01 -0.28404277659E+02  0.51082131621E+02  0.00000000000E+00 0. -1.
<scales pt_clust_5="13000.00000" pt_clust_6="13000.00000" pt_clust_7="13000.00000" pt_clust_8="13000.00000" pt_clust_9="42.45682"></scales>
<clustering>
<clus scale="   42.457">  2  9  1 -1</clus>
<clus scale="   78.892">  5  6 -1 -1</clus>
<clus scale="   98.068">  7  8 -1 -1</clus>
<clus scale="  123.471">  2  5  1 -1</clus>
<clus scale="   42.457">  2  5  1 -1</clus>
</clustering>
</event>
<event>
 9    2  0.1488992E-004  0.9433087E+02  0.7546771E-02  0.1296015E+00
         21   -1    0    0  501  502  0.00000000000E+00  0.00000000000E+00  0.14759305764E+03  0.14759305764E+03  0.00000000000E+00 0. -1.
          2   -1    0    0  502    0 -0.00000000000E+00 -0.00000000000E+00 -0.12357727315E+03  0.12357727315E+03  0.00000000000E+00 0. -1.
         24    2    1    2    0    0 -0.18298789808E+02  0.21398301242E+01 -0.12187052252E+02  0.87516267712E+02  0.84682632754E+02 0.  0.
         23    2    1    2    0    0  0.11244044440E+02  0.47593323789E+02 -0.23537146683E+02  0.10560265918E+03  0.90589024430E+02 0.  0.
        -13    1    3    3    0    0 -0.49238484255E+02  0.11938102057E+02 -0.19431297883E+02  0.54263449484E+02  0.00000000000E+00 0.  1.
         14    1    3    3    0    0  0.30939694447E+02 -0.97982719325E+01  0.72442456309E+01  0.33252818228E+02  0.00000000000E+00 0. -1.
        -13    1    4    4    0    0 -0.28757526351E+02  0.78216744818E+01 -0.37098989469E+02  0.47586856727E+02  0.00000000000E+00 0.  1.
         13    1    4    4    0    0  0.40001570792E+02  0.39771649308E+02  0.13561842786E+02  0.58015802452E+02  0.00000000000E+00 0. -1.
          1    1    1    2  501    0  0.70547453681E+01 -0.49733153914E+02  0.59739983425E+02  0.78051403895E+02  0.00000000000E+00 0. -1.
<scales pt_clust_5="13000.00000" pt_clust_6="13000.00000" pt_clust_7="13000.00000" pt_clust_8="13000.00000" pt_clust_9="50.23103"></scales>
<clustering>
<clus scale="   50.231">  1  9  2 -1</clus>
<clus scale="   84.683">  5  6 -1 -1</clus>
<clus scale="   88.674">  2  5  1 -1</clus>
<clus scale="   90.589">  7  8 -1 -1</clus>
<clus scale="   50.231">  1  5  2 -1</clus>
</clustering>
</event>
<event>
 9    2  0.1488992E-004  0.1028383E+03  0.7546771E-02  0.1278719E+00
         21   -1    0    0  501  502  0.00000000000E+00  0.00000000000E+00  0.27090849802E+02  0.27090849802E+02  0.00000000000E+00 0. -1.
          2   -1    0    0  502    0 -0.00000000000E+00 -0.00000000000E+00 -0.73021131801E+03  0.73021131801E+03  0.00000000000E+00 0. -1.
         24    2    1    2    0    0  0.43040644462E+02 -0.37004002782E+02 -0.33821520722E+03  0.35300855553E+03  0.83688234430E+02 0.  0.
         23    2    1    2    0    0  0.20851458762E+02  0.42656555524E+02 -0.17300750974E+03  0.20195997904E+03  0.92746264871E+02 0.  0.
        -13    1    3    3    0    0  0.48982232984E+02  0.12128475061E+02 -0.14394880081E+03  0.15253726204E+03  0.00000000000E+00 0.  1.
         14    1    3    3    0    0 -0.59415885224E+01 -0.49132477843E+02 -0.19426640641E+03  0.20047129349E+03  0.00000000000E+00 0. -1.
        -11    1    4    4    0    0  0.32064038021E+02 -0.11357803845E+02 -0.20345552201E+02  0.39636394093E+02  0.00000000000E+00 0. -1.
         11    1    4    4    0    0 -0.11212579259E+02  0.54014359369E+02 -0.15266195754E+03  0.16232358495E+03  0.00000000000E+00 0.  1.
          1    1    1    2  501    0 -0.63892103224E+02 -0.56525527428E+01 -0.19189775125E+03  0.20233363324E+03  0.00000000000E+00 0. -1.
<scales pt_clust_5="13000.00000" pt_clust_6="13000.00000" pt_clust_7="13000.00000" pt_clust_8="13000.00000" pt_clust_9="64.14169"></scales>
<clustering>
<clus scale="   64.142">  1  9  2 -1</clus>
<clus scale="   83.688">  5  6 -1 -1</clus>
<clus scale="   92.746">  7  8 -1 -1</clus>
<clus scale="   94.750">  2  5  1 -1</clus>
<clus scale="   64.142">  1  5  2 -1</clus>
</clustering>
</event>
<event>
 9    2  0.1488992E-004  0.4391880E+03  0.7546771E-02  0.1047910E+00
         21   -1    0    0  501  502  0.00000000000E+00  0.00000000000E+00  0.15097646785E+03  0.15097646785E+03  0.00000000000E+00 0. -1.
          2   -1    0    0  502    0 -0.00000000000E+00 -0.00000000000E+00 -0.25245840059E+04  0.25245840059E+04  0.00000000000E+00 0. -1.
         23    2    1    2    0    0  0.33378296765E+02  0.25025414052E+03 -0.25268659736E+03  0.36859227019E+03  0.90931290609E+02 0.  0.
         24    2    1    2    0    0  0.30238773765E+02  0.29975555467E+03 -0.11277358598E+04  0.11698778811E+04  0.77835154526E+02 0.  0.
        -11    1    4    4    0    0  0.47181771182E+02  0.22123128512E+03 -0.73546525965E+03  0.76946640550E+03  0.00000000000E+00 0.  1.
         12    1    4    4    0    0 -0.16942997417E+02  0.78524269549E+02 -0.39227060011E+03  0.40041147558E+03  0.00000000000E+00 0. -1.
        -13    1    3    3    0    0  0.28381059479E+01  0.10178528439E+03 -0.16381552306E+03  0.19288292968E+03  0.00000000000E+00 0.  1.
         13    1    3    3    0    0  0.30540190817E+02  0.14846885613E+03 -0.88871074298E+02  0.17570934051E+03  0.00000000000E+00 0. -1.
          1    1    1    2  501    0 -0.63617070530E+02 -0.55000969519E+03 -0.99318508089E+03  0.11370903224E+04  0.00000000000E+00 0. -1.
<scales pt_clust_5="13000.00000" pt_clust_6="13000.00000" pt_clust_7="13000.00000" pt_clust_8="13000.00000" pt_clust_9="432.23581"></scales>
<clustering>
<clus scale="   77.835">  5  6 -1 -1</clus>
<clus scale="   90.931">  7  8 -1 -1</clus>
<clus scale="  268.346">  2  7  1 -1</clus>
<clus scale="  432.236">  1  9  2 -1</clus>
<clus scale="  432.236">  1  5  2 -1</clus>
</clustering>
</event>
<event>
 9    2  0.1488992E-004  0.1108212E+03  0.7546771E-02  0.1263251E+00
          2   -1    0    0  502    0 -0.00000000000E+00  0.00000000000E+00  0.66215883096E+03  0.66215883096E+03  0.00000000000E+00 0. -1.
         21   -1    0    0  501  502  0.00000000000E+00 -0.00000000000E+00 -0.51008975933E+02  0.51008975933E+02  0.00000000000E+00 0.  1.
         23    2    1    2    0    0  0.50196893634E+02  0.44401099717E+02  0.41477346627E+03  0.42994179411E+03  0.91223528848E+02 0.  0.
         24    2    1    2    0    0 -0.61967407850E+02  0.11450564031E+02  0.28668610304E+02  0.10607113054E+03  0.80362431927E+02 0.  0.
        -13    1    4    4    0    0 -0.77384387455E+02  0.17905390885E+02  0.36735461823E+02  0.87512516818E+02  0.00000000000E+00 0.  1.
         14    1    4    4    0    0  0.15416979605E+02 -0.64548268543E+01 -0.80668515188E+01  0.18558613722E+02  0.00000000000E+00 0. -1.
        -13    1    3    3    0    0  0.76468451181E+02  0.27609206596E+02  0.32025902414E+03  0.33041721332E+03  0.00000000000E+00 0.  1.
         13    1    3    3    0    0 -0.26271557548E+02  0.16791893121E+02  0.94514442129E+02  0.99524580791E+02  0.00000000000E+00 0. -1.
          1    1    1    2  501    0  0.11770514216E+02 -0.55851663748E+02  0.16770777845E+03  0.17715488224E+03  0.00000000000E+00 0. -1.
<scales pt_clust_5="13000.00000" pt_clust_6="13000.00000" pt_clust_7="13000.00000" pt_clust_8="13000.00000" pt_clust_9="57.07851"></scales>
<clustering>
<clus scale="   57.079">  2  9  1 -1</clus>
<clus scale="   80.362">  5  6 -1 -1</clus>
<clus scale="   91.224">  7  8 -1 -1</clus>
<clus scale="  102.067">  2  5  1 -1</clus>
<clus scale="   57.079">  2  5  1 -1</clus>
</clustering>
</event>
<event>
 9    2  0.1488992E-004  0.1018633E+03  0.7546771E-02  0.1284001E+00
          2   -1    0    0  502    0 -0.00000000000E+00  0.00000000000E+00  0.98574037377E+03  0.98574037377E+03  0.00000000000E+00 0. -1.
         21   -1    0    0  501  502  0.00000000000E+00 -0.00000000000E+00 -0.20686877648E+02  0.20686877648E+02  0.00000000000E+00 0. -1.
         24    2    1    2    0    0 -0.33946853526E+02  0.19069377888E+02  0.68499135893E+03  0.69064189760E+03  0.79101446756E+02 0.  0.
         23    2    1    2    0    0  0.50033637559E+02  0.15274680965E+02  0.19786558139E+03  0.22526147417E+03  0.94102405300E+02 0.  0.
        -11    1    3    3    0    0 -0.25876120311E+02 -0.13414978550E+02  0.87764474005E+02  0.92477771109E+02  0.00000000000E+00 0.  1.
         12    1    3    3    0    0 -0.80707332143E+01  0.32484356438E+02  0.59722688492E+03  0.59816412649E+03  0.00000000000E+00 0. -1.
        -13    1    4    4    0    0  0.31739823613E+00  0.43427094443E+02  0.12707697764E+03  0.13429285729E+03  0.00000000000E+00 0.  1.
         13    1    4    4    0    0  0.49716239323E+02 -0.28152413479E+02  0.70788603750E+02  0.90968616885E+02  0.00000000000E+00 0. -1.
          1    1    1    2  501    0 -0.16086784033E+02 -0.34344058853E+02  0.82196555806E+02  0.90523879642E+02  0.00000000000E+00 0. -1.
<scales pt_clust_5="13000.00000" pt_clust_6="13000.00000" pt_clust_7="13000.00000" pt_clust_8="13000.00000" pt_clust_9="37.92491"></scales>
<clustering>
<clus scale="   37.925">  2  9  1 -1</clus>
<clus scale="   79.101">  5  6 -1 -1</clus>
<clus scale="   88.192">  1  5  2 -1</clus>
<clus scale="   94.102">  7  8 -1 -1</clus>
<clus scale="   37.925">  2  5  1 -1</clus>
</clustering>
</event>
<event>
 9    2  0.1488992E-004  0.1437671E+03  0.7546771E-02  0.1210436E+00
         21   -1    0    0  501  502  0.00000000000E+00  0.00000000000E+00  0.14306761888E+03  0.14306761888E+03  0.00000000000E+00 0. -1.
         -1   -1    0    0    0  501 -0.00000000000E+00 -0.00000000000E+00 -0.29662295069E+03  0.29662295069E+03  0.00000000000E+00 0.  1.
         24    2    1    2    0    0  0.51397425580E+02  0.11785476052E+03 -0.75690100059E+02  0.16959968706E+03  0.80645041209E+02 0.  0.
         23    2    1    2    0    0 -0.47613940247E+02 -0.63910511349E+02  0.50318805798E+02  0.13096703745E+03  0.90932622942E+02 0.  0.
        -11    1    3    3    0    0  0.64263508262E+02  0.50614852801E+02 -0.53027702321E+02  0.97486404342E+02  0.00000000000E+00 0.  1.
         12    1    3    3    0    0 -0.12866082682E+02  0.67239907716E+02 -0.22662397738E+02  0.72113282719E+02  0.00000000000E+00 0. -1.
        -11    1    4    4    0    0 -0.33795921403E+02  0.85016087288E+01 -0.94002336673E+01  0.36094404656E+02  0.00000000000E+00 0.  1.
         11    1    4    4    0    0 -0.13818018844E+02 -0.72412120078E+02  0.59719039465E+02  0.94872632796E+02  0.00000000000E+00 0. -1.
         -2    1    1    2    0  502 -0.37834853326E+01 -0.53944249168E+02 -0.12818403756E+03  0.13912384506E+03  0.00000000000E+00 0.  1.
<scales pt_clust_5="13000.00000" pt_clust_6="13000.00000" pt_clust_7="13000.00000" pt_clust_8="13000.00000" pt_clust_9="54.07679"></scales>
<clustering>
<clus scale="   54.077">  1  9  2 -1</clus>
<clus scale="   80.645">  5  6 -1 -1</clus>
<clus scale="   90.933">  7  8 -1 -1</clus>
<clus scale="  137.491">  2  5  1 -1</clus>
<clus scale="   54.077">  1  5  2 -1</clus>
</clustering>
</event>
<event>
 9    2  0.1488992E-004  0.1033421E+03  0.7546771E-02  0.1278523E+00
         21   -1    0    0  501  502  0.00000000000E+00  0.00000000000E+00  0.41073883492E+03  0.41073883492E+03  0.00000000000E+00 0.  1.
         -1   -1    0    0    0  501 -0.00000000000E+00 -0.00000000000E+00 -0.53189755059E+02  0.53189755059E+02  0.00000000000E+00 0.  1.
         24    2    1    2    0    0  0.21721419909E+01 -0.38362803154E+02  0.36913989193E+02  0.97912712102E+02  0.82145199046E+02 0.  0.
         23    2    1    2    0    0  0.28168332367E+01  0.76134008064E+02  0.29887485875E+03  0.32214035523E+03  0.92972606408E+02 0.  0.
        -13    1    3    3    0    0  0.17544243426E+02  0.18810808642E+02  0.28033440692E+02  0.38046298062E+02  0.00000000000E+00 0.  1.
         14    1    3    3    0    0 -0.15372101435E+02 -0.57173611796E+02  0.88805485005E+01  0.59866414040E+02  0.00000000000E+00 0. -1.
        -11    1    4    4    0    0 -0.66893071110E+01  0.46623543031E+02  0.28377070560E+03  0.28765311566E+03  0.00000000000E+00 0.  1.
         11    1    4    4    0    0  0.95061403476E+01  0.29510465033E+02  0.15104153155E+02  0.34487239572E+02  0.00000000000E+00 0. -1.
         -2    1    1    2    0  502 -0.49889752276E+01 -0.37771204911E+02  0.21760231917E+02  0.43875522644E+02  0.00000000000E+00 0.  1.
<scales pt_clust_5="13000.00000" pt_clust_6="13000.00000" pt_clust_7="13000.00000" pt_clust_8="13000.00000" pt_clust_9="38.09928"></scales>
<clustering>
<clus scale="   38.099">  1  9  2 -1</clus>
<clus scale="   82.145">  5  6 -1 -1</clus>
<clus scale="   92.973">  7  8 -1 -1</clus>
<clus scale="   93.720">  2  5  1 -1</clus>
<clus scale="   38.099">  1  5  2 -1</clus>
</clustering>
</event>
<event>
 9    2  0.1488992E-004  0.1291015E+03  0.7546771E-02  0.1230673E+00
         21   -1    0    0  501  502  0.00000000000E+00  0.00000000000E+00  0.21658390338E+03  0.21658390338E+03  0.00000000000E+00 0.  1.
         -3   -1    0    0    0  501 -0.00000000000E+00 -0.00000000000E+00 -0.13159507946E+03  0.13159507946E+03  0.00000000000E+00 0.  1.
         24    2    1    2    0    0  0.52105283488E+02  0.66519978055E+02 -0.36509212122E+02  0.12393246891E+03  0.82984734933E+02 0.  0.
         23    2    1    2    0    0 -0.76237887965E+02 -0.82051476263E+02  0.58903820566E+02  0.15538690425E+03  0.90170780275E+02 0.  0.
        -11    1    3    3    0    0  0.68864945814E+02  0.34573166268E+02 -0.41486476341E+02  0.87514640530E+02  0.00000000000E+00 0.  1.
         12    1    3    3    0    0 -0.16759662326E+02  0.31946811787E+02  0.49772642191E+01  0.36417828378E+02  0.00000000000E+00 0. -1.
        -13    1    4    4    0    0 -0.39880582537E+02 -0.95714093152E+02  0.33459954940E+02  0.10895511496E+03  0.00000000000E+00 0. -1.
         13    1    4    4    0    0 -0.36357305428E+02  0.13662616889E+02  0.25443865625E+02  0.46431789285E+02  0.00000000000E+00 0.  1.
         -4    1    1    2    0  502  0.24132604477E+02  0.15531498208E+02  0.62594215470E+02  0.68859609684E+02  0.00000000000E+00 0.  1.
<scales pt_clust_5="13000.00000" pt_clust_6="13000.00000" pt_clust_7="13000.00000" pt_clust_8="13000.00000" pt_clust_9="28.69861"></scales>
<clustering>
<clus scale="   28.699">  1  9  2 -1</clus>
<clus scale="   82.985">  5  6 -1 -1</clus>
<clus scale="   90.171">  7  8 -1 -1</clus>
<clus scale="  124.189">  2  5  1 -1</clus>
<clus scale="   28.699">  1  5  2 -1</clus>
</clustering>
</event>
<event>
 9    2  0.2131555E-004  0.1189680E+03  0.7546771E-02  0.1245442E+00
          2   -1    0    0  502    0 -0.00000000000E+00  0.00000000000E+00  0.58717795921E+03  0.58717795921E+03  0.00000000000E+00 0. -1.
         21   -1    0    0  501  502  0.00000000000E+00 -0.00000000000E+00 -0.18176955064E+03  0.18176955064E+03  0.00000000000E+00 0. -1.
         24    2    1    2    0    0  0.53238160234E+02 -0.62122970839E+02  0.46631164848E+03  0.48077077905E+03  0.83668532158E+02 0.  0.
         23    2    1    2    0    0 -0.46192302427E+02  0.88529680587E+02 -0.14730703793E+03  0.19755347360E+03  0.85771664070E+02 0.  0.
        -11    1    3    3    0    0 -0.78821457568E+01 -0.27382310834E+02  0.42503078428E+02  0.51170605275E+02  0.00000000000E+00 0.  1.
         12    1    3    3    0    0  0.61120305991E+02 -0.34740660005E+02  0.42380857005E+03  0.42960017378E+03  0.00000000000E+00 0. -1.
        -13    1    4    4    0    0 -0.10462408836E+02  0.94692151765E+02 -0.11025426962E+03  0.14571228354E+03  0.00000000000E+00 0. -1.
         13    1    4    4    0    0 -0.35729893591E+02 -0.61624711781E+01 -0.37052768310E+02  0.51841190056E+02  0.00000000000E+00 0.  1.
          1    1    1    2  501    0 -0.70458578076E+01 -0.26406709747E+02  0.86403798028E+02  0.90623257201E+02  0.00000000000E+00 0. -1.
<scales pt_clust_5="13000.00000" pt_clust_6="13000.00000" pt_clust_7="13000.00000" pt_clust_8="13000.00000" pt_clust_9="27.33055"></scales>
<clustering>
<clus scale="   27.331">  2  9  1 -1</clus>
<clus scale="   83.669">  5  6 -1 -1</clus>
<clus scale="   85.772">  7  8 -1 -1</clus>
<clus scale="  117.461">  1  5  2 -1</clus>
<clus scale="   27.331">  2  5  1 -1</clus>
</clustering>
</event>
<event>
 9    2  0.1488992E-004  0.1372151E+03  0.7546771E-02  0.1218797E+00
         -3   -1    0    0    0  501 -0.00000000000E+00  0.00000000000E+00  0.66597958490E+02  0.66597958490E+02  0.00000000000E+00 0.  1.
         21   -1    0    0  501  502  0.00000000000E+00 -0.00000000000E+00 -0.45324939103E+03  0.45324939103E+03  0.00000000000E+00 0. -1.
         24    2    1    2    0    0 -0.54909111676E+02  0.93139113117E+02 -0.60726863448E+02  0.14969295180E+03  0.83847021034E+02 0.  0.
         23    2    1    2    0    0  0.35672669019E+02 -0.85580298167E+02 -0.17605070742E+03  0.21886212819E+03  0.91160588091E+02 0.  0.
        -13    1    3    3    0    0  0.16363377754E+02  0.50734847262E+02 -0.17093426983E+02  0.55981872997E+02  0.00000000000E+00 0.  1.
         14    1    3    3    0    0 -0.71272489430E+02  0.42404265856E+02 -0.43633436465E+02  0.93711078801E+02  0.00000000000E+00 0. -1.
        -13    1    4    4    0    0  0.53323076227E+02 -0.24473558992E+02 -0.12207320036E+03  0.13544065783E+03  0.00000000000E+00 0. -1.
         13    1    4    4    0    0 -0.17650407208E+02 -0.61106739175E+02 -0.53977507061E+02  0.83421470352E+02  0.00000000000E+00 0.  1.
         -4    1    1    2    0  502  0.19236442657E+02 -0.75588149506E+01 -0.14987386167E+03  0.15129226954E+03  0.00000000000E+00 0.  1.
<scales pt_clust_5="13000.00000" pt_clust_6="13000.00000" pt_clust_7="13000.00000" pt_clust_8="13000.00000" pt_clust_9="20.66825"></scales>
<clustering>
<clus scale="   20.668">  2  9  1 -1</clus>
<clus scale="   83.847">  5  6 -1 -1</clus>
<clus scale="   91.161">  7  8 -1 -1</clus>
<clus scale="  132.469">  1  5  2 -1</clus>
<clus scale="   20.668">  2  5  1 -1</clus>
</clustering>
</event>
<event>
 9    2  0.2105700E-004  0.9792136E+02  0.7546771E-02  0.1287464E+00
         -1   -1    0    0    0  501 -0.00000000000E+00  0.00000000000E+00  0.27454000223E+03  0.27454000223E+03  0.00000000000E+00 0.  1.
         21   -1    0    0  501  502  0.00000000000E+00 -0.00000000000E+00 -0.19289510549E+03  0.19289510549E+03  0.00000000000E+00 0. -1.
         23    2    1    2    0    0 -0.31852257936E+02 -0.37196587187E+01  0.94710994749E+02  0.13501189479E+03  0.90717346804E+02 0.  0.
         24    2    1    2    0    0  0.69687738486E+02  0.45860901100E+02 -0.14560942965E+03  0.18828736500E+03  0.85383971963E+02 0.  0.
        -13    1    4    4    0    0  0.59243216547E+02  0.42510946442E+02 -0.42099740698E+02  0.84198143929E+02  0.00000000000E+00 0.  1.
         14    1    4    4    0    0  0.10444521939E+02  0.33499546583E+01 -0.10350968896E+03  0.10408922107E+03  0.00000000000E+00 0. -1.
        -11    1    3    3    0    0 -0.49179919155E+01  0.35317617166E+02  0.76143478874E+02  0.84079427340E+02  0.00000000000E+00 0. -1.
         11    1    3    3    0    0 -0.26934266021E+02 -0.39037275885E+02  0.18567515875E+02  0.50932467448E+02  0.00000000000E+00 0.  1.
         -2    1    1    2    0  502 -0.37835480550E+02 -0.42141242382E+02  0.13254333164E+03  0.14413584794E+03  0.00000000000E+00 0.  1.
<scales pt_clust_5="13000.00000" pt_clust_6="13000.00000" pt_clust_7="13000.00000" pt_clust_8="13000.00000" pt_clust_9="56.63401"></scales>
<clustering>
<clus scale="   56.634">  2  9  1 -1</clus>
<clus scale="   85.384">  5  6 -1 -1</clus>
<clus scale="   90.717">  7  8 -1 -1</clus>
<clus scale="   93.002">  2  5  1 -1</clus>
<clus scale="   56.634">  2  5  1 -1</clus>
</clustering>
</event>
<event>
 9    2  0.1488992E-004  0.1031297E+03  0.7546771E-02  0.1274212E+00
         21   -1    0    0  501  502  0.00000000000E+00  0.00000000000E+00  0.34491488669E+03  0.34491488669E+03  0.00000000000E+00 0. -1.
          2   -1    0    0  502    0 -0.00000000000E+00 -0.00000000000E+00 -0.64068522445E+02  0.64068522445E+02  0.00000000000E+00 0. -1.
         23    2    1    2    0    0 -0.48364191319E+02  0.24814227366E+02  0.10674614700E+02  0.10649462759E+03  0.90952281034E+02 0.  0.
         24    2    1    2    0    0  0.13280772392E+02 -0.12722199507E+02  0.22715727196E+03  0.24567937472E+03  0.91758899752E+02 0.  0.
        -11    1    4    4    0    0  0.26416905891E+02 -0.41818480267E+02  0.19165310332E+03  0.19793319636E+03  0.00000000000E+00 0.  1.
         12    1    4    4    0    0 -0.13136133499E+02  0.29096280760E+02  0.35504168636E+02  0.47746178359E+02  0.00000000000E+00 0. -1.
        -13    1    3    3    0    0 -0.72325549873E+02  0.21568151933E+01  0.19555860803E+01  0.72384123488E+02  0.00000000000E+00 0.  1.
         13    1    3    3    0    0  0.23961358554E+02  0.22657412173E+02  0.87190286192E+01  0.34110504104E+02  0.00000000000E+00 0. -1.
          1    1    1    2  501    0  0.35083418927E+02 -0.12092027859E+02  0.43014477585E+02  0.56809406820E+02  0.00000000000E+00 0. -1.
<scales pt_clust_5="13000.00000" pt_clust_6="13000.00000" pt_clust_7="13000.00000" pt_clust_8="13000.00000" pt_clust_9="37.10881"></scales>
<clustering>
<clus scale="   37.109">  1  9  2 -1</clus>
<clus scale="   90.952">  7  8 -1 -1</clus>
<clus scale="   91.759">  5  6 -1 -1</clus>
<clus scale="  102.413">  2  7  1 -1</clus>
<clus scale="   37.109">  1  5  2 -1</clus>
</clustering>
</event>
<event>
 9    2  0.1488992E-004  0.1182262E+03  0.7546771E-02  0.1249105E+00
          2   -1    0    0  502    0 -0.00000000000E+00  0.00000000000E+00  0.30243745983E+03  0.30243745983E+03  0.00000000000E+00 0. -1.
         21   -1    0    0  501  502  0.00000000000E+00 -0.00000000000E+00 -0.16122363524E+03  0.16122363524E+03  0.00000000000E+00 0.  1.
         24    2    1    2    0    0  0.69278374308E+02  0.23113080765E+02  0.26126057128E+03  0.28446725138E+03  0.85620227482E+02 0.  0.
         23    2    1    2    0    0 -0.43882929223E+02 -0.25785811592E+02 -0.93995376303E+02  0.14271445197E+03  0.94560374778E+02 0.  0.
        -13    1    3    3    0    0  0.26303866993E+02  0.51747378250E+02  0.10613968148E+03  0.12097651243E+03  0.00000000000E+00 0.  1.
         14    1    3    3    0    0  0.42974507315E+02 -0.28634297485E+02  0.15512088980E+03  0.16349073895E+03  0.00000000000E+00 0. -1.
        -13    1    4    4    0    0 -0.24715127859E+02 -0.10485715362E+02 -0.11013158071E+03  0.11335675031E+03  0.00000000000E+00 0.  1.
         13    1    4    4    0    0 -0.19167801364E+02 -0.15300096230E+02  0.16136204409E+02  0.29357701656E+02  0.00000000000E+00 0. -1.
          1    1    1    2  501    0 -0.25395445085E+02  0.26727308263E+01 -0.26051370386E+02  0.36479391718E+02  0.00000000000E+00 0. -1.
<scales pt_clust_5="13000.00000" pt_clust_6="13000.00000" pt_clust_7="13000.00000" pt_clust_8="13000.00000" pt_clust_9="25.53570"></scales>
<clustering>
<clus scale="   25.536">  2  9  1 -1</clus>
<clus scale="   85.620">  5  6 -1 -1</clus>
<clus scale="   94.560">  7  8 -1 -1</clus>
<clus scale="  111.205">  1  5  2 -1</clus>
<clus scale="   25.536">  2  5  1 -1</clus>
</clustering>
</event>
<event>
 9    2  0.1488992E-004  0.2018701E+03  0.7546771E-02  0.1148990E+00
          2   -1    0    0  502    0 -0.00000000000E+00  0.00000000000E+00  0.50867812305E+03  0.50867812305E+03  0.00000000000E+00 0. -1.
         21   -1    0    0  501  502  0.00000000000E+00 -0.00000000000E+00 -0.70615922934E+03  0.70615922934E+03  0.00000000000E+00 0. -1.
         24    2    1    2    0    0  0.14038430391E+03 -0.11472044057E+03  0.45198209934E+03  0.49368796620E+03  0.81064527257E+02 0.  0.
         23    2    1    2    0    0 -0.80889232335E+02  0.16744237719E+03 -0.31046442266E+03  0.37295484145E+03  0.90150643001E+02 0.  0.
        -13    1    3    3    0    0  0.35603116826E+02 -0.42025312711E+02  0.59839086279E+02  0.81329115837E+02  0.00000000000E+00 0.  1.
         14    1    3    3    0    0  0.10478118708E+03 -0.72695127861E+02  0.39214301306E+03  0.41235885036E+03  0.00000000000E+00 0. -1.
        -11    1    4    4    0    0 -0.49509056822E+02  0.27026548463E+02 -0.13318166710E+03  0.14463380477E+03  0.00000000000E+00 0.  1.
         11    1    4    4    0    0 -0.31380175513E+02  0.14041582872E+03 -0.17728275556E+03  0.22832103668E+03  0.00000000000E+00 0. -1.
          1    1    1    2  501    0 -0.59495071571E+02 -0.52721936614E+02 -0.33899878296E+03  0.34819454475E+03  0.00000000000E+00 0. -1.
<scales pt_clust_5="13000.00000" pt_clust_6="13000.00000" pt_clust_7="13000.00000" pt_clust_8="13000.00000" pt_clust_9="79.49381"></scales>
<clustering>
<clus scale="   79.494">  2  9  1 -1</clus>
<clus scale="   81.065">  5  6 -1 -1</clus>
<clus scale="   90.151">  7  8 -1 -1</clus>
<clus scale="  197.979">  1  5  2 -1</clus>
<clus scale="   79.494">  2  5  1 -1</clus>
</clustering>
</event>
<event>
 9    2  0.1488992E-004  0.9409865E+02  0.7546771E-02  0.1298530E+00
         21   -1    0    0  501  502  0.00000000000E+00  0.00000000000E+00  0.45013356476E+02  0.45013356476E+02  0.00000000000E+00 0. -1.
          2   -1    0    0  502    0 -0.00000000000E+00 -0.00000000000E+00 -0.33462526602E+03  0.33462526602E+03  0.00000000000E+00 0. -1.
         24    2    1    2    0    0  0.19912745281E+02  0.16289185992E+02 -0.20559429543E+03  0.22318369687E+03  0.82946327418E+02 0.  0.
         23    2    1    2    0    0  0.15868431431E+02 -0.18278393191E+02 -0.69382418691E+02  0.11774525632E+03  0.92000644507E+02 0.  0.
        -13    1    3    3    0    0 -0.26682684535E+02 -0.39111528961E+01 -0.12535503408E+03  0.12822303748E+03  0.00000000000E+00 0.  1.
         14    1    3    3    0    0  0.46595429815E+02  0.20200338888E+02 -0.80239261347E+02  0.94960659393E+02  0.00000000000E+00 0. -1.
        -11    1    4    4    0    0 -0.15116540439E+01  0.34470156029E+02 -0.45960457632E+02  0.57470343833E+02  0.00000000000E+00 0.  1.
         11    1    4    4    0    0  0.17380085475E+02 -0.52748549220E+02 -0.23421961059E+02  0.60274912491E+02  0.00000000000E+00 0. -1.
          1    1    1    2  501    0 -0.35781176712E+02  0.19892071993E+01 -0.14635195424E+02  0.38709669299E+02  0.00000000000E+00 0. -1.
<scales pt_clust_5="13000.00000" pt_clust_6="13000.00000" pt_clust_7="13000.00000" pt_clust_8="13000.00000" pt_clust_9="35.83643"></scales>
<clustering>
<clus scale="   35.836">  1  9  2 -1</clus>
<clus scale="   82.946">  5  6 -1 -1</clus>
<clus scale="   85.267">  2  5  1 -1</clus>
<clus scale="   92.001">  7  8 -1 -1</clus>
<clus scale="   35.836">  1  5  2 -1</clus>
</clustering>
</event>
<event>
 9    2  0.1488992E-004  0.1474878E+03  0.7546771E-02  0.1205956E+00
         21   -1    0    0  501  502  0.00000000000E+00  0.00000000000E+00  0.41253786926E+02  0.41253786926E+02  0.00000000000E+00 0.  1.
          2   -1    0    0  502    0 -0.00000000000E+00 -0.00000000000E+00 -0.12789579591E+04  0.12789579591E+04  0.00000000000E+00 0. -1.
         24    2    1    2    0    0 -0.99946548102E+02 -0.95788311688E+02 -0.52759280034E+03  0.55116115284E+03  0.79118520507E+02 0.  0.
         23    2    1    2    0    0  0.91247286395E+02 -0.65918236661E+01 -0.14350369136E+03  0.19320197347E+03  0.91455856586E+02 0.  0.
        -11    1    3    3    0    0 -0.46467157665E+02 -0.89560690962E+02 -0.27580778795E+03  0.29368392875E+03  0.00000000000E+00 0.  1.
         12    1    3    3    0    0 -0.53479390436E+02 -0.62276207263E+01 -0.25178501239E+03  0.25747722409E+03  0.00000000000E+00 0. -1.
        -11    1    4    4    0    0  0.71675006696E+02 -0.21364516382E+02 -0.36124764263E+02  0.83058700557E+02  0.00000000000E+00 0.  1.
         11    1    4    4    0    0  0.19572279699E+02  0.14772692716E+02 -0.10737892710E+03  0.11014327291E+03  0.00000000000E+00 0. -1.
          1    1    1    2  501    0  0.86992617066E+01  0.10238013535E+03 -0.56660768045E+03  0.57584861970E+03  0.00000000000E+00 0. -1.
<scales pt_clust_5="13000.00000" pt_clust_6="13000.00000" pt_clust_7="13000.00000" pt_clust_8="13000.00000" pt_clust_9="102.74911"></scales>
<clustering>
<clus scale="   79.119">  5  6 -1 -1</clus>
<clus scale="   91.456">  7  8 -1 -1</clus>
<clus scale="  102.749">  1  9  2 -1</clus>
<clus scale="  140.172">  2  5  1 -1</clus>
<clus scale="  102.749">  1  5  2 -1</clus>
</clustering>
</event>
<event>
 9    2  0.1488992E-004  0.1708784E+03  0.7546771E-02  0.1178026E+00
         21   -1    0    0  501  502  0.00000000000E+00  0.00000000000E+00  0.69115438592E+03  0.69115438592E+03  0.00000000000E+00 0. -1.
          4   -1    0    0  502    0 -0.00000000000E+00 -0.00000000000E+00 -0.65175166648E+02  0.65175166648E+02  0.00000000000E+00 0. -1.
         24    2    1    2    0    0 -0.55091467492E+02  0.14359376256E+03  0.10508829083E+03  0.20245550423E+03  0.79312318628E+02 0.  0.
         23    2    1    2    0    0  0.28998238826E+02 -0.12456756204E+03  0.40898624014E+03  0.43740296973E+03  0.87713385183E+02 0.  0.
        -11    1    3    3    0    0 -0.64071418876E+01  0.25073468647E+02  0.62149636709E+02  0.67322415586E+02  0.00000000000E+00 0.  1.
         12    1    3    3    0    0 -0.48684325605E+02  0.11852029391E+03  0.42938654123E+02  0.13513308864E+03  0.00000000000E+00 0. -1.
        -13    1    4    4    0    0  0.47599366552E+02 -0.84358759223E+02  0.35277880530E+03  0.36583464218E+03  0.00000000000E+00 0.  1.
         13    1    4    4    0    0 -0.18601127726E+02 -0.40208802820E+02  0.56207434839E+02  0.71568327549E+02  0.00000000000E+00 0. -1.
          3    1    1    2  501    0  0.26093228667E+02 -0.19026200513E+02  0.11190468830E+03  0.11647107861E+03  0.00000000000E+00 0. -1.
<scales pt_clust_5="13000.00000" pt_clust_6="13000.00000" pt_clust_7="13000.00000" pt_clust_8="13000.00000" pt_clust_9="32.29323"></scales>
<clustering>
<clus scale="   32.293">  1  9  2 -1</clus>
<clus scale="   79.312">  5  6 -1 -1</clus>
<clus scale="   87.713">  7  8 -1 -1</clus>
<clus scale="  166.722">  2  5  1 -1</clus>
<clus scale="   32.293">  1  5  2 -1</clus>
</clustering>
</event>
<event>
 9    2  0.1488992E-004  0.1260522E+03  0.7546771E-02  0.1250206E+00
         21   -1    0    0  501  502  0.00000000000E+00  0.00000000000E+00  0.12337563805E+03  0.12337563805E+03  0.00000000000E+00 0.  1.
         -3   -1    0    0    0  501 -0.00000000000E+00 -0.00000000000E+00 -0.21506629555E+03  0.21506629555E+03  0.00000000000E+00 0.  1.
         24    2    1    2    0    0  0.37830237388E+02 -0.11406578303E+02 -0.21890562310E+02  0.92383987675E+02  0.80587639071E+02 0.  0.
         23    2    1    2    0    0  0.65360848961E+02 -0.32374059395E+02 -0.43148621237E+01  0.11623706822E+03  0.90400872194E+02 0.  0.
        -11    1    3    3    0    0  0.45206698224E+02 -0.34931771087E+02  0.31839442622E+01  0.57218980213E+02  0.00000000000E+00 0.  1.
         12    1    3    3    0    0 -0.73764608353E+01  0.23525192784E+02 -0.25074506572E+02  0.35165007462E+02  0.00000000000E+00 0. -1.
        -11    1    4    4    0    0  0.69096299849E+02  0.10171447733E+02 -0.16618714564E+02  0.71790937281E+02  0.00000000000E+00 0.  1.
         11    1    4    4    0    0 -0.37354508888E+01 -0.42545507129E+02  0.12303852440E+02  0.44446130935E+02  0.00000000000E+00 0. -1.
         -4    1    1    2    0  502 -0.10319108635E+03  0.43780637698E+02 -0.65485233064E+02  0.12982087771E+03  0.00000000000E+00 0.  1.
<scales pt_clust_5="13000.00000" pt_clust_6="13000.00000" pt_clust_7="13000.00000" pt_clust_8="13000.00000" pt_clust_9="87.84562"></scales>
<clustering>
<clus scale="   80.588">  5  6 -1 -1</clus>
<clus scale="   89.753">  2  5  1 -1</clus>
<clus scale="   87.846">  1  9  2 -1</clus>
<clus scale="   90.401">  7  8 -1 -1</clus>
<clus scale="   87.846">  1  5  2 -1</clus>
</clustering>
</event>
<event>
 9    2  0.1488992E-004  0.1422372E+03  0.7546771E-02  0.1212495E+00
         21   -1    0    0  501  502  0.00000000000E+00  0.00000000000E+00  0.98367737476E+02  0.98367737476E+02  0.00000000000E+00 0. -1.
          2   -1    0    0  502    0 -0.00000000000E+00 -0.00000000000E+00 -0.41368866862E+03  0.41368866862E+03  0.00000000000E+00 0. -1.
         24    2    1    2    0    0  0.88323418893E+02 -0.15882872031E+02 -0.50978958409E+02  0.13017840530E+03  0.79336442169E+02 0.  0.
         23    2    1    2    0    0 -0.14029902285E+03 -0.10450267004E+02 -0.73542818880E+02  0.18238059548E+03  0.89783692865E+02 0.  0.
        -13    1    3    3    0    0  0.53689287092E+02  0.28612524085E+02 -0.13046455070E+02  0.62220784895E+02  0.00000000000E+00 0.  1.
         14    1    3    3    0    0  0.34634131800E+02 -0.44495396116E+02 -0.37932503339E+02  0.67957620402E+02  0.00000000000E+00 0. -1.
        -13    1    4    4    0    0 -0.10440434792E+03  0.33346817482E+02 -0.40666421468E+02  0.11690182178E+03  0.00000000000E+00 0. -1.
         13    1    4    4    0    0 -0.35894674930E+02 -0.43797084486E+02 -0.32876397412E+02  0.65478773695E+02  0.00000000000E+00 0.  1.
          1    1    1    2  501    0  0.51975603960E+02  0.26333139035E+02 -0.19079915385E+03  0.19949740532E+03  0.00000000000E+00 0. -1.
<scales pt_clust_5="13000.00000" pt_clust_6="13000.00000" pt_clust_7="13000.00000" pt_clust_8="13000.00000" pt_clust_9="58.26578"></scales>
<clustering>
<clus scale="   58.266">  1  9  2 -1</clus>
<clus scale="   79.336">  5  6 -1 -1</clus>
<clus scale="   89.784">  7  8 -1 -1</clus>
<clus scale="  135.884">  2  5  1 -1</clus>
<clus scale="   58.266">  1  5  2 -1</clus>
</clustering>
</event>
<event>
 9    2  0.1488992E-004  0.1881030E+03  0.7546771E-02  0.1168392E+00
          2   -1    0    0  502    0 -0.00000000000E+00  0.00000000000E+00  0.19909127245E+03  0.19909127245E+03  0.00000000000E+00 0. -1.
         21   -1    0    0  501  502  0.00000000000E+00 -0.00000000000E+00 -0.73662280437E+03  0.73662280437E+03  0.00000000000E+00 0. -1.
         23    2    1    2    0    0  0.60791861482E+02 -0.10091725952E+03 -0.53522533509E+03  0.55738721205E+03  0.10165825664E+03 0.  0.
         24    2    1    2    0    0  0.13696865513E+03  0.13000606685E+02  0.21213070335E+02  0.16063048054E+03  0.80141928256E+02 0.  0.
        -13    1    4    4    0    0  0.62028596436E+02  0.39302143002E+02 -0.12251406303E+02  0.74446639795E+02  0.00000000000E+00 0.  1.
         14    1    4    4    0    0  0.74940058692E+02 -0.26301536317E+02  0.33464476637E+02  0.86183840748E+02  0.00000000000E+00 0. -1.
        -13    1    3    3    0    0  0.89024849383E+02 -0.79773827841E+02 -0.38806810309E+03  0.40606174413E+03  0.00000000000E+00 0. -1.
         13    1    3    3    0    0 -0.28232987902E+02 -0.21143431683E+02 -0.14715723201E+03  0.15132546792E+03  0.00000000000E+00 0.  1.
          1    1    1    2  501    0 -0.19776051661E+03  0.87916652839E+02 -0.23519267157E+02  0.21769638422E+03  0.00000000000E+00 0. -1.
<scales pt_clust_5="13000.00000" pt_clust_6="13000.00000" pt_clust_7="13000.00000" pt_clust_8="13000.00000" pt_clust_9="170.17655"></scales>
<clustering>
<clus scale="   80.142">  5  6 -1 -1</clus>
<clus scale="  101.658">  7  8 -1 -1</clus>
<clus scale="  155.610">  1  7  2 -1</clus>
<clus scale="  170.177">  2  9  1 -1</clus>
<clus scale="  170.177">  2  5  1 -1</clus>
</clustering>
</event>
<event>
 9    2  0.1488992E-004  0.2093491E+03  0.7546771E-02  0.1173387E+00
         21   -1    0    0  501  502  0.00000000000E+00  0.00000000000E+00  0.12514521253E+03  0.12514521253E+03  0.00000000000E+00 0. -1.
          2   -1    0    0  502    0 -0.00000000000E+00 -0.00000000000E+00 -0.76297445345E+03  0.76297445345E+03  0.00000000000E+00 0. -1.
         23    2    1    2    0    0 -0.37575635421E+01  0.50880893422E+02 -0.12830738337E+02  0.10152142728E+03  0.86827344490E+02 0.  0.
         24    2    1    2    0    0 -0.72158553923E+02  0.14152139682E+03 -0.53141363233E+03  0.55957395339E+03  0.74076973676E+02 0.  0.
        -11    1    4    4    0    0 -0.23897141352E+02  0.95747400916E+01 -0.33684600669E+02  0.42395770247E+02  0.00000000000E+00 0.  1.
         12    1    4    4    0    0 -0.48261412571E+02  0.13194665672E+03 -0.49772903166E+03  0.51717818314E+03  0.00000000000E+00 0. -1.
        -11    1    3    3    0    0  0.19536777756E+02 -0.93481028659E+01 -0.27791723673E+02  0.35234253462E+02  0.00000000000E+00 0. -1.
         11    1    3    3    0    0 -0.23294341298E+02  0.60228996288E+02  0.14960985336E+02  0.66287173816E+02  0.00000000000E+00 0.  1.
          1    1    1    2  501    0  0.75916117465E+02 -0.19240229024E+03 -0.93584870259E+02  0.22702428531E+03  0.00000000000E+00 0. -1.
<scales pt_clust_5="13000.00000" pt_clust_6="13000.00000" pt_clust_7="13000.00000" pt_clust_8="13000.00000" pt_clust_9="195.80518"></scales>
<clustering>
<clus scale="   74.077">  5  6 -1 -1</clus>
<clus scale="   86.827">  7  8 -1 -1</clus>
<clus scale="  100.707">  2  7  1 -1</clus>
<clus scale="  195.805">  1  9  2 -1</clus>
<clus scale="  195.805">  1  5  2 -1</clus>
</clustering>
</event>
<event>
 9    2  0.1488992E-004  0.1298568E+03  0.7546771E-02  0.1231344E+00
          2   -1    0    0  502    0 -0.00000000000E+00  0.00000000000E+00  0.12158964835E+04  0.12158964835E+04  0.00000000000E+00 0. -1.
         21   -1    0    0  501  502  0.00000000000E+00 -0.00000000000E+00 -0.21685182487E+02  0.21685182487E+02  0.00000000000E+00 0.  1.
         24    2    1    2    0    0  0.41739989910E+02  0.78586477315E+02  0.74876666639E+03  0.75792466211E+03  0.76682537590E+02 0.  0.
         23    2    1    2    0    0 -0.18476437696E+02 -0.10495901942E+03  0.38557331161E+03  0.41022157229E+03  0.90869055471E+02 0.  0.
        -11    1    3    3    0    0  0.21826524089E+02 -0.40929973061E+01  0.60932989064E+02  0.64853519080E+02  0.00000000000E+00 0.  1.
         12    1    3    3    0    0  0.19913465821E+02  0.82679474621E+02  0.68783367732E+03  0.69307114303E+03  0.00000000000E+00 0. -1.
        -11    1    4    4    0    0  0.13947171591E+02 -0.10373043732E+03  0.25427058650E+03  0.27496919533E+03  0.00000000000E+00 0.  1.
         11    1    4    4    0    0 -0.32423609287E+02 -0.12285821032E+01  0.13130272511E+03  0.13525237696E+03  0.00000000000E+00 0. -1.
          1    1    1    2  501    0 -0.23263552214E+02  0.26372542106E+02  0.59871323007E+02  0.69435431571E+02  0.00000000000E+00 0. -1.
<scales pt_clust_5="13000.00000" pt_clust_6="13000.00000" pt_clust_7="13000.00000" pt_clust_8="13000.00000" pt_clust_9="35.16680"></scales>
<clustering>
<clus scale="   35.167">  2  9  1 -1</clus>
<clus scale="   76.683">  5  6 -1 -1</clus>
<clus scale="   90.869">  7  8 -1 -1</clus>
<clus scale="  120.357">  1  5  2 -1</clus>
<clus scale="   35.167">  2  5  1 -1</clus>
</clustering>
</event>
<event>
 9    2  0.1488992E-004  0.1093905E+03  0.7546771E-02  0.1262749E+00
         21   -1    0    0  501  502  0.00000000000E+00  0.00000000000E+00  0.68132798435E+02  0.68132798435E+02  0.00000000000E+00 0. -1.
          2   -1    0    0  502    0 -0.00000000000E+00 -0.00000000000E+00 -0.26700327175E+03  0.26700327175E+03  0.00000000000E+00 0. -1.
         23    2    1    2    0    0  0.73522216611E+02  0.37899420071E+02 -0.92638255208E+02  0.14713867848E+03  0.78905399060E+02 0.  0.
         24    2    1    2    0    0 -0.38371412532E+02 -0.49698023250E+02 -0.37300796414E+02  0.10972653531E+03  0.81892028443E+02 0.  0.
        -11    1    4    4    0    0 -0.32413170460E+01  0.22522599975E+02 -0.60135658582E+01  0.23535858178E+02  0.00000000000E+00 0.  1.
         12    1    4    4    0    0 -0.35130095486E+02 -0.72220623225E+02 -0.31287230556E+02  0.86190677128E+02  0.00000000000E+00 0. -1.
        -11    1    3    3    0    0  0.52341997228E+02 -0.12925536795E+02 -0.68096043551E+02  0.86855197441E+02  0.00000000000E+00 0. -1.
         11    1    3    3    0    0  0.21180219383E+02  0.50824956866E+02 -0.24542211657E+02  0.60283481042E+02  0.00000000000E+00 0.  1.
          1    1    1    2  501    0 -0.35150804080E+02  0.11798603179E+02 -0.68931421698E+02  0.78270856401E+02  0.00000000000E+00 0. -1.
<scales pt_clust_5="13000.00000" pt_clust_6="13000.00000" pt_clust_7="13000.00000" pt_clust_8="13000.00000" pt_clust_9="37.07813"></scales>
<clustering>
<clus scale="   37.078">  1  9  2 -1</clus>
<clus scale="   78.905">  7  8 -1 -1</clus>
<clus scale="   81.892">  5  6 -1 -1</clus>
<clus scale="  107.173">  2  7  1 -1</clus>
<clus scale="   37.078">  1  5  2 -1</clus>
</clustering>
</event>
<event>
 9    2  0.1488992E-004  0.1019505E+03  0.7546771E-02  0.1278443E+00
         21   -1    0    0  501  502  0.00000000000E+00  0.00000000000E+00  0.19247248065E+03  0.19247248065E+03  0.00000000000E+00 0.  1.
          2   -1    0    0  502    0 -0.00000000000E+00 -0.00000000000E+00 -0.14788521596E+03  0.14788521596E+03  0.00000000000E+00 0. -1.
         24    2    1    2    0    0 -0.30629419728E+02 -0.43335819023E+02 -0.78095970345E+02  0.12840839428E+03  0.87026321159E+02 0.  0.
         23    2    1    2    0    0  0.96315530184E+01 -0.10322473979E+02  0.12331490630E+03  0.15432533317E+03  0.91708353270E+02 0.  0.
        -13    1    3    3    0    0  0.41658501035E+01 -0.58570627595E+02 -0.26711652369E+02  0.64508798595E+02  0.00000000000E+00 0.  1.
         14    1    3    3    0    0 -0.34795269831E+02  0.15234808572E+02 -0.51384317977E+02  0.63899595686E+02  0.00000000000E+00 0. -1.
        -13    1    4    4    0    0  0.25664914893E+01 -0.49288932741E+02  0.89693567529E+02  0.10237637338E+03  0.00000000000E+00 0.  1.
         13    1    4    4    0    0  0.70650615291E+01  0.38966458762E+02  0.33621338767E+02  0.51948959791E+02  0.00000000000E+00 0. -1.
          1    1    1    2  501    0  0.20997866709E+02  0.53658293002E+02 -0.63167126388E+00  0.57623969169E+02  0.00000000000E+00 0. -1.
<scales pt_clust_5="13000.00000" pt_clust_6="13000.00000" pt_clust_7="13000.00000" pt_clust_8="13000.00000" pt_clust_9="57.62054"></scales>
<clustering>
<clus scale="   57.621">  1  9  2 -1</clus>
<clus scale="   87.026">  5  6 -1 -1</clus>
<clus scale="   91.708">  7  8 -1 -1</clus>
<clus scale="   97.760">  2  5  1 -1</clus>
<clus scale="   57.621">  1  5  2 -1</clus>
</clustering>
</event>
<event>
 9    2  0.1488992E-004  0.1608954E+03  0.7546771E-02  0.1189725E+00
          2   -1    0    0  502    0 -0.00000000000E+00  0.00000000000E+00  0.61226700784E+03  0.61226700784E+03  0.00000000000E+00 0. -1.
         21   -1    0    0  501  502  0.00000000000E+00 -0.00000000000E+00 -0.97758020522E+02  0.97758020522E+02  0.00000000000E+00 0. -1.
         23    2    1    2    0    0  0.71108313518E+02 -0.88482306154E+02  0.14538060292E+03  0.20548912591E+03  0.90580077325E+02 0.  0.
         24    2    1    2    0    0 -0.14530260443E+03  0.10214810134E+03  0.86726576087E+02  0.21223070561E+03  0.77287074889E+02 0.  0.
        -13    1    4    4    0    0 -0.58539155922E+02  0.68850707191E+02  0.85278441751E+01  0.90774317860E+02  0.00000000000E+00 0.  1.
         14    1    4    4    0    0 -0.86763448503E+02  0.33297394152E+02  0.78198731912E+02  0.12145638775E+03  0.00000000000E+00 0. -1.
        -13    1    3    3    0    0  0.38049032001E+02 -0.35501085163E+02  0.13163066204E+03  0.14154394043E+03  0.00000000000E+00 0.  1.
         13    1    3    3    0    0  0.33059281517E+02 -0.52981220991E+02  0.13749940887E+02  0.63945185483E+02  0.00000000000E+00 0. -1.
          1    1    1    2  501    0  0.74194290907E+02 -0.13665795189E+02  0.28240180830E+03  0.29230519683E+03  0.00000000000E+00 0. -1.
<scales pt_clust_5="13000.00000" pt_clust_6="13000.00000" pt_clust_7="13000.00000" pt_clust_8="13000.00000" pt_clust_9="75.44238"></scales>
<clustering>
<clus scale="   75.442">  2  9  1 -1</clus>
<clus scale="   77.287">  5  6 -1 -1</clus>
<clus scale="   90.580">  7  8 -1 -1</clus>
<clus scale="  153.805">  2  5  1 -1</clus>
<clus scale="   75.442">  2  5  1 -1</clus>
</clustering>
</event>
<event>
 9    2  0.1488992E-004  0.1367803E+03  0.7546771E-02  0.1220702E+00
         21   -1    0    0  501  502  0.00000000000E+00  0.00000000000E+00  0.21178054017E+02  0.21178054017E+02  0.00000000000E+00 0. -1.
          4   -1    0    0  502    0 -0.00000000000E+00 -0.00000000000E+00 -0.12987738948E+04  0.12987738948E+04  0.00000000000E+00 0. -1.
         23    2    1    2    0    0  0.31233250980E+02  0.88196468273E+02 -0.44951492827E+03  0.46835642087E+03  0.92411759255E+02 0.  0.
         24    2    1    2    0    0  0.15265692875E+02 -0.11317833948E+03 -0.48908959876E+03  0.50851921506E+03  0.79629005762E+02 0.  0.
        -13    1    4    4    0    0 -0.25045117512E+02 -0.38477438239E+02 -0.26387975667E+03  0.26784379243E+03  0.00000000000E+00 0.  1.
         14    1    4    4    0    0  0.40310810387E+02 -0.74700901243E+02 -0.22520984210E+03  0.24067542263E+03  0.00000000000E+00 0. -1.
        -13    1    3    3    0    0 -0.16424496255E+02  0.53763075001E+02 -0.10736912215E+03  0.12119554737E+03  0.00000000000E+00 0.  1.
         13    1    3    3    0    0  0.47657747236E+02  0.34433393272E+02 -0.34214580612E+03  0.34716087350E+03  0.00000000000E+00 0. -1.
          3    1    1    2  501    0 -0.46498943856E+02  0.24981871210E+02 -0.33899131378E+03  0.34307631292E+03  0.00000000000E+00 0. -1.
<scales pt_clust_5="13000.00000" pt_clust_6="13000.00000" pt_clust_7="13000.00000" pt_clust_8="13000.00000" pt_clust_9="52.78493"></scales>
<clustering>
<clus scale="   52.785">  1  9  2 -1</clus>
<clus scale="   79.629">  5  6 -1 -1</clus>
<clus scale="   92.412">  7  8 -1 -1</clus>
<clus scale="  128.490">  1  5  2 -1</clus>
<clus scale="   52.785">  1  5  2 -1</clus>
</clustering>
</event>
<event>
 9    2  0.1488992E-004  0.8426086E+02  0.7546771E-02  0.1320093E+00
          2   -1    0    0  502    0 -0.00000000000E+00  0.00000000000E+00  0.15045479511E+04  0.15045479511E+04  0.00000000000E+00 0. -1.
         21   -1    0    0  501  502  0.00000000000E+00 -0.00000000000E+00 -0.26464300116E+02  0.26464300116E+02  0.00000000000E+00 0.  1.
         24    2    1    2    0    0  0.15154578950E+02 -0.24146229841E+02  0.13472753244E+04  0.13499549636E+04  0.80093085118E+02 0.  0.
         23    2    1    2    0    0  0.12367706355E+02  0.15413923268E+02  0.13042768991E+03  0.15218040677E+03  0.75874532737E+02 0.  0.
        -11    1    3    3    0    0  0.27422105817E+02 -0.34654517742E+01  0.15552220565E+03  0.15795929126E+03  0.00000000000E+00 0.  1.
         12    1    3    3    0    0 -0.12267526867E+02 -0.20680778067E+02  0.11917531187E+04  0.11919956723E+04  0.00000000000E+00 0. -1.
        -11    1    4    4    0    0  0.38758192479E+02  0.24362467577E+02  0.53789030640E+02  0.70632762425E+02  0.00000000000E+00 0.  1.
         11    1    4    4    0    0 -0.26390486125E+02 -0.89485443091E+01  0.76638659274E+02  0.81547644346E+02  0.00000000000E+00 0. -1.
          1    1    1    2  501    0 -0.27522285304E+02  0.87323065734E+01  0.38063671211E+00  0.28876880904E+02  0.00000000000E+00 0. -1.
<scales pt_clust_5="13000.00000" pt_clust_6="13000.00000" pt_clust_7="13000.00000" pt_clust_8="13000.00000" pt_clust_9="28.87437"></scales>
<clustering>
<clus scale="   28.874">  2  9  1 -1</clus>
<clus scale="   75.875">  7  8 -1 -1</clus>
<clus scale="   80.093">  5  6 -1 -1</clus>
<clus scale="   80.262">  2  7  1 -1</clus>
<clus scale="   28.874">  2  5  1 -1</clus>
</clustering>
</event>
<event>
 9    2  0.1488992E-004  0.1614572E+03  0.7546771E-02  0.1188434E+00
         -1   -1    0    0    0  501 -0.00000000000E+00  0.00000000000E+00  0.37929827052E+03  0.37929827052E+03  0.00000000000E+00 0.  1.
         21   -1    0    0  501  502  0.00000000000E+00 -0.00000000000E+00 -0.14014124325E+03  0.14014124325E+03  0.00000000000E+00 0. -1.
         23    2    1    2    0    0  0.15651674857E+03 -0.46062245114E+02  0.20719047961E+03  0.27853081258E+03  0.89623075740E+02 0.  0.
         24    2    1    2    0    0 -0.10283413446E+03  0.24268558032E+02  0.88745511783E+02  0.15978756571E+03  0.80575915602E+02 0.  0.
        -11    1    4    4    0    0 -0.20545929243E+02  0.12438142046E+02  0.70766874380E+02  0.74731473260E+02  0.00000000000E+00 0.  1.
         12    1    4    4    0    0 -0.82288205217E+02  0.11830415985E+02  0.17978637403E+02  0.85056092452E+02  0.00000000000E+00 0. -1.
        -13    1    3    3    0    0  0.52320214690E+02 -0.28612917734E+02  0.18777487385E+02  0.62519580604E+02  0.00000000000E+00 0. -1.
         13    1    3    3    0    0  0.10419653388E+03 -0.17449327380E+02  0.18841299222E+03  0.21601123197E+03  0.00000000000E+00 0.  1.
         -2    1    1    2    0  502 -0.53682614112E+02  0.21793687082E+02 -0.56778964125E+02  0.81121135481E+02  0.00000000000E+00 0.  1.
<scales pt_clust_5="13000.00000" pt_clust_6="13000.00000" pt_clust_7="13000.00000" pt_clust_8="13000.00000" pt_clust_9="57.93779"></scales>
<clustering>
<clus scale="   57.938">  2  9  1 -1</clus>
<clus scale="   80.576">  5  6 -1 -1</clus>
<clus scale="   89.623">  7  8 -1 -1</clus>
<clus scale="  156.616">  2  5  1 -1</clus>
<clus scale="   57.938">  2  5  1 -1</clus>
</clustering>
</event>
<event>
 9    2  0.1488992E-004  0.2192289E+03  0.7546771E-02  0.1135553E+00
         21   -1    0    0  501  502  0.00000000000E+00  0.00000000000E+00  0.22789600806E+03  0.22789600806E+03  0.00000000000E+00 0.  1.
          2   -1    0    0  502    0 -0.00000000000E+00 -0.00000000000E+00 -0.80907700326E+03  0.80907700326E+03  0.00000000000E+00 0. -1.
         24    2    1    2    0    0  0.19550702474E+03 -0.67587643085E+02 -0.66844552376E+03  0.70449373191E+03  0.81859109733E+02 0.  0.
         23    2    1    2    0    0 -0.12626420568E+03  0.10198804824E+03 -0.31139111338E+02  0.19106719433E+03  0.95879178517E+02 0.  0.
        -11    1    3    3    0    0  0.88355944355E+02  0.52360248547E+01 -0.20525487881E+03  0.22352573483E+03  0.00000000000E+00 0.  1.
         12    1    3    3    0    0  0.10715108039E+03 -0.72823667940E+02 -0.46319064495E+03  0.48096799708E+03  0.00000000000E+00 0. -1.
        -13    1    4    4    0    0 -0.41959340989E+02  0.28791434977E+02 -0.57055486217E+02  0.76451694106E+02  0.00000000000E+00 0. -1.
         13    1    4    4    0    0 -0.84304864695E+02  0.73196613261E+02  0.25916374879E+02  0.11461550022E+03  0.00000000000E+00 0.  1.
          1    1    1    2  501    0 -0.69242819060E+02 -0.34400405153E+02  0.11840363990E+03  0.14141208508E+03  0.00000000000E+00 0. -1.
<scales pt_clust_5="13000.00000" pt_clust_6="13000.00000" pt_clust_7="13000.00000" pt_clust_8="13000.00000" pt_clust_9="77.31724"></scales>
<clustering>
<clus scale="   77.317">  1  9  2 -1</clus>
<clus scale="   81.859">  5  6 -1 -1</clus>
<clus scale="   95.879">  7  8 -1 -1</clus>
<clus scale="  213.470">  2  5  1 -1</clus>
<clus scale="   77.317">  1  5  2 -1</clus>
</clustering>
</event>
<event>
 9    2  0.1488992E-004  0.9551833E+02  0.7546771E-02  0.1297271E+00
         21   -1    0    0  501  502  0.00000000000E+00  0.00000000000E+00  0.10599929633E+03  0.10599929633E+03  0.00000000000E+00 0.  1.
          2   -1    0    0  502    0 -0.00000000000E+00 -0.00000000000E+00 -0.28364292898E+03  0.28364292898E+03  0.00000000000E+00 0. -1.
         23    2    1    2    0    0 -0.13580292315E+02 -0.11299334368E+02 -0.18888027497E+03  0.21104119357E+03  0.92469064080E+02 0.  0.
         24    2    1    2    0    0  0.54530986593E+02  0.43622152717E+02  0.46240258164E+02  0.11577606003E+03  0.79933809465E+02 0.  0.
        -13    1    4    4    0    0  0.26008431877E+02  0.13827207779E+02  0.64317863690E+02  0.70741909738E+02  0.00000000000E+00 0.  1.
         14    1    4    4    0    0  0.28522554716E+02  0.29794944938E+02 -0.18077605526E+02  0.45034150297E+02  0.00000000000E+00 0. -1.
        -11    1    3    3    0    0 -0.30957724804E+02  0.31185891598E+02 -0.12407469461E+03  0.13162625271E+03  0.00000000000E+00 0.  1.
         11    1    3    3    0    0  0.17377432488E+02 -0.42485225965E+02 -0.64805580360E+02  0.79414940855E+02  0.00000000000E+00 0. -1.
          1    1    1    2  501    0 -0.40950694278E+02 -0.32322818349E+02 -0.35003615843E+02  0.62824971707E+02  0.00000000000E+00 0. -1.
<scales pt_clust_5="13000.00000" pt_clust_6="13000.00000" pt_clust_7="13000.00000" pt_clust_8="13000.00000" pt_clust_9="52.17017"></scales>
<clustering>
<clus scale="   52.170">  1  9  2 -1</clus>
<clus scale="   79.934">  5  6 -1 -1</clus>
<clus scale="   83.442">  1  5  2 -1</clus>
<clus scale="   92.469">  7  8 -1 -1</clus>
<clus scale="   52.170">  1  5  2 -1</clus>
</clustering>
</event>
<event>
 9    2  0.1488992E-004  0.1269875E+03  0.7546771E-02  0.1237049E+00
          2   -1    0    0  502    0 -0.00000000000E+00  0.00000000000E+00  0.55315472405E+03  0.55315472405E+03  0.00000000000E+00 0. -1.
         21   -1    0    0  501  502  0.00000000000E+00 -0.00000000000E+00 -0.13530561960E+03  0.13530561960E+03  0.00000000000E+00 0.  1.
         23    2    1    2    0    0  0.74853202757E+02  0.37256164798E+02  0.48933511497E+03  0.50557675585E+03  0.95749556308E+02 0.  0.
         24    2    1    2    0    0 -0.63015847687E+02 -0.56413001204E+02 -0.81149074583E+01  0.11563030490E+03  0.78428897247E+02 0.  0.
        -11    1    4    4    0    0 -0.31976107493E+02 -0.66485561854E+02 -0.26238313712E+02  0.78302301958E+02  0.00000000000E+00 0.  1.
         12    1    4    4    0    0 -0.31039740194E+02  0.10072560650E+02  0.18123406253E+02  0.37328002941E+02  0.00000000000E+00 0. -1.
        -11    1    3    3    0    0 -0.72975744987E+01  0.41768156092E+02  0.21622442586E+03  0.22034254196E+03  0.00000000000E+00 0. -1.
         11    1    3    3    0    0  0.82150777256E+02 -0.45119912938E+01  0.27311068911E+03  0.28523421389E+03  0.00000000000E+00 0.  1.
          1    1    1    2  501    0 -0.11837355070E+02  0.19156836407E+02 -0.63371103071E+02  0.67253282898E+02  0.00000000000E+00 0. -1.
<scales pt_clust_5="13000.00000" pt_clust_6="13000.00000" pt_clust_7="13000.00000" pt_clust_8="13000.00000" pt_clust_9="22.51904"></scales>
<clustering>
<clus scale="   22.519">  2  9  1 -1</clus>
<clus scale="   78.429">  5  6 -1 -1</clus>
<clus scale="   95.750">  7  8 -1 -1</clus>
<clus scale="  114.494">  2  5  1 -1</clus>
<clus scale="   22.519">  2  5  1 -1</clus>
</clustering>
</event>
<event>
 9    2  0.1488992E-004  0.1522929E+03  0.7546771E-02  0.1219325E+00
          2   -1    0    0  502    0 -0.00000000000E+00  0.00000000000E+00  0.14595698370E+03  0.14595698370E+03  0.00000000000E+00 0. -1.
         21   -1    0    0  501  502  0.00000000000E+00 -0.00000000000E+00 -0.27720564372E+03  0.27720564372E+03  0.00000000000E+00 0. -1.
         24    2    1    2    0    0 -0.41312911111E+02  0.27202383300E+02 -0.32501505397E+02  0.10118193610E+03  0.82065279248E+02 0.  0.
         23    2    1    2    0    0 -0.86217554170E+02 -0.31388541940E+02  0.35067700852E+02  0.13708082911E+03  0.95617481950E+02 0.  0.
        -11    1    3    3    0    0 -0.35566850257E+01 -0.27758942632E+02 -0.16927110550E+02  0.32706818493E+02  0.00000000000E+00 0.  1.
         12    1    3    3    0    0 -0.37756226085E+02  0.54961325931E+02 -0.15574394847E+02  0.68475117606E+02  0.00000000000E+00 0. -1.
        -13    1    4    4    0    0 -0.98250407020E+02 -0.48337159600E+02  0.19757940290E+02  0.11126544694E+03  0.00000000000E+00 0. -1.
         13    1    4    4    0    0  0.12032852850E+02  0.16948617659E+02  0.15309760562E+02  0.25815382173E+02  0.00000000000E+00 0.  1.
          1    1    1    2  501    0  0.12753046528E+03  0.41861586409E+01 -0.13381485547E+03  0.18489986221E+03  0.00000000000E+00 0. -1.
<scales pt_clust_5="13000.00000" pt_clust_6="13000.00000" pt_clust_7="13000.00000" pt_clust_8="13000.00000" pt_clust_9="118.53448"></scales>
<clustering>
<clus scale="   82.065">  5  6 -1 -1</clus>
<clus scale="   95.617">  7  8 -1 -1</clus>
<clus scale="   95.820">  1  5  2 -1</clus>
<clus scale="  118.534">  2  9  1 -1</clus>
<clus scale="  118.534">  2  5  1 -1</clus>
</clustering>
</event>
<event>
 9    2  0.1488992E-004  0.1046384E+03  0.7546771E-02  0.1275304E+00
         21   -1    0    0  501  502  0.00000000000E+00  0.00000000000E+00  0.85390924202E+02  0.85390924202E+02  0.00000000000E+00 0.  1.
         -3   -1    0    0    0  501 -0.00000000000E+00 -0.00000000000E+00 -0.29400813276E+03  0.29400813276E+03  0.00000000000E+00 0.  1.
         23    2    1    2    0    0 -0.18887084285E+02 -0.35644507156E+02 -0.18676156502E+03  0.21330248869E+03  0.94819917043E+02 0.  0.
         24    2    1    2    0    0 -0.15628464527E+02  0.71367346678E+02 -0.10559363873E+01  0.11224424993E+03  0.85206276560E+02 0.  0.
        -13    1    4    4    0    0 -0.20058146738E+02  0.90162471645E+02  0.33904683847E+01  0.92428868973E+02  0.00000000000E+00 0.  1.
         14    1    4    4    0    0  0.44296822113E+01 -0.18795124967E+02 -0.44464047720E+01  0.19815380956E+02  0.00000000000E+00 0. -1.
        -11    1    3    3    0    0 -0.48926920828E+02 -0.16958408756E+02 -0.16211989517E+03  0.17018898795E+03  0.00000000000E+00 0.  1.
         11    1    3    3    0    0  0.30039836543E+02 -0.18686098400E+02 -0.24641669852E+02  0.43113500739E+02  0.00000000000E+00 0. -1.
         -4    1    1    2    0  502  0.34515548812E+02 -0.35722839522E+02 -0.20799707145E+02  0.53852318340E+02  0.00000000000E+00 0.  1.
<scales pt_clust_5="13000.00000" pt_clust_6="13000.00000" pt_clust_7="13000.00000" pt_clust_8="13000.00000" pt_clust_9="49.67338"></scales>
<clustering>
<clus scale="   49.673">  1  9  2 -1</clus>
<clus scale="   85.206">  5  6 -1 -1</clus>
<clus scale="   94.820">  7  8 -1 -1</clus>
<clus scale="   96.013">  1  5  2 -1</clus>
<clus scale="   49.673">  1  5  2 -1</clus>
</clustering>
</event>
<event>
 9    2  0.1488992E-004  0.1182457E+03  0.7546771E-02  0.1249041E+00
         21   -1    0    0  501  502  0.00000000000E+00  0.00000000000E+00  0.31533549701E+03  0.31533549701E+03  0.00000000000E+00 0. -1.
          2   -1    0    0  502    0 -0.00000000000E+00 -0.00000000000E+00 -0.14251847163E+03  0.14251847163E+03  0.00000000000E+00 0. -1.
         23    2    1    2    0    0  0.11704409969E+02  0.64114852157E+02 -0.33168513991E+02  0.11488125100E+03  0.88599345543E+02 0.  0.
         24    2    1    2    0    0 -0.15315389589E+02 -0.95807579540E+02 -0.91340076398E+01  0.12550113870E+03  0.79078772521E+02 0.  0.
        -13    1    4    4    0    0 -0.26038745150E+02 -0.20542952732E+02 -0.32025422414E+02  0.46104846131E+02  0.00000000000E+00 0.  1.
         14    1    4    4    0    0  0.10723355562E+02 -0.75264626808E+02  0.22891414775E+02  0.79396292567E+02  0.00000000000E+00 0. -1.
        -11    1    3    3    0    0 -0.93603040213E+01  0.59472004567E+02 -0.56881461343E+02  0.82825329840E+02  0.00000000000E+00 0. -1.
         11    1    3    3    0    0  0.21064713990E+02  0.46428475898E+01  0.23712947351E+02  0.32055921158E+02  0.00000000000E+00 0.  1.
          1    1    1    2  501    0  0.36109796196E+01  0.31692727383E+02  0.21511954701E+03  0.21747157895E+03  0.00000000000E+00 0. -1.
<scales pt_clust_5="13000.00000" pt_clust_6="13000.00000" pt_clust_7="13000.00000" pt_clust_8="13000.00000" pt_clust_9="31.89778"></scales>
<clustering>
<clus scale="   31.898">  1  9  2 -1</clus>
<clus scale="   79.079">  5  6 -1 -1</clus>
<clus scale="   88.599">  7  8 -1 -1</clus>
<clus scale="  111.291">  1  5  2 -1</clus>
<clus scale="   31.898">  1  5  2 -1</clus>
</clustering>
</event>
<event>
 9    2  0.1488992E-004  0.2895087E+03  0.7546771E-02  0.1106675E+00
          2   -1    0    0  502    0 -0.00000000000E+00  0.00000000000E+00  0.18443857583E+03  0.18443857583E+03  0.00000000000E+00 0. -1.
         21   -1    0    0  501  502  0.00000000000E+00 -0.00000000000E+00 -0.91128889320E+03  0.91128889320E+03  0.00000000000E+00 0. -1.
         24    2    1    2    0    0  0.14861654190E+03  0.94450276648E+02 -0.99744117155E+02  0.21511899268E+03  0.72935319430E+02 0.  0.
         23    2    1    2    0    0 -0.23871834134E+03  0.16865677732E+03 -0.47048241652E+03  0.56143036662E+03  0.91754004162E+02 0.  0.
        -13    1    3    3    0    0  0.51360579008E+02  0.31405171545E+02  0.29392668799E+01  0.60272988689E+02  0.00000000000E+00 0.  1.
         14    1    3    3    0    0  0.97255962890E+02  0.63045105103E+02 -0.10268338404E+03  0.15484600399E+03  0.00000000000E+00 0. -1.
        -11    1    4    4    0    0 -0.23836046152E+03  0.13989418649E+03 -0.40998833635E+03  0.49444567849E+03  0.00000000000E+00 0. -1.
         11    1    4    4    0    0 -0.35787982649E+00  0.28762590828E+02 -0.60494080172E+02  0.66984688138E+02  0.00000000000E+00 0.  1.
          1    1    1    2  501    0  0.90101799446E+02 -0.26310705397E+03 -0.15662378369E+03  0.31917810973E+03  0.00000000000E+00 0. -1.
<scales pt_clust_5="13000.00000" pt_clust_6="13000.00000" pt_clust_7="13000.00000" pt_clust_8="13000.00000" pt_clust_9="274.58432"></scales>
<clustering>
<clus scale="   72.935">  5  6 -1 -1</clus>
<clus scale="   91.754">  7  8 -1 -1</clus>
<clus scale="  190.597">  1  5  2 -1</clus>
<clus scale="  274.584">  2  9  1 -1</clus>
<clus scale="  274.584">  2  5  1 -1</clus>
</clustering>
</event>
<event>
 9    2  0.1488992E-004  0.9276933E+02  0.7546771E-02  0.1303448E+00
          2   -1    0    0  502    0 -0.00000000000E+00  0.00000000000E+00  0.17376318477E+03  0.17376318477E+03  0.00000000000E+00 0. -1.
         21   -1    0    0  501  502  0.00000000000E+00 -0.00000000000E+00 -0.15412872060E+03  0.15412872060E+03  0.00000000000E+00 0.  1.
         24    2    1    2    0    0  0.16382033390E+02  0.11193039744E+02  0.97937440069E+02  0.12789420290E+03  0.79821862998E+02 0.  0.
         23    2    1    2    0    0 -0.52767668111E+01  0.54299581443E+02 -0.80524225012E+02  0.13353309291E+03  0.91491241523E+02 0.  0.
        -13    1    3    3    0    0 -0.31200850983E+02 -0.25376267920E+01  0.49855924690E+02  0.58868887186E+02  0.00000000000E+00 0.  1.
         14    1    3    3    0    0  0.47582884373E+02  0.13730666536E+02  0.48081515379E+02  0.69025315718E+02  0.00000000000E+00 0. -1.
        -11    1    4    4    0    0 -0.24528982651E+02  0.51676657781E+01 -0.76623696427E+02  0.80619889690E+02  0.00000000000E+00 0.  1.
         11    1    4    4    0    0  0.19252215840E+02  0.49131915665E+02 -0.39005285845E+01  0.52913203219E+02  0.00000000000E+00 0. -1.
          1    1    1    2  501    0 -0.11105266579E+02 -0.65492621187E+02  0.22212491177E+01  0.66464609556E+02  0.00000000000E+00 0. -1.
<scales pt_clust_5="13000.00000" pt_clust_6="13000.00000" pt_clust_7="13000.00000" pt_clust_8="13000.00000" pt_clust_9="66.42748"></scales>
<clustering>
<clus scale="   66.427">  2  9  1 -1</clus>
<clus scale="   79.822">  5  6 -1 -1</clus>
<clus scale="   81.284">  1  5  2 -1</clus>
<clus scale="   91.491">  7  8 -1 -1</clus>
<clus scale="   66.427">  2  5  1 -1</clus>
</clustering>
</event>
<event>
 9    2  0.1488992E-004  0.9742153E+02  0.7546771E-02  0.1295767E+00
          2   -1    0    0  502    0 -0.00000000000E+00  0.00000000000E+00  0.41945323705E+03  0.41945323705E+03  0.00000000000E+00 0. -1.
         21   -1    0    0  501  502  0.00000000000E+00 -0.00000000000E+00 -0.54425039444E+02  0.54425039444E+02  0.00000000000E+00 0.  1.
         23    2    1    2    0    0 -0.12765720334E+02 -0.32097528182E+01  0.20057467985E+03  0.22284660795E+03  0.96214044452E+02 0.  0.
         24    2    1    2    0    0 -0.36618940952E+02  0.52231413034E+02  0.41980494957E+02  0.11017142130E+03  0.79412296088E+02 0.  0.
        -13    1    4    4    0    0  0.75715447612E+00  0.49252123040E+02  0.51729283277E+02  0.71430131283E+02  0.00000000000E+00 0.  1.
         14    1    4    4    0    0 -0.37376095428E+02  0.29792899946E+01 -0.97487883196E+01  0.38741290015E+02  0.00000000000E+00 0. -1.
        -11    1    3    3    0    0  0.32053843220E+02 -0.30642452122E+02  0.84405836536E+02  0.95345445505E+02  0.00000000000E+00 0. -1.
         11    1    3    3    0    0 -0.44819563554E+02  0.27432699303E+02  0.11616884331E+03  0.12750116244E+03  0.00000000000E+00 0.  1.
          1    1    1    2  501    0  0.49384661285E+02 -0.49021660216E+02  0.12247302280E+03  0.14086024725E+03  0.00000000000E+00 0. -1.
<scales pt_clust_5="13000.00000" pt_clust_6="13000.00000" pt_clust_7="13000.00000" pt_clust_8="13000.00000" pt_clust_9="69.58429"></scales>
<clustering>
<clus scale="   69.584">  2  9  1 -1</clus>
<clus scale="   79.412">  5  6 -1 -1</clus>
<clus scale="   80.871">  2  5  1 -1</clus>
<clus scale="   96.214">  7  8 -1 -1</clus>
<clus scale="   69.584">  2  5  1 -1</clus>
</clustering>
</event>
<event>
 9    2  0.1488992E-004  0.1662383E+03  0.7546771E-02  0.1198204E+00
         21   -1    0    0  501  502  0.00000000000E+00  0.00000000000E+00  0.18278900199E+03  0.18278900199E+03  0.00000000000E+00 0. -1.
          2   -1    0    0  502    0 -0.00000000000E+00 -0.00000000000E+00 -0.58214147554E+03  0.58214147554E+03  0.00000000000E+00 0. -1.
         23    2    1    2    0    0 -0.33465352652E+02  0.14901537396E+02 -0.40768009097E+02  0.12274009310E+03  0.10982310433E+03 0.  0.
         24    2    1    2    0    0 -0.60970626268E+02 -0.12412505169E+03 -0.44530509944E+03  0.47376117459E+03  0.83836586520E+02 0.  0.
        -13    1    4    4    0    0 -0.51315224187E+02 -0.82722655332E+02 -0.17605740530E+03  0.20117778182E+03  0.00000000000E+00 0.  1.
         14    1    4    4    0    0 -0.96554020812E+01 -0.41402396358E+02 -0.26924769414E+03  0.27258339277E+03  0.00000000000E+00 0. -1.
        -11    1    3    3    0    0 -0.40073368516E+02 -0.24882819080E+02 -0.61409790508E+02  0.77435081971E+02  0.00000000000E+00 0. -1.
         11    1    3    3    0    0  0.66080158639E+01  0.39784356476E+02  0.20641781411E+02  0.45305011133E+02  0.00000000000E+00 0.  1.
          1    1    1    2  501    0  0.94435978920E+02  0.10922351429E+03  0.86720634991E+02  0.16842920983E+03  0.00000000000E+00 0. -1.
<scales pt_clust_5="13000.00000" pt_clust_6="13000.00000" pt_clust_7="13000.00000" pt_clust_8="13000.00000" pt_clust_9="143.54997"></scales>
<clustering>
<clus scale="   83.837">  5  6 -1 -1</clus>
<clus scale="  109.823">  7  8 -1 -1</clus>
<clus scale="  115.772">  2  7  1 -1</clus>
<clus scale="  143.550">  1  9  2 -1</clus>
<clus scale="  143.550">  1  5  2 -1</clus>
</clustering>
</event>
<event>
 9    2  0.1488992E-004  0.1079636E+03  0.7546771E-02  0.1275755E+00
         21   -1    0    0  501  502  0.00000000000E+00  0.00000000000E+00  0.15739272597E+03  0.15739272597E+03  0.00000000000E+00 0. -1.
          2   -1    0    0  502    0 -0.00000000000E+00 -0.00000000000E+00 -0.49648472016E+03  0.49648472016E+03  0.00000000000E+00 0. -1.
         24    2    1    2    0    0 -0.25451795357E+02 -0.50079752195E+02 -0.37537883519E+03  0.38718488386E+03  0.76466259934E+02 0.  0.
         23    2    1    2    0    0 -0.54338571746E+01 -0.38141535644E+02 -0.67808819941E+02  0.12678964669E+03  0.99966368844E+02 0.  0.
        -13    1    3    3    0    0 -0.22821786212E+02 -0.23701671195E+02 -0.45008608885E+02  0.55752829678E+02  0.00000000000E+00 0.  1.
         14    1    3    3    0    0 -0.26300091450E+01 -0.26378081000E+02 -0.33037022631E+03  0.33143205418E+03  0.00000000000E+00 0. -1.
        -11    1    4    4    0    0 -0.44595835087E+02 -0.55082008388E+01 -0.39910585636E+01  0.45111609726E+02  0.00000000000E+00 0.  1.
         11    1    4    4    0    0  0.39161977912E+02 -0.32633334805E+02 -0.63817761377E+02  0.81678036960E+02  0.00000000000E+00 0. -1.
          1    1    1    2  501    0  0.30885652532E+02  0.88221287839E+02  0.10409566095E+03  0.13990291558E+03  0.00000000000E+00 0. -1.
<scales pt_clust_5="13000.00000" pt_clust_6="13000.00000" pt_clust_7="13000.00000" pt_clust_8="13000.00000" pt_clust_9="93.47149"></scales>
<clustering>
<clus scale="   76.466">  5  6 -1 -1</clus>
<clus scale="   93.471">  1  9  2 -1</clus>
<clus scale="   86.660">  2  5  1 -1</clus>
<clus scale="   99.966">  7  8 -1 -1</clus>
<clus scale="   93.471">  1  5  2 -1</clus>
</clustering>
</event>
<event>
 9    2  0.1488992E-004  0.1794733E+03  0.7546771E-02  0.1189408E+00
          2   -1    0    0  502    0 -0.00000000000E+00  0.00000000000E+00  0.33132387416E+03  0.33132387416E+03  0.00000000000E+00 0. -1.
         21   -1    0    0  501  502  0.00000000000E+00 -0.00000000000E+00 -0.30773488903E+03  0.30773488903E+03  0.00000000000E+00 0.  1.
         23    2    1    2    0    0 -0.31616033261E+02 -0.54774456010E+02 -0.16080379585E+03  0.19573320218E+03  0.91944608785E+02 0.  0.
         24    2    1    2    0    0  0.43763022826E+02 -0.13837480470E+03 -0.88366888711E+01  0.16984463977E+03  0.87785681322E+02 0.  0.
        -11    1    4    4    0    0  0.67066416213E+02 -0.82264032590E+02  0.90115415158E+01  0.10651987196E+03  0.00000000000E+00 0.  1.
         12    1    4    4    0    0 -0.23303393387E+02 -0.56110772108E+02 -0.17848230387E+02  0.63324767808E+02  0.00000000000E+00 0. -1.
        -13    1    3    3    0    0 -0.21926439699E+02 -0.24362814871E+02 -0.16050124117E+03  0.16381380871E+03  0.00000000000E+00 0.  1.
         13    1    3    3    0    0 -0.96895935618E+01 -0.30411641139E+02 -0.30255467991E+00  0.31919393470E+02  0.00000000000E+00 0. -1.
          1    1    1    2  501    0 -0.12146989566E+02  0.19314926071E+03  0.19322946985E+03  0.27348092124E+03  0.00000000000E+00 0. -1.
<scales pt_clust_5="13000.00000" pt_clust_6="13000.00000" pt_clust_7="13000.00000" pt_clust_8="13000.00000" pt_clust_9="156.53872"></scales>
<clustering>
<clus scale="   87.786">  5  6 -1 -1</clus>
<clus scale="   91.945">  7  8 -1 -1</clus>
<clus scale="  111.596">  1  7  2 -1</clus>
<clus scale="  156.539">  2  9  1 -1</clus>
<clus scale="  156.539">  2  5  1 -1</clus>
</clustering>
</event>
<event>
 9    2  0.1488992E-004  0.4924076E+03  0.7546771E-02  0.1015882E+00
          2   -1    0    0  502    0 -0.00000000000E+00  0.00000000000E+00  0.21988034490E+04  0.21988034490E+04  0.00000000000E+00 0. -1.
         21   -1    0    0  501  502  0.00000000000E+00 -0.00000000000E+00 -0.11899699198E+03  0.11899699198E+03  0.00000000000E+00 0. -1.
         23    2    1    2    0    0  0.15026785385E+03  0.46952595369E+03  0.11554901084E+04  0.12594938243E+04  0.90179008633E+02 0.  0.
         24    2    1    2    0    0 -0.16784725659E+03 -0.44330867122E+03  0.89028319996E+03  0.10118885544E+04  0.81357181205E+02 0.  0.
        -11    1    4    4    0    0  0.60640945882E+01 -0.32986942158E+02  0.42835227218E+02  0.54403752507E+02  0.00000000000E+00 0.  1.
         12    1    4    4    0    0 -0.17391135118E+03 -0.41032172906E+03  0.84744797275E+03  0.95748480193E+03  0.00000000000E+00 0. -1.
        -11    1    3    3    0    0  0.24063453531E+02  0.19842136778E+02  0.44703686853E+02  0.54508529662E+02  0.00000000000E+00 0.  1.
         11    1    3    3    0    0  0.12620440032E+03  0.44968381691E+03  0.11107864216E+04  0.12049852946E+04  0.00000000000E+00 0. -1.
          1    1    1    2  501    0  0.17579402738E+02 -0.26217282469E+02  0.34033148627E+02  0.46418062284E+02  0.00000000000E+00 0. -1.
<scales pt_clust_5="13000.00000" pt_clust_6="13000.00000" pt_clust_7="13000.00000" pt_clust_8="13000.00000" pt_clust_9="31.56551"></scales>
<clustering>
<clus scale="   31.566">  2  9  1 -1</clus>
<clus scale="   81.357">  5  6 -1 -1</clus>
<clus scale="   90.179">  7  8 -1 -1</clus>
<clus scale="  490.869">  2  5  1 -1</clus>
<clus scale="   31.566">  2  5  1 -1</clus>
</clustering>
</event>
<event>
 9    2  0.1488992E-004  0.9211398E+02  0.7546771E-02  0.1329300E+00
          2   -1    0    0  502    0 -0.00000000000E+00  0.00000000000E+00  0.38326777247E+03  0.38326777247E+03  0.00000000000E+00 0. -1.
         21   -1    0    0  501  502  0.00000000000E+00 -0.00000000000E+00 -0.36647742465E+02  0.36647742465E+02  0.00000000000E+00 0.  1.
         24    2    1    2    0    0  0.13058119829E+02  0.71385254992E+01  0.25039342199E+03  0.25577119718E+03  0.50005664568E+02 0.  0.
         23    2    1    2    0    0  0.38607085748E+01 -0.32857843842E+02  0.50781840768E+02  0.10925390912E+03  0.90901475969E+02 0.  0.
        -11    1    3    3    0    0 -0.11763000614E+01  0.27316810177E+02  0.14079429455E+03  0.14342463240E+03  0.00000000000E+00 0.  1.
         12    1    3    3    0    0  0.14234419891E+02 -0.20178284678E+02  0.10959912744E+03  0.11234656478E+03  0.00000000000E+00 0. -1.
        -11    1    4    4    0    0 -0.38174515483E+02 -0.14354761967E+02  0.21166852946E-03  0.40784222728E+02  0.00000000000E+00 0.  1.
         11    1    4    4    0    0  0.42035224058E+02 -0.18503081875E+02  0.50781629100E+02  0.68469686391E+02  0.00000000000E+00 0. -1.
          1    1    1    2  501    0 -0.16918828404E+02  0.25719318343E+02  0.45444767249E+02  0.54890408643E+02  0.00000000000E+00 0. -1.
<scales pt_clust_5="13000.00000" pt_clust_6="13000.00000" pt_clust_7="13000.00000" pt_clust_8="13000.00000" pt_clust_9="30.78524"></scales>
<clustering>
<clus scale="   30.785">  2  9  1 -1</clus>
<clus scale="   50.006">  5  6 -1 -1</clus>
<clus scale="   52.177">  1  5  2 -1</clus>
<clus scale="   90.901">  7  8 -1 -1</clus>
<clus scale="   30.785">  2  5  1 -1</clus>
</clustering>
</event>
<event>
 9    2  0.2459839E-004  0.9297855E+02  0.7546771E-02  0.1311416E+00
          2   -1    0    0  502    0 -0.00000000000E+00  0.00000000000E+00  0.56383049339E+03  0.56383049339E+03  0.00000000000E+00 0. -1.
         21   -1    0    0  501  502  0.00000000000E+00 -0.00000000000E+00 -0.26036954197E+03  0.26036954197E+03  0.00000000000E+00 0. -1.
         24    2    1    2    0    0 -0.21529131007E+01  0.21713293326E+01  0.49432823687E+03  0.49922782557E+03  0.69704134379E+02 0.  0.
         23    2    1    2    0    0 -0.19159006887E+02 -0.33121939495E+02  0.26889786397E+02  0.10399646330E+03  0.92887422970E+02 0.  0.
        -13    1    3    3    0    0 -0.75397872517E+01  0.33030483714E+02  0.16687140777E+03  0.17027603465E+03  0.00000000000E+00 0.  1.
         14    1    3    3    0    0  0.53868741510E+01 -0.30859154381E+02  0.32745682910E+03  0.32895179091E+03  0.00000000000E+00 0. -1.
        -13    1    4    4    0    0  0.30767117946E+02  0.10898003652E+01 -0.10882933124E+02  0.32653352737E+02  0.00000000000E+00 0. -1.
         13    1    4    4    0    0 -0.49926124834E+02 -0.34211739860E+02  0.37772719521E+02  0.71343110565E+02  0.00000000000E+00 0.  1.
          1    1    1    2  501    0  0.21311919988E+02  0.30950610162E+02 -0.21775707184E+03  0.22097574650E+03  0.00000000000E+00 0. -1.
<scales pt_clust_5="13000.00000" pt_clust_6="13000.00000" pt_clust_7="13000.00000" pt_clust_8="13000.00000" pt_clust_9="37.57843"></scales>
<clustering>
<clus scale="   37.578">  2  9  1 -1</clus>
<clus scale="   69.704">  5  6 -1 -1</clus>
<clus scale="   69.826">  1  5  2 -1</clus>
<clus scale="   92.887">  7  8 -1 -1</clus>
<clus scale="   37.578">  2  5  1 -1</clus>
</clustering>
</event>
<event>
 9    2  0.1488992E-004  0.1565405E+03  0.7546771E-02  0.1199426E+00
         21   -1    0    0  501  502  0.00000000000E+00  0.00000000000E+00  0.28569911375E+02  0.28569911375E+02  0.00000000000E+00 0.  1.
          2   -1    0    0  502    0 -0.00000000000E+00 -0.00000000000E+00 -0.12033731062E+04  0.12033731062E+04  0.00000000000E+00 0. -1.
         23    2    1    2    0    0  0.48594147001E+02 -0.11139682218E+03 -0.56156800848E+03  0.58773198309E+03  0.12369160310E+03 0.  0.
         24    2    1    2    0    0 -0.66024405897E+02  0.45731041821E+02 -0.32285293330E+03  0.34598685452E+03  0.94985981076E+02 0.  0.
        -13    1    4    4    0    0 -0.60296511688E+02 -0.15359451692E+02 -0.18224443305E+03  0.19257366241E+03  0.00000000000E+00 0.  1.
         14    1    4    4    0    0 -0.57278942087E+01  0.61090493513E+02 -0.14060850025E+03  0.15341319211E+03  0.00000000000E+00 0. -1.
        -11    1    3    3    0    0  0.34220230568E+02 -0.12949209633E+03 -0.53914247398E+03  0.55553022820E+03  0.00000000000E+00 0.  1.
         11    1    3    3    0    0  0.14373916432E+02  0.18095274150E+02 -0.22425534502E+02  0.32201754888E+02  0.00000000000E+00 0. -1.
          1    1    1    2  501    0  0.17430258896E+02  0.65665780362E+02 -0.29038225305E+03  0.29822417997E+03  0.00000000000E+00 0. -1.
<scales pt_clust_5="13000.00000" pt_clust_6="13000.00000" pt_clust_7="13000.00000" pt_clust_8="13000.00000" pt_clust_9="67.93978"></scales>
<clustering>
<clus scale="   67.940">  1  9  2 -1</clus>
<clus scale="   94.986">  5  6 -1 -1</clus>
<clus scale="  123.692">  7  8 -1 -1</clus>
<clus scale="  135.010">  1  5  2 -1</clus>
<clus scale="   67.940">  1  5  2 -1</clus>
</clustering>
</event>
<event>
 9    2  0.1488992E-004  0.2257478E+03  0.7546771E-02  0.1129827E+00
          2   -1    0    0  502    0 -0.00000000000E+00  0.00000000000E+00  0.12183702713E+04  0.12183702713E+04  0.00000000000E+00 0. -1.
         21   -1    0    0  501  502  0.00000000000E+00 -0.00000000000E+00 -0.23995356935E+03  0.23995356935E+03  0.00000000000E+00 0. -1.
         23    2    1    2    0    0  0.19189724129E+03  0.91845250094E+02  0.89326676702E+03  0.92262006697E+03  0.89678145261E+02 0.  0.
         24    2    1    2    0    0 -0.16632756963E+03  0.53092457222E+02 -0.15819721048E+03  0.25131217695E+03  0.87451606318E+02 0.  0.
        -13    1    4    4    0    0 -0.32892574480E+02 -0.19469079331E+02 -0.57610539945E+02  0.69137116071E+02  0.00000000000E+00 0.  1.
         14    1    4    4    0    0 -0.13343499515E+03  0.72561536552E+02 -0.10058667054E+03  0.18217506088E+03  0.00000000000E+00 0. -1.
        -11    1    3    3    0    0  0.29981174664E+02 -0.15184580026E+02  0.19521942003E+03  0.19809105044E+03  0.00000000000E+00 0.  1.
         11    1    3    3    0    0  0.16191606663E+03  0.10702983012E+03  0.69804734699E+03  0.72452901654E+03  0.00000000000E+00 0. -1.
          1    1    1    2  501    0 -0.25569671664E+02 -0.14493770732E+03  0.24334714546E+03  0.28439159677E+03  0.00000000000E+00 0. -1.
<scales pt_clust_5="13000.00000" pt_clust_6="13000.00000" pt_clust_7="13000.00000" pt_clust_8="13000.00000" pt_clust_9="147.17598"></scales>
<clustering>
<clus scale="   87.452">  5  6 -1 -1</clus>
<clus scale="   89.678">  7  8 -1 -1</clus>
<clus scale="  147.176">  2  9  1 -1</clus>
<clus scale="  224.873">  2  5  1 -1</clus>
<clus scale="  147.176">  2  5  1 -1</clus>
</clustering>
</event>
<event>
 9    2  0.1488992E-004  0.9136779E+02  0.7546771E-02  0.1304324E+00
         21   -1    0    0  501  502  0.00000000000E+00  0.00000000000E+00  0.43227257246E+02  0.43227257246E+02  0.00000000000E+00 0. -1.
          2   -1    0    0  502    0 -0.00000000000E+00 -0.00000000000E+00 -0.50978804921E+03  0.50978804921E+03  0.00000000000E+00 0. -1.
         24    2    1    2    0    0  0.20441396000E+02  0.38184558461E+02 -0.29309568275E+03  0.30721834549E+03  0.81253439231E+02 0.  0.
         23    2    1    2    0    0  0.18427745372E+02  0.24212247409E+02 -0.12959317503E+03  0.16018786015E+03  0.89106367894E+02 0.  0.
        -13    1    3    3    0    0  0.10060734669E+02 -0.21321083124E+02 -0.35358034981E+02  0.42497030548E+02  0.00000000000E+00 0.  1.
         14    1    3    3    0    0  0.10380661331E+02  0.59505641585E+02 -0.25773764777E+03  0.26472131494E+03  0.00000000000E+00 0. -1.
        -13    1    4    4    0    0 -0.34084834532E+02  0.23737741667E+02 -0.53454753618E+02  0.67695398727E+02  0.00000000000E+00 0. -1.
         13    1    4    4    0    0  0.52512579904E+02  0.47450574264E+00 -0.76138421415E+02  0.92492461420E+02  0.00000000000E+00 0.  1.
          1    1    1    2  501    0 -0.38869141372E+02 -0.62396805871E+02 -0.43871934186E+02  0.85609100819E+02  0.00000000000E+00 0. -1.
<scales pt_clust_5="13000.00000" pt_clust_6="13000.00000" pt_clust_7="13000.00000" pt_clust_8="13000.00000" pt_clust_9="73.51307"></scales>
<clustering>
<clus scale="   73.513">  1  9  2 -1</clus>
<clus scale="   81.253">  5  6 -1 -1</clus>
<clus scale="   83.727">  2  5  1 -1</clus>
<clus scale="   89.106">  7  8 -1 -1</clus>
<clus scale="   73.513">  1  5  2 -1</clus>
</clustering>
</event>
<event>
 9    2  0.1488992E-004  0.2391148E+03  0.7546771E-02  0.1121192E+00
          2   -1    0    0  502    0 -0.00000000000E+00  0.00000000000E+00  0.18037646324E+04  0.18037646324E+04  0.00000000000E+00 0. -1.
         21   -1    0    0  501  502  0.00000000000E+00 -0.00000000000E+00 -0.14956351093E+03  0.14956351093E+03  0.00000000000E+00 0. -1.
         24    2    1    2    0    0 -0.10222639970E+03 -0.19946027092E+03  0.15384723235E+04  0.15566596025E+04  0.77829246120E+02 0.  0.
         23    2    1    2    0    0  0.18847373297E+03  0.12115365344E+03  0.13735639249E+03  0.27818528597E+03  0.91212493736E+02 0.  0.
        -13    1    3    3    0    0 -0.51849538108E+02 -0.31744844482E+02  0.32814603444E+03  0.33373032477E+03  0.00000000000E+00 0.  1.
         14    1    3    3    0    0 -0.50376861593E+02 -0.16771542643E+03  0.12103262890E+04  0.12229292777E+04  0.00000000000E+00 0. -1.
        -11    1    4    4    0    0  0.12323382172E+03  0.84942940256E+02  0.38892062529E+02  0.15464304201E+03  0.00000000000E+00 0.  1.
         11    1    4    4    0    0  0.65239911252E+02  0.36210713189E+02  0.98464329958E+02  0.12354224396E+03  0.00000000000E+00 0. -1.
          1    1    1    2  501    0 -0.86247333268E+02  0.78306617473E+02 -0.21627594478E+02  0.11848325485E+03  0.00000000000E+00 0. -1.
<scales pt_clust_5="13000.00000" pt_clust_6="13000.00000" pt_clust_7="13000.00000" pt_clust_8="13000.00000" pt_clust_9="116.49261"></scales>
<clustering>
<clus scale="   77.829">  5  6 -1 -1</clus>
<clus scale="   91.212">  7  8 -1 -1</clus>
<clus scale="  116.493">  2  9  1 -1</clus>
<clus scale="  234.336">  1  5  2 -1</clus>
<clus scale="  116.493">  2  5  1 -1</clus>
</clustering>
</event>
<event>
 9    2  0.1488992E-004  0.1509228E+03  0.7546771E-02  0.1223475E+00
          2   -1    0    0  502    0 -0.00000000000E+00  0.00000000000E+00  0.64019050772E+03  0.64019050772E+03  0.00000000000E+00 0. -1.
         21   -1    0    0  501  502  0.00000000000E+00 -0.00000000000E+00 -0.84021222998E+02  0.84021222998E+02  0.00000000000E+00 0. -1.
         24    2    1    2    0    0  0.63828446051E+01  0.24064466029E+02  0.64056351312E+02  0.11067740495E+03  0.86755014796E+02 0.  0.
         23    2    1    2    0    0  0.30328662467E+02  0.77606222269E+02  0.48656296970E+03  0.50529632086E+03  0.10788092924E+03 0.  0.
        -13    1    3    3    0    0 -0.39696768247E+02  0.65857008869E+01  0.35853241111E+02  0.53894895525E+02  0.00000000000E+00 0.  1.
         14    1    3    3    0    0  0.46079612852E+02  0.17478765142E+02  0.28203110201E+02  0.56782509425E+02  0.00000000000E+00 0. -1.
        -11    1    4    4    0    0  0.54159998962E+02  0.10000019502E+02  0.30793899564E+03  0.31282540004E+03  0.00000000000E+00 0.  1.
         11    1    4    4    0    0 -0.23831336495E+02  0.67606202767E+02  0.17862397406E+03  0.19247092082E+03  0.00000000000E+00 0. -1.
          1    1    1    2  501    0 -0.36711507072E+02 -0.10167068830E+03  0.55499637179E+01  0.10823800491E+03  0.00000000000E+00 0. -1.
<scales pt_clust_5="13000.00000" pt_clust_6="13000.00000" pt_clust_7="13000.00000" pt_clust_8="13000.00000" pt_clust_9="105.54337"></scales>
<clustering>
<clus scale="   86.755">  5  6 -1 -1</clus>
<clus scale="   90.257">  1  5  2 -1</clus>
<clus scale="  105.543">  2  9  1 -1</clus>
<clus scale="  107.881">  7  8 -1 -1</clus>
<clus scale="  105.543">  2  5  1 -1</clus>
</clustering>
</event>
<event>
 9    2  0.1488992E-004  0.1013357E+03  0.7546771E-02  0.1283476E+00
          2   -1    0    0  502    0 -0.00000000000E+00  0.00000000000E+00  0.65271103578E+03  0.65271103578E+03  0.00000000000E+00 0. -1.
         21   -1    0    0  501  502  0.00000000000E+00 -0.00000000000E+00 -0.46671608844E+02  0.46671608844E+02  0.00000000000E+00 0.  1.
         24    2    1    2    0    0  0.34248671978E+02  0.15147553018E+02  0.41330785612E+03  0.42291305246E+03  0.81422638854E+02 0.  0.
         23    2    1    2    0    0 -0.40147709353E+02 -0.45827886336E+02  0.36722567462E+02  0.11736305357E+03  0.93346160340E+02 0.  0.
        -11    1    3    3    0    0  0.45219285468E+02 -0.21602672801E+02  0.19988499203E+03  0.20607151498E+03  0.00000000000E+00 0.  1.
         12    1    3    3    0    0 -0.10970613490E+02  0.36750225819E+02  0.21342286409E+03  0.21684153748E+03  0.00000000000E+00 0. -1.
        -11    1    4    4    0    0 -0.70608398204E+02 -0.32974429902E+02  0.30698802106E+02  0.83757240732E+02  0.00000000000E+00 0.  1.
         11    1    4    4    0    0  0.30460688850E+02 -0.12853456434E+02  0.60237653563E+01  0.33605812840E+02  0.00000000000E+00 0. -1.
          1    1    1    2  501    0  0.58990373749E+01  0.30680333318E+02  0.15600900336E+03  0.15910653859E+03  0.00000000000E+00 0. -1.
<scales pt_clust_5="13000.00000" pt_clust_6="13000.00000" pt_clust_7="13000.00000" pt_clust_8="13000.00000" pt_clust_9="31.24232"></scales>
<clustering>
<clus scale="   31.242">  2  9  1 -1</clus>
<clus scale="   81.423">  5  6 -1 -1</clus>
<clus scale="   90.471">  1  5  2 -1</clus>
<clus scale="   93.346">  7  8 -1 -1</clus>
<clus scale="   31.242">  2  5  1 -1</clus>
</clustering>
</event>
<event>
 9    2  0.1488992E-004  0.1544889E+03  0.7546771E-02  0.1201909E+00
         21   -1    0    0  501  502  0.00000000000E+00  0.00000000000E+00  0.89658284108E+02  0.89658284108E+02  0.00000000000E+00 0. -1.
          2   -1    0    0  502    0 -0.00000000000E+00 -0.00000000000E+00 -0.57240844205E+03  0.57240844205E+03  0.00000000000E+00 0. -1.
         23    2    1    2    0    0 -0.94078767470E+02 -0.18698358169E+02 -0.13002920891E+03  0.18606787923E+03  0.92267098265E+02 0.  0.
         24    2    1    2    0    0 -0.15219562233E+02  0.11888627383E+03 -0.27155102971E+03  0.30696542088E+03  0.78244659250E+02 0.  0.
        -11    1    4    4    0    0  0.98496122620E+01  0.23815006496E+02 -0.10173099030E+02  0.27706702077E+02  0.00000000000E+00 0.  1.
         12    1    4    4    0    0 -0.25069174495E+02  0.95071267333E+02 -0.26137793068E+03  0.27925871880E+03  0.00000000000E+00 0. -1.
        -13    1    3    3    0    0 -0.39331646240E+02 -0.26895297265E+02 -0.12091595942E+03  0.12996539791E+03  0.00000000000E+00 0. -1.
         13    1    3    3    0    0 -0.54747121230E+02  0.81969390953E+01 -0.91132494907E+01  0.56102481315E+02  0.00000000000E+00 0.  1.
          1    1    1    2  501    0  0.10929832970E+03 -0.10018791566E+03 -0.81169919320E+02  0.16903342605E+03  0.00000000000E+00 0. -1.
<scales pt_clust_5="13000.00000" pt_clust_6="13000.00000" pt_clust_7="13000.00000" pt_clust_8="13000.00000" pt_clust_9="133.20883"></scales>
<clustering>
<clus scale="   78.245">  5  6 -1 -1</clus>
<clus scale="   92.267">  7  8 -1 -1</clus>
<clus scale="  133.093">  2  7  1 -1</clus>
<clus scale="  133.209">  1  9  2 -1</clus>
<clus scale="  133.209">  1  5  2 -1</clus>
</clustering>
</event>
<event>
 9    2  0.1488992E-004  0.2088634E+03  0.7546771E-02  0.1143279E+00
          4   -1    0    0  502    0 -0.00000000000E+00  0.00000000000E+00  0.40980465790E+03  0.40980465790E+03  0.00000000000E+00 0. -1.
         21   -1    0    0  501  502  0.00000000000E+00 -0.00000000000E+00 -0.25519113386E+03  0.25519113386E+03  0.00000000000E+00 0.  1.
         23    2    1    2    0    0  0.41725317229E+02 -0.17611572940E+03  0.26344224818E+03  0.33218727971E+03  0.90492090453E+02 0.  0.
         24    2    1    2    0    0 -0.64336136661E+02  0.22228229737E+03 -0.12972908072E+03  0.27731593544E+03  0.80783262248E+02 0.  0.
        -11    1    4    4    0    0 -0.80571843728E+02  0.20873860031E+03 -0.11521650373E+03  0.25167134917E+03  0.00000000000E+00 0.  1.
         12    1    4    4    0    0  0.16235707067E+02  0.13543697058E+02 -0.14512576989E+02  0.25644586267E+02  0.00000000000E+00 0. -1.
        -11    1    3    3    0    0  0.64718854009E+02 -0.13940370270E+03  0.16990425945E+03  0.22910560833E+03  0.00000000000E+00 0.  1.
         11    1    3    3    0    0 -0.22993536780E+02 -0.36712026701E+02  0.93537988730E+02  0.10308167138E+03  0.00000000000E+00 0. -1.
          3    1    1    2  501    0  0.22610819432E+02 -0.46166567971E+02  0.20900356582E+02  0.55492576611E+02  0.00000000000E+00 0. -1.
<scales pt_clust_5="13000.00000" pt_clust_6="13000.00000" pt_clust_7="13000.00000" pt_clust_8="13000.00000" pt_clust_9="51.40626"></scales>
<clustering>
<clus scale="   51.406">  2  9  1 -1</clus>
<clus scale="   80.783">  5  6 -1 -1</clus>
<clus scale="   90.492">  7  8 -1 -1</clus>
<clus scale="  204.844">  2  5  1 -1</clus>
<clus scale="   51.406">  2  5  1 -1</clus>
</clustering>
</event>
<event>
 9    2  0.1488992E-004  0.9263891E+02  0.7546771E-02  0.1302029E+00
         21   -1    0    0  501  502  0.00000000000E+00  0.00000000000E+00  0.27881856688E+03  0.27881856688E+03  0.00000000000E+00 0. -1.
         -1   -1    0    0    0  501 -0.00000000000E+00 -0.00000000000E+00 -0.41986493784E+02  0.41986493784E+02  0.00000000000E+00 0.  1.
         23    2    1    2    0    0  0.49214585669E+01  0.19825426073E+02  0.64561109452E+02  0.11321464511E+03  0.90731200484E+02 0.  0.
         24    2    1    2    0    0 -0.22948674741E+02 -0.58990336400E+01  0.16121887137E+03  0.18227098284E+03  0.81668515519E+02 0.  0.
        -13    1    4    4    0    0 -0.34667811400E+02 -0.94825532455E+01  0.21222604226E+02  0.41739368628E+02  0.00000000000E+00 0.  1.
         14    1    4    4    0    0  0.11719136659E+02  0.35835196055E+01  0.13999626715E+03  0.14053161421E+03  0.00000000000E+00 0. -1.
        -11    1    3    3    0    0 -0.15707276552E+01  0.49469392246E+02  0.95774591908E+01  0.50412455595E+02  0.00000000000E+00 0.  1.
         11    1    3    3    0    0  0.64921862221E+01 -0.29643966173E+02  0.54983650261E+02  0.62802189519E+02  0.00000000000E+00 0. -1.
         -2    1    1    2    0  502  0.18027216174E+02 -0.13926392434E+02  0.11052092264E+02  0.25319432707E+02  0.00000000000E+00 0.  1.
<scales pt_clust_5="13000.00000" pt_clust_6="13000.00000" pt_clust_7="13000.00000" pt_clust_8="13000.00000" pt_clust_9="22.77994"></scales>
<clustering>
<clus scale="   22.780">  1  9  2 -1</clus>
<clus scale="   81.669">  5  6 -1 -1</clus>
<clus scale="   83.783">  1  5  2 -1</clus>
<clus scale="   90.731">  7  8 -1 -1</clus>
<clus scale="   22.780">  1  5  2 -1</clus>
</clustering>
</event>
<event>
 9    2  0.1488992E-004  0.4326630E+03  0.7546771E-02  0.1065024E+00
         21   -1    0    0  501  502  0.00000000000E+00  0.00000000000E+00  0.37673220534E+03  0.37673220534E+03  0.00000000000E+00 0. -1.
          4   -1    0    0  502    0 -0.00000000000E+00 -0.00000000000E+00 -0.91796436534E+03  0.91796436534E+03  0.00000000000E+00 0. -1.
         23    2    1    2    0    0  0.14272334418E+03 -0.36400834405E+02 -0.36785409162E+03  0.40662476697E+03  0.91280308250E+02 0.  0.
         24    2    1    2    0    0  0.34316983652E+03 -0.56673437870E+02 -0.16466415341E+03  0.39326786726E+03  0.81042684710E+02 0.  0.
        -11    1    4    4    0    0  0.19563766671E+02 -0.24606765753E+02 -0.87465417178E+01  0.32630290823E+02  0.00000000000E+00 0.  1.
         12    1    4    4    0    0  0.32360606985E+03 -0.32066672117E+02 -0.15591761169E+03  0.36063757644E+03  0.00000000000E+00 0. -1.
        -11    1    3    3    0    0  0.99331820627E+02  0.72088903049E+01 -0.14847926756E+03  0.17878722433E+03  0.00000000000E+00 0.  1.
         11    1    3    3    0    0  0.43391523551E+02 -0.43609724710E+02 -0.21937482406E+03  0.22783754264E+03  0.00000000000E+00 0. -1.
          3    1    1    2  501    0 -0.48589318070E+03  0.93074272275E+02 -0.87139149673E+01  0.49480393645E+03  0.00000000000E+00 0. -1.
<scales pt_clust_5="13000.00000" pt_clust_6="13000.00000" pt_clust_7="13000.00000" pt_clust_8="13000.00000" pt_clust_9="425.00516"></scales>
<clustering>
<clus scale="   81.043">  5  6 -1 -1</clus>
<clus scale="   91.280">  7  8 -1 -1</clus>
<clus scale="  173.283">  2  7  1 -1</clus>
<clus scale="  425.005">  1  9  2 -1</clus>
<clus scale="  425.005">  1  5  2 -1</clus>
</clustering>
</event>
<event>
 9    2  0.1488992E-004  0.1070142E+03  0.7546771E-02  0.1270016E+00
          2   -1    0    0  502    0 -0.00000000000E+00  0.00000000000E+00  0.81178075027E+03  0.81178075027E+03  0.00000000000E+00 0. -1.
         21   -1    0    0  501  502  0.00000000000E+00 -0.00000000000E+00 -0.24751530577E+02  0.24751530577E+02  0.00000000000E+00 0. -1.
         24    2    1    2    0    0  0.93115485849E+01 -0.34300043354E+02  0.18345545004E+03  0.20370648171E+03  0.81100127193E+02 0.  0.
         23    2    1    2    0    0  0.28298634178E+02  0.81763863207E+02  0.33687452254E+03  0.35933753896E+03  0.90293305108E+02 0.  0.
        -13    1    3    3    0    0 -0.27284563433E+02 -0.35951963657E+02  0.60951756147E+02  0.75842650731E+02  0.00000000000E+00 0.  1.
         14    1    3    3    0    0  0.36596112018E+02  0.16519203034E+01  0.12250369389E+03  0.12786383098E+03  0.00000000000E+00 0. -1.
        -11    1    4    4    0    0  0.44997350674E+02  0.47451298524E+01  0.10174029472E+03  0.11134794742E+03  0.00000000000E+00 0.  1.
         11    1    4    4    0    0 -0.16698716496E+02  0.77018733355E+02  0.23513422782E+03  0.24798959154E+03  0.00000000000E+00 0. -1.
          1    1    1    2  501    0 -0.37610182763E+02 -0.47463819854E+02  0.26669924711E+03  0.27348826017E+03  0.00000000000E+00 0. -1.
<scales pt_clust_5="13000.00000" pt_clust_6="13000.00000" pt_clust_7="13000.00000" pt_clust_8="13000.00000" pt_clust_9="60.55860"></scales>
<clustering>
<clus scale="   60.559">  2  9  1 -1</clus>
<clus scale="   81.100">  5  6 -1 -1</clus>
<clus scale="   90.293">  7  8 -1 -1</clus>
<clus scale="   99.380">  1  5  2 -1</clus>
<clus scale="   60.559">  2  5  1 -1</clus>
</clustering>
</event>
<event>
 9    2  0.1488992E-004  0.2680893E+03  0.7546771E-02  0.1136369E+00
          2   -1    0    0  502    0 -0.00000000000E+00  0.00000000000E+00  0.16052164531E+04  0.16052164531E+04  0.00000000000E+00 0. -1.
         21   -1    0    0  501  502  0.00000000000E+00 -0.00000000000E+00 -0.23069052584E+03  0.23069052584E+03  0.00000000000E+00 0. -1.
         23    2    1    2    0    0  0.37602034359E+02  0.58656899648E+02 -0.14948441596E+03  0.18826165315E+03  0.90787193851E+02 0.  0.
         24    2    1    2    0    0 -0.99539701258E+02  0.22526780047E+03  0.33391661685E+03  0.42258508750E+03  0.80150577753E+02 0.  0.
        -13    1    4    4    0    0 -0.58968783260E+02  0.69160532346E+02  0.76432435291E+02  0.11875358436E+03  0.00000000000E+00 0.  1.
         14    1    4    4    0    0 -0.40570917998E+02  0.15610726812E+03  0.25748418156E+03  0.30383150314E+03  0.00000000000E+00 0. -1.
        -11    1    3    3    0    0 -0.99220024397E+00  0.72396116321E+02 -0.10743901994E+03  0.12955819205E+03  0.00000000000E+00 0. -1.
         11    1    3    3    0    0  0.38594234603E+02 -0.13739216673E+02 -0.42045396017E+02  0.58703461104E+02  0.00000000000E+00 0.  1.
          1    1    1    2  501    0  0.61937666898E+02 -0.28392470012E+03  0.11900937264E+04  0.12250602383E+04  0.00000000000E+00 0. -1.
<scales pt_clust_5="13000.00000" pt_clust_6="13000.00000" pt_clust_7="13000.00000" pt_clust_8="13000.00000" pt_clust_9="255.82774"></scales>
<clustering>
<clus scale="   80.151">  5  6 -1 -1</clus>
<clus scale="   90.787">  7  8 -1 -1</clus>
<clus scale="  114.442">  1  7  2 -1</clus>
<clus scale="  255.828">  2  9  1 -1</clus>
<clus scale="  255.828">  2  5  1 -1</clus>
</clustering>
</event>
<event>
 9    2  0.1488992E-004  0.1200685E+03  0.7546771E-02  0.1245511E+00
          2   -1    0    0  502    0 -0.00000000000E+00  0.00000000000E+00  0.45221321494E+03  0.45221321494E+03  0.00000000000E+00 0. -1.
         21   -1    0    0  501  502  0.00000000000E+00 -0.00000000000E+00 -0.73953899643E+02  0.73953899643E+02  0.00000000000E+00 0. -1.
         24    2    1    2    0    0  0.80498548520E+02  0.13623955881E+02  0.29600382341E+03  0.31848777100E+03  0.84561033088E+02 0.  0.
         23    2    1    2    0    0 -0.67165930724E+02  0.31965549669E+02  0.10177173190E+03  0.15632717383E+03  0.92453454508E+02 0.  0.
        -11    1    3    3    0    0  0.61957005273E+02  0.49265482903E+01  0.78993768551E+02  0.10051346601E+03  0.00000000000E+00 0.  1.
         12    1    3    3    0    0  0.18541543247E+02  0.86974075904E+01  0.21701005486E+03  0.21797430499E+03  0.00000000000E+00 0. -1.
        -13    1    4    4    0    0 -0.41377789863E+02 -0.30188264090E+02  0.40095292720E+02  0.65046793011E+02  0.00000000000E+00 0.  1.
         13    1    4    4    0    0 -0.25788140861E+02  0.62153813759E+02  0.61676439176E+02  0.91280380824E+02  0.00000000000E+00 0. -1.
          1    1    1    2  501    0 -0.13332617796E+02 -0.45589505549E+02 -0.19516240009E+02  0.51352169746E+02  0.00000000000E+00 0. -1.
<scales pt_clust_5="13000.00000" pt_clust_6="13000.00000" pt_clust_7="13000.00000" pt_clust_8="13000.00000" pt_clust_9="47.49907"></scales>
<clustering>
<clus scale="   47.499">  2  9  1 -1</clus>
<clus scale="   84.561">  5  6 -1 -1</clus>
<clus scale="   92.453">  7  8 -1 -1</clus>
<clus scale="  114.102">  1  5  2 -1</clus>
<clus scale="   47.499">  2  5  1 -1</clus>
</clustering>
</event>
<event>
 9    2  0.1488992E-004  0.1060572E+03  0.7546771E-02  0.1273769E+00
         -1   -1    0    0    0  501 -0.00000000000E+00  0.00000000000E+00  0.80666236519E+02  0.80666236519E+02  0.00000000000E+00 0.  1.
         21   -1    0    0  501  502  0.00000000000E+00 -0.00000000000E+00 -0.46849619259E+03  0.46849619259E+03  0.00000000000E+00 0. -1.
         23    2    1    2    0    0  0.17345083558E+02  0.79186902935E+01 -0.20142986199E+03  0.22171304561E+03  0.90659404993E+02 0.  0.
         24    2    1    2    0    0 -0.83840952928E+02 -0.43185386566E+02 -0.21477682850E+03  0.24700884915E+03  0.77395106416E+02 0.  0.
        -13    1    4    4    0    0 -0.38525126316E+02  0.15638732535E+02 -0.42723803070E+02  0.59616093982E+02  0.00000000000E+00 0.  1.
         14    1    4    4    0    0 -0.45315826612E+02 -0.58824119101E+02 -0.17205302543E+03  0.18739275517E+03  0.00000000000E+00 0. -1.
        -11    1    3    3    0    0 -0.31297837405E+02  0.24457625433E+02 -0.10825061264E+03  0.11530795812E+03  0.00000000000E+00 0.  1.
         11    1    3    3    0    0  0.48642920964E+02 -0.16538935140E+02 -0.93179249346E+02  0.10640508749E+03  0.00000000000E+00 0. -1.
         -2    1    1    2    0  502  0.66495869370E+02  0.35266696273E+02  0.28376734422E+02  0.80440534345E+02  0.00000000000E+00 0.  1.
<scales pt_clust_5="13000.00000" pt_clust_6="13000.00000" pt_clust_7="13000.00000" pt_clust_8="13000.00000" pt_clust_9="75.26916"></scales>
<clustering>
<clus scale="   75.269">  2  9  1 -1</clus>
<clus scale="   77.395">  5  6 -1 -1</clus>
<clus scale="   90.659">  7  8 -1 -1</clus>
<clus scale="   94.968">  2  5  1 -1</clus>
<clus scale="   75.269">  2  5  1 -1</clus>
</clustering>
</event>
<event>
 9    2  0.1488992E-004  0.1014457E+03  0.7546771E-02  0.1283866E+00
         21   -1    0    0  501  502  0.00000000000E+00  0.00000000000E+00  0.19758476673E+03  0.19758476673E+03  0.00000000000E+00 0. -1.
          2   -1    0    0  502    0 -0.00000000000E+00 -0.00000000000E+00 -0.91366871356E+02  0.91366871356E+02  0.00000000000E+00 0. -1.
         24    2    1    2    0    0  0.28988669551E+02 -0.15203561096E+02  0.63401046007E+02  0.10673274182E+03  0.79376912954E+02 0.  0.
         23    2    1    2    0    0 -0.55490669475E+02 -0.30378109948E+01  0.78983207354E+02  0.13381322402E+03  0.92623912593E+02 0.  0.
        -11    1    3    3    0    0  0.27195545947E+02 -0.19697325150E+02 -0.85245249115E+01  0.34644622417E+02  0.00000000000E+00 0.  1.
         12    1    3    3    0    0  0.17931236035E+01  0.44937640541E+01  0.71925570918E+02  0.72088119406E+02  0.00000000000E+00 0. -1.
        -13    1    4    4    0    0 -0.58660471784E+02 -0.35543339983E+02  0.73788691962E+02  0.10074299494E+03  0.00000000000E+00 0.  1.
         13    1    4    4    0    0  0.31698023093E+01  0.32505528988E+02  0.51945153926E+01  0.33070229084E+02  0.00000000000E+00 0. -1.
          1    1    1    2  501    0  0.26501999924E+02  0.18241372091E+02 -0.36166357985E+02  0.48405672246E+02  0.00000000000E+00 0. -1.
<scales pt_clust_5="13000.00000" pt_clust_6="13000.00000" pt_clust_7="13000.00000" pt_clust_8="13000.00000" pt_clust_9="32.17304"></scales>
<clustering>
<clus scale="   32.173">  1  9  2 -1</clus>
<clus scale="   79.377">  5  6 -1 -1</clus>
<clus scale="   89.514">  2  5  1 -1</clus>
<clus scale="   92.624">  7  8 -1 -1</clus>
<clus scale="   32.173">  1  5  2 -1</clus>
</clustering>
</event>
<event>
 9    2  0.1488992E-004  0.9659865E+02  0.7546771E-02  0.1292581E+00
         21   -1    0    0  501  502  0.00000000000E+00  0.00000000000E+00  0.27512657361E+03  0.27512657361E+03  0.00000000000E+00 0. -1.
         -1   -1    0    0    0  501 -0.00000000000E+00 -0.00000000000E+00 -0.11982226066E+03  0.11982226066E+03  0.00000000000E+00 0.  1.
         23    2    1    2    0    0 -0.81264848116E+01  0.28326504645E+02 -0.67177467626E+02  0.11666470232E+03  0.90716095542E+02 0.  0.
         24    2    1    2    0    0  0.63226852576E+02 -0.39136687012E+02  0.15895339651E+03  0.19349754013E+03  0.81521780023E+02 0.  0.
        -13    1    4    4    0    0  0.47433584076E+02 -0.42278737716E+01  0.24229423036E+02  0.53431121601E+02  0.00000000000E+00 0.  1.
         14    1    4    4    0    0  0.15793268501E+02 -0.34908813240E+02  0.13472397347E+03  0.14006641853E+03  0.00000000000E+00 0. -1.
        -13    1    3    3    0    0  0.39222788633E+02  0.26257601311E+02 -0.26040127729E+02  0.53907114808E+02  0.00000000000E+00 0.  1.
         13    1    3    3    0    0 -0.47349273445E+02  0.20689033347E+01 -0.41137339898E+02  0.62757587514E+02  0.00000000000E+00 0. -1.
         -2    1    1    2    0  502 -0.55100367765E+02  0.10810182366E+02  0.63528384065E+02  0.84786591820E+02  0.00000000000E+00 0.  1.
<scales pt_clust_5="13000.00000" pt_clust_6="13000.00000" pt_clust_7="13000.00000" pt_clust_8="13000.00000" pt_clust_9="56.15078"></scales>
<clustering>
<clus scale="   56.151">  1  9  2 -1</clus>
<clus scale="   81.522">  5  6 -1 -1</clus>
<clus scale="   88.021">  1  5  2 -1</clus>
<clus scale="   90.716">  7  8 -1 -1</clus>
<clus scale="   56.151">  1  5  2 -1</clus>
</clustering>
</event>
<event>
 9    2  0.1488992E-004  0.1702338E+03  0.7546771E-02  0.1178925E+00
         21   -1    0    0  501  502  0.00000000000E+00  0.00000000000E+00  0.60583600855E+02  0.60583600855E+02  0.00000000000E+00 0. -1.
          2   -1    0    0  502    0 -0.00000000000E+00 -0.00000000000E+00 -0.92675791059E+03  0.92675791059E+03  0.00000000000E+00 0. -1.
         23    2    1    2    0    0 -0.14773071871E+02  0.11939996284E+03 -0.24034632734E+03  0.28324489079E+03  0.89368430175E+02 0.  0.
         24    2    1    2    0    0 -0.44380640168E+02 -0.18426873214E+03 -0.28016129320E+03  0.34745593468E+03  0.79439722237E+02 0.  0.
        -13    1    4    4    0    0  0.11303765974E+02 -0.69265593855E+02 -0.57464971114E+02  0.90706783222E+02  0.00000000000E+00 0.  1.
         14    1    4    4    0    0 -0.55684406141E+02 -0.11500313828E+03 -0.22269632209E+03  0.25674915146E+03  0.00000000000E+00 0. -1.
        -11    1    3    3    0    0 -0.36574746892E+02  0.10115158534E+02 -0.71357939624E+02  0.80820690976E+02  0.00000000000E+00 0.  1.
         11    1    3    3    0    0  0.21801675021E+02  0.10928480431E+03 -0.16898838772E+03  0.20242419981E+03  0.00000000000E+00 0. -1.
          1    1    1    2  501    0  0.59153712039E+02  0.64868769295E+02 -0.34566668919E+03  0.35664068597E+03  0.00000000000E+00 0. -1.
<scales pt_clust_5="13000.00000" pt_clust_6="13000.00000" pt_clust_7="13000.00000" pt_clust_8="13000.00000" pt_clust_9="87.79024"></scales>
<clustering>
<clus scale="   79.440">  5  6 -1 -1</clus>
<clus scale="   87.790">  1  9  2 -1</clus>
<clus scale="   89.368">  7  8 -1 -1</clus>
<clus scale="  165.238">  1  5  2 -1</clus>
<clus scale="   87.790">  1  5  2 -1</clus>
</clustering>
</event>
<event>
 9    2  0.1488992E-004  0.1745433E+03  0.7546771E-02  0.1205903E+00
          2   -1    0    0  502    0 -0.00000000000E+00  0.00000000000E+00  0.70216509571E+03  0.70216509571E+03  0.00000000000E+00 0. -1.
         21   -1    0    0  501  502  0.00000000000E+00 -0.00000000000E+00 -0.71146565355E+02  0.71146565355E+02  0.00000000000E+00 0.  1.
         24    2    1    2    0    0  0.25650404746E+02  0.28263242046E+00  0.20949904181E+03  0.22596115068E+03  0.80688102916E+02 0.  0.
         23    2    1    2    0    0 -0.29432590419E+02  0.14661005655E+03  0.12261744223E+03  0.21428264899E+03  0.92310511100E+02 0.  0.
        -13    1    3    3    0    0 -0.83645455979E+01 -0.34805147570E+02  0.89434887446E+02  0.96332564655E+02  0.00000000000E+00 0.  1.
         14    1    3    3    0    0  0.34014950344E+02  0.35087779991E+02  0.12006415436E+03  0.12962858602E+03  0.00000000000E+00 0. -1.
        -13    1    4    4    0    0 -0.22031368893E+01  0.12621384418E+03  0.12807352393E+03  0.17982662708E+03  0.00000000000E+00 0.  1.
         13    1    4    4    0    0 -0.27229453530E+02  0.20396212367E+02 -0.54560816995E+01  0.34456021911E+02  0.00000000000E+00 0. -1.
          1    1    1    2  501    0  0.37821856725E+01 -0.14689268897E+03  0.29890204631E+03  0.33306786139E+03  0.00000000000E+00 0. -1.
<scales pt_clust_5="13000.00000" pt_clust_6="13000.00000" pt_clust_7="13000.00000" pt_clust_8="13000.00000" pt_clust_9="148.13559"></scales>
<clustering>
<clus scale="   80.688">  5  6 -1 -1</clus>
<clus scale="   84.668">  1  5  2 -1</clus>
<clus scale="   92.311">  7  8 -1 -1</clus>
<clus scale="  148.136">  2  9  1 -1</clus>
<clus scale="  148.136">  2  5  1 -1</clus>
</clustering>
</event>
<event>
 9    2  0.1488992E-004  0.4483788E+03  0.7546771E-02  0.1028207E+00
         21   -1    0    0  501  502  0.00000000000E+00  0.00000000000E+00  0.50360926228E+03  0.50360926228E+03  0.00000000000E+00 0.  1.
          2   -1    0    0  502    0 -0.00000000000E+00 -0.00000000000E+00 -0.37786060241E+03  0.37786060241E+03  0.00000000000E+00 0. -1.
         24    2    1    2    0    0 -0.11460383567E+03  0.76273788189E+02  0.76933338544E+02  0.17554588561E+03  0.77109593825E+02 0.  0.
         23    2    1    2    0    0 -0.23194293372E+03  0.14370911169E+03  0.66083212081E+02  0.29508907348E+03  0.90888597096E+02 0.  0.
        -13    1    3    3    0    0 -0.65739917550E+02  0.72485763628E+02  0.80062649305E+02  0.12643555869E+03  0.00000000000E+00 0.  1.
         14    1    3    3    0    0 -0.48863918118E+02  0.37880245612E+01 -0.31293107605E+01  0.49110326916E+02  0.00000000000E+00 0. -1.
        -13    1    4    4    0    0 -0.29623987694E+02 -0.10891457215E+02 -0.16582934144E+01  0.31606240274E+02  0.00000000000E+00 0. -1.
         13    1    4    4    0    0 -0.20231894602E+03  0.15460056891E+03  0.67741505495E+02  0.26348283320E+03  0.00000000000E+00 0.  1.
          1    1    1    2  501    0  0.34654676939E+03 -0.21998289988E+03 -0.17267890753E+02  0.41083490561E+03  0.00000000000E+00 0. -1.
<scales pt_clust_5="13000.00000" pt_clust_6="13000.00000" pt_clust_7="13000.00000" pt_clust_8="13000.00000" pt_clust_9="410.47206"></scales>
<clustering>
<clus scale="   77.110">  5  6 -1 -1</clus>
<clus scale="   90.889">  7  8 -1 -1</clus>
<clus scale="   99.065">  5  7 -1 -1</clus>
<clus scale="  410.472">  1  9  2 -1</clus>
<clus scale="  410.472">  1  5  2 -1</clus>
</clustering>
</event>
<event>
 9    2  0.1488992E-004  0.2361292E+03  0.7546771E-02  0.1122869E+00
          2   -1    0    0  502    0 -0.00000000000E+00  0.00000000000E+00  0.11372245514E+04  0.11372245514E+04  0.00000000000E+00 0. -1.
         21   -1    0    0  501  502  0.00000000000E+00 -0.00000000000E+00 -0.22225265630E+03  0.22225265630E+03  0.00000000000E+00 0. -1.
         24    2    1    2    0    0  0.33648199769E+01 -0.21426018053E+03  0.95752309913E+03  0.98457794359E+03  0.81390998725E+02 0.  0.
         23    2    1    2    0    0 -0.51284158736E+02  0.27464549303E+03 -0.50016423602E+02  0.29745006462E+03  0.88964524005E+02 0.  0.
        -11    1    3    3    0    0  0.31423544438E+01 -0.10852670213E+03  0.30962815637E+03  0.32811204593E+03  0.00000000000E+00 0.  1.
         12    1    3    3    0    0  0.22246553314E+00 -0.10573347840E+03  0.64789494276E+03  0.65646589766E+03  0.00000000000E+00 0. -1.
        -13    1    4    4    0    0 -0.33991940085E+02  0.23741342739E+03 -0.72618638146E+02  0.25058741809E+03  0.00000000000E+00 0. -1.
         13    1    4    4    0    0 -0.17292218650E+02  0.37232065638E+02  0.22602214544E+02  0.46862646531E+02  0.00000000000E+00 0.  1.
          1    1    1    2  501    0  0.47919338759E+02 -0.60385312499E+02  0.74652195322E+01  0.77449199449E+02  0.00000000000E+00 0. -1.
<scales pt_clust_5="13000.00000" pt_clust_6="13000.00000" pt_clust_7="13000.00000" pt_clust_8="13000.00000" pt_clust_9="77.08858"></scales>
<clustering>
<clus scale="   77.089">  2  9  1 -1</clus>
<clus scale="   81.391">  5  6 -1 -1</clus>
<clus scale="   88.965">  7  8 -1 -1</clus>
<clus scale="  233.381">  1  5  2 -1</clus>
<clus scale="   77.089">  2  5  1 -1</clus>
</clustering>
</event>
<event>
 9    2  0.1488992E-004  0.9686985E+02  0.7546771E-02  0.1290106E+00
         21   -1    0    0  501  502  0.00000000000E+00  0.00000000000E+00  0.29870646079E+03  0.29870646079E+03  0.00000000000E+00 0. -1.
          2   -1    0    0  502    0 -0.00000000000E+00 -0.00000000000E+00 -0.45018703534E+02  0.45018703534E+02  0.00000000000E+00 0. -1.
         24    2    1    2    0    0  0.44045140446E+02 -0.82637181998E+01  0.82139887982E+02  0.12599669909E+03  0.84379757932E+02 0.  0.
         23    2    1    2    0    0 -0.12379687842E+02  0.28057788678E+02  0.13667077411E+03  0.16663132362E+03  0.90258525010E+02 0.  0.
        -11    1    3    3    0    0  0.27904622815E+01  0.35346683938E+02  0.28480498706E+02  0.45478715370E+02  0.00000000000E+00 0.  1.
         12    1    3    3    0    0  0.41254678164E+02 -0.43610402137E+02  0.53659389276E+02  0.80517983721E+02  0.00000000000E+00 0. -1.
        -13    1    4    4    0    0  0.38053878856E+02  0.71051510879E+01  0.40428572182E+02  0.55973657346E+02  0.00000000000E+00 0. -1.
         13    1    4    4    0    0 -0.50433566699E+02  0.20952637590E+02  0.96242201933E+02  0.11065766627E+03  0.00000000000E+00 0.  1.
          1    1    1    2  501    0 -0.31665452603E+02 -0.19794070478E+02  0.34877095165E+02  0.51097141620E+02  0.00000000000E+00 0. -1.
<scales pt_clust_5="13000.00000" pt_clust_6="13000.00000" pt_clust_7="13000.00000" pt_clust_8="13000.00000" pt_clust_9="37.34311"></scales>
<clustering>
<clus scale="   37.343">  1  9  2 -1</clus>
<clus scale="   84.380">  5  6 -1 -1</clus>
<clus scale="   90.259">  7  8 -1 -1</clus>
<clus scale="   91.417">  2  5  1 -1</clus>
<clus scale="   37.343">  1  5  2 -1</clus>
</clustering>
</event>
<event>
 9    2  0.1488992E-004  0.2719615E+03  0.7546771E-02  0.1117925E+00
         21   -1    0    0  501  502  0.00000000000E+00  0.00000000000E+00  0.29629469996E+03  0.29629469996E+03  0.00000000000E+00 0.  1.
         -1   -1    0    0    0  501 -0.00000000000E+00 -0.00000000000E+00 -0.87547561725E+03  0.87547561725E+03  0.00000000000E+00 0.  1.
         24    2    1    2    0    0 -0.94449184165E+02  0.12118500179E+03 -0.18156410091E+03  0.25067870647E+03  0.79169679113E+02 0.  0.
         23    2    1    2    0    0 -0.31752772669E+02 -0.33563548731E+03 -0.53327658511E+03  0.63768462864E+03  0.92727290811E+02 0.  0.
        -11    1    3    3    0    0 -0.47768344373E+02  0.68718292823E+02 -0.40227098381E+02  0.92856006466E+02  0.00000000000E+00 0.  1.
         12    1    3    3    0    0 -0.46680839792E+02  0.52466708970E+02 -0.14133700253E+03  0.15782270001E+03  0.00000000000E+00 0. -1.
        -11    1    4    4    0    0  0.21501222341E+02 -0.21517356867E+03 -0.36126534333E+03  0.42103992151E+03  0.00000000000E+00 0.  1.
         11    1    4    4    0    0 -0.53253995010E+02 -0.12046191864E+03 -0.17201124179E+03  0.21664470713E+03  0.00000000000E+00 0. -1.
         -2    1    1    2    0  502  0.12620195683E+03  0.21445048552E+03  0.13565976873E+03  0.28340698209E+03  0.00000000000E+00 0.  1.
<scales pt_clust_5="13000.00000" pt_clust_6="13000.00000" pt_clust_7="13000.00000" pt_clust_8="13000.00000" pt_clust_9="255.66526"></scales>
<clustering>
<clus scale="   79.170">  5  6 -1 -1</clus>
<clus scale="   92.727">  7  8 -1 -1</clus>
<clus scale="  172.842">  2  5  1 -1</clus>
<clus scale="  255.665">  1  9  2 -1</clus>
<clus scale="  255.665">  1  5  2 -1</clus>
</clustering>
</event>
<event>
 9    2  0.1488992E-004  0.1167757E+03  0.7546771E-02  0.1254336E+00
         21   -1    0    0  501  502  0.00000000000E+00  0.00000000000E+00  0.15571886601E+03  0.15571886601E+03  0.00000000000E+00 0. -1.
          2   -1    0    0  502    0 -0.00000000000E+00 -0.00000000000E+00 -0.53098865842E+03  0.53098865842E+03  0.00000000000E+00 0. -1.
         23    2    1    2    0    0  0.55077958764E+02  0.51284826223E+02 -0.48450075359E+03  0.49883272037E+03  0.91811697200E+02 0.  0.
         24    2    1    2    0    0 -0.88769339913E+01 -0.53864848382E+02  0.32341606066E+02  0.98135380535E+02  0.74862217316E+02 0.  0.
        -13    1    4    4    0    0  0.27987945912E+02 -0.43088004596E+02  0.63760392970E+01  0.51774077815E+02  0.00000000000E+00 0.  1.
         14    1    4    4    0    0 -0.36864879903E+02 -0.10776843786E+02  0.25965566769E+02  0.46361302720E+02  0.00000000000E+00 0. -1.
        -13    1    3    3    0    0  0.22086423286E+02  0.67629064032E+02 -0.40524380514E+03  0.41144141989E+03  0.00000000000E+00 0. -1.
         13    1    3    3    0    0  0.32991535478E+02 -0.16344237809E+02 -0.79256948451E+02  0.87391300485E+02  0.00000000000E+00 0.  1.
          1    1    1    2  501    0 -0.46201024773E+02  0.25800221595E+01  0.76889355114E+02  0.89739423523E+02  0.00000000000E+00 0. -1.
<scales pt_clust_5="13000.00000" pt_clust_6="13000.00000" pt_clust_7="13000.00000" pt_clust_8="13000.00000" pt_clust_9="46.27301"></scales>
<clustering>
<clus scale="   46.273">  1  9  2 -1</clus>
<clus scale="   74.862">  5  6 -1 -1</clus>
<clus scale="   91.812">  7  8 -1 -1</clus>
<clus scale="  103.979">  1  5  2 -1</clus>
<clus scale="   46.273">  1  5  2 -1</clus>
</clustering>
</event>
<event>
 9    2  0.1488992E-004  0.3581826E+03  0.7546771E-02  0.1059566E+00
         21   -1    0    0  501  502  0.00000000000E+00  0.00000000000E+00  0.17487992744E+03  0.17487992744E+03  0.00000000000E+00 0. -1.
          2   -1    0    0  502    0 -0.00000000000E+00 -0.00000000000E+00 -0.12698234366E+04  0.12698234366E+04  0.00000000000E+00 0. -1.
         24    2    1    2    0    0 -0.26691130451E+03  0.26193583179E+03 -0.91406755973E+03  0.99084808950E+03  0.80052534311E+02 0.  0.
         23    2    1    2    0    0  0.14883627090E+03 -0.23853115366E+03 -0.11957165497E+03  0.31877119315E+03  0.90930446542E+02 0.  0.
        -13    1    3    3    0    0 -0.17745530103E+03  0.19399593839E+03 -0.54569441508E+03  0.60572865429E+03  0.00000000000E+00 0.  1.
         14    1    3    3    0    0 -0.89456003478E+02  0.67939893407E+02 -0.36837314465E+03  0.38511943521E+03  0.00000000000E+00 0. -1.
        -11    1    4    4    0    0  0.78316345463E+02 -0.75806079103E+02 -0.84676666795E+02  0.13802227898E+03  0.00000000000E+00 0.  1.
         11    1    4    4    0    0  0.70519925432E+02 -0.16272507456E+03 -0.34894988173E+02  0.18074891417E+03  0.00000000000E+00 0. -1.
          1    1    1    2  501    0  0.11807503362E+03 -0.23404678133E+02 -0.61304294407E+02  0.13508408135E+03  0.00000000000E+00 0. -1.
<scales pt_clust_5="13000.00000" pt_clust_6="13000.00000" pt_clust_7="13000.00000" pt_clust_8="13000.00000" pt_clust_9="120.37231"></scales>
<clustering>
<clus scale="   80.053">  5  6 -1 -1</clus>
<clus scale="   90.930">  7  8 -1 -1</clus>
<clus scale="  120.372">  1  9  2 -1</clus>
<clus scale="  355.577">  2  5  1 -1</clus>
<clus scale="  120.372">  1  5  2 -1</clus>
</clustering>
</event>
<event>
 9    2  0.1488992E-004  0.1383310E+03  0.7546771E-02  0.1218063E+00
         21   -1    0    0  501  502  0.00000000000E+00  0.00000000000E+00  0.13093312990E+03  0.13093312990E+03  0.00000000000E+00 0.  1.
          2   -1    0    0  502    0 -0.00000000000E+00 -0.00000000000E+00 -0.30681969636E+03  0.30681969636E+03  0.00000000000E+00 0. -1.
         24    2    1    2    0    0  0.23255893036E+01 -0.90162796062E+02 -0.95917126997E+02  0.15377535023E+03  0.79448253152E+02 0.  0.
         23    2    1    2    0    0  0.55832051753E+02  0.14341357829E+03 -0.10508506243E+02  0.17889285173E+03  0.90595536607E+02 0.  0.
        -13    1    3    3    0    0 -0.32122473782E+02 -0.74238595970E+02 -0.75647195805E+02  0.11075071416E+03  0.00000000000E+00 0.  1.
         14    1    3    3    0    0  0.34448063085E+02 -0.15924200092E+02 -0.20269931192E+02  0.43024636076E+02  0.00000000000E+00 0. -1.
        -11    1    4    4    0    0 -0.37994678815E+01  0.78535342798E+02  0.26983933863E+02  0.83128627508E+02  0.00000000000E+00 0.  1.
         11    1    4    4    0    0  0.59631519634E+02  0.64878235496E+02 -0.37492440107E+02  0.95764224218E+02  0.00000000000E+00 0. -1.
          1    1    1    2  501    0 -0.58157641056E+02 -0.53250782232E+02 -0.69460933219E+02  0.10508462430E+03  0.00000000000E+00 0. -1.
<scales pt_clust_5="13000.00000" pt_clust_6="13000.00000" pt_clust_7="13000.00000" pt_clust_8="13000.00000" pt_clust_9="78.85406"></scales>
<clustering>
<clus scale="   78.854">  1  9  2 -1</clus>
<clus scale="   79.448">  5  6 -1 -1</clus>
<clus scale="   90.596">  7  8 -1 -1</clus>
<clus scale="  131.301">  2  5  1 -1</clus>
<clus scale="   78.854">  1  5  2 -1</clus>
</clustering>
</event>
<event>
 9    2  0.1488992E-004  0.2438740E+03  0.7546771E-02  0.1153890E+00
          2   -1    0    0  502    0 -0.00000000000E+00  0.00000000000E+00  0.15785760870E+04  0.15785760870E+04  0.00000000000E+00 0. -1.
         21   -1    0    0  501  502  0.00000000000E+00 -0.00000000000E+00 -0.10872622854E+03  0.10872622854E+03  0.00000000000E+00 0. -1.
         24    2    1    2    0    0 -0.57613559377E+02  0.59477457252E+01  0.96550181257E+02  0.13901110530E+03  0.81531907823E+02 0.  0.
         23    2    1    2    0    0 -0.14650808761E+03 -0.16675570172E+03  0.11942852128E+03  0.26777657888E+03  0.90382745642E+02 0.  0.
        -13    1    3    3    0    0 -0.19917008439E+02 -0.22562570156E+02 -0.15323667396E+01  0.30134779658E+02  0.00000000000E+00 0.  1.
         14    1    3    3    0    0 -0.37696550938E+02  0.28510315881E+02  0.98082547997E+02  0.10887632564E+03  0.00000000000E+00 0. -1.
        -13    1    4    4    0    0 -0.10942049740E+03 -0.64486164895E+02  0.40277986524E+02  0.13324273681E+03  0.00000000000E+00 0. -1.
         13    1    4    4    0    0 -0.37087590215E+02 -0.10226953683E+03  0.79150534758E+02  0.13453384208E+03  0.00000000000E+00 0.  1.
          1    1    1    2  501    0  0.20412164699E+03  0.16080795600E+03  0.12538711559E+04  0.12805146314E+04  0.00000000000E+00 0. -1.
<scales pt_clust_5="13000.00000" pt_clust_6="13000.00000" pt_clust_7="13000.00000" pt_clust_8="13000.00000" pt_clust_9="226.50725"></scales>
<clustering>
<clus scale="   81.532">  5  6 -1 -1</clus>
<clus scale="   90.383">  7  8 -1 -1</clus>
<clus scale="  100.011">  1  5  2 -1</clus>
<clus scale="  226.507">  2  9  1 -1</clus>
<clus scale="  226.507">  2  5  1 -1</clus>
</clustering>
</event>
<event>
 9    2  0.1488992E-004  0.9714890E+02  0.7546771E-02  0.1290262E+00
         -1   -1    0    0    0  501 -0.00000000000E+00  0.00000000000E+00  0.29034573489E+03  0.29034573489E+03  0.00000000000E+00 0.  1.
         21   -1    0    0  501  502  0.00000000000E+00 -0.00000000000E+00 -0.69335363350E+02  0.69335363350E+02  0.00000000000E+00 0.  1.
         24    2    1    2    0    0 -0.53677737909E+02 -0.20958787903E+02  0.21906686359E+03  0.24062757787E+03  0.81183558514E+02 0.  0.
         23    2    1    2    0    0  0.43566489822E+02 -0.87513813978E+01  0.11671435908E+02  0.86196799897E+02  0.72931750181E+02 0.  0.
        -11    1    3    3    0    0 -0.54335911668E+02 -0.47186154779E+02  0.14158623834E+03  0.15882565091E+03  0.00000000000E+00 0.  1.
         12    1    3    3    0    0  0.65817375913E+00  0.26227366876E+02  0.77480625250E+02  0.81801926965E+02  0.00000000000E+00 0. -1.
        -11    1    4    4    0    0  0.29266026051E+02 -0.24805321761E+02 -0.23489240880E+02  0.44983871616E+02  0.00000000000E+00 0.  1.
         11    1    4    4    0    0  0.14300463771E+02  0.16053940363E+02  0.35160676788E+02  0.41212928280E+02  0.00000000000E+00 0. -1.
         -2    1    1    2    0  502  0.10111248087E+02  0.29710169301E+02 -0.97279279572E+01  0.32856720471E+02  0.00000000000E+00 0.  1.
<scales pt_clust_5="13000.00000" pt_clust_6="13000.00000" pt_clust_7="13000.00000" pt_clust_8="13000.00000" pt_clust_9="31.38362"></scales>
<clustering>
<clus scale="   31.384">  2  9  1 -1</clus>
<clus scale="   72.932">  7  8 -1 -1</clus>
<clus scale="   81.184">  5  6 -1 -1</clus>
<clus scale="   90.367">  2  7  1 -1</clus>
<clus scale="   31.384">  2  5  1 -1</clus>
</clustering>
</event>
<event>
 9    2  0.1488992E-004  0.1157244E+03  0.7546771E-02  0.1253924E+00
          4   -1    0    0  502    0 -0.00000000000E+00  0.00000000000E+00  0.57046406782E+02  0.57046406782E+02  0.00000000000E+00 0. -1.
         21   -1    0    0  501  502  0.00000000000E+00 -0.00000000000E+00 -0.53453952573E+03  0.53453952573E+03  0.00000000000E+00 0.  1.
         24    2    1    2    0    0 -0.58640552074E+02  0.45648775596E+02 -0.17851814538E+02  0.11141705053E+03  0.81071245244E+02 0.  0.
         23    2    1    2    0    0  0.35466836891E+02 -0.33445818030E+02 -0.42045119607E+03  0.43303293136E+03  0.91442835192E+02 0.  0.
        -11    1    3    3    0    0 -0.13554364442E+02  0.54788478305E+02 -0.29887857118E+02  0.63865343917E+02  0.00000000000E+00 0.  1.
         12    1    3    3    0    0 -0.45086187632E+02 -0.91397027097E+01  0.12036042581E+02  0.47551706613E+02  0.00000000000E+00 0. -1.
        -11    1    4    4    0    0  0.54829337305E+02 -0.38821152807E+02 -0.39466202141E+03  0.40033916780E+03  0.00000000000E+00 0.  1.
         11    1    4    4    0    0 -0.19362500414E+02  0.53753347763E+01 -0.25789174663E+02  0.32693763565E+02  0.00000000000E+00 0. -1.
          3    1    1    2  501    0  0.23173715183E+02 -0.12202957565E+02 -0.39190108342E+02  0.47135950617E+02  0.00000000000E+00 0. -1.
<scales pt_clust_5="13000.00000" pt_clust_6="13000.00000" pt_clust_7="13000.00000" pt_clust_8="13000.00000" pt_clust_9="26.19033"></scales>
<clustering>
<clus scale="   26.190">  2  9  1 -1</clus>
<clus scale="   81.071">  5  6 -1 -1</clus>
<clus scale="   91.443">  7  8 -1 -1</clus>
<clus scale="  107.717">  1  5  2 -1</clus>
<clus scale="   26.190">  2  5  1 -1</clus>
</clustering>
</event>
<event>
 9    2  0.1488992E-004  0.2772390E+03  0.7546771E-02  0.1097770E+00
         21   -1    0    0  501  502  0.00000000000E+00  0.00000000000E+00  0.28183000719E+03  0.28183000719E+03  0.00000000000E+00 0.  1.
          2   -1    0    0  502    0 -0.00000000000E+00 -0.00000000000E+00 -0.52012848167E+03  0.52012848167E+03  0.00000000000E+00 0. -1.
         23    2    1    2    0    0  0.23029374938E+03  0.93267870393E+02 -0.77529879417E+02  0.27592459289E+03  0.91593624833E+02 0.  0.
         24    2    1    2    0    0 -0.22319917060E+03 -0.19055038996E+03  0.36488007182E+02  0.30597847388E+03  0.78511979588E+02 0.  0.
        -13    1    4    4    0    0 -0.18065046075E+03 -0.15360150697E+03 -0.30414292927E+01  0.23714396936E+03  0.00000000000E+00 0.  1.
         14    1    4    4    0    0 -0.42548709851E+02 -0.36948882989E+02  0.39529436475E+02  0.68834504518E+02  0.00000000000E+00 0. -1.
        -13    1    3    3    0    0  0.34188586556E+02  0.49031904663E+02  0.18109366680E+01  0.59801894763E+02  0.00000000000E+00 0. -1.
         13    1    3    3    0    0  0.19610516282E+03  0.44235965729E+02 -0.79340816085E+02  0.21612269813E+03  0.00000000000E+00 0.  1.
          1    1    1    2  501    0 -0.70945787797E+01  0.97282519566E+02 -0.19725660224E+03  0.22005542209E+03  0.00000000000E+00 0. -1.
<scales pt_clust_5="13000.00000" pt_clust_6="13000.00000" pt_clust_7="13000.00000" pt_clust_8="13000.00000" pt_clust_9="97.54092"></scales>
<clustering>
<clus scale="   78.512">  5  6 -1 -1</clus>
<clus scale="   91.594">  7  8 -1 -1</clus>
<clus scale="   97.541">  1  9  2 -1</clus>
<clus scale="  273.196">  1  5  2 -1</clus>
<clus scale="   97.541">  1  5  2 -1</clus>
</clustering>
</event>
<event>
 9    2  0.1488992E-004  0.1248812E+03  0.7546771E-02  0.1239268E+00
          2   -1    0    0  502    0 -0.00000000000E+00  0.00000000000E+00  0.82159243456E+03  0.82159243456E+03  0.00000000000E+00 0. -1.
         21   -1    0    0  501  502  0.00000000000E+00 -0.00000000000E+00 -0.48763016612E+02  0.48763016612E+02  0.00000000000E+00 0. -1.
         23    2    1    2    0    0  0.79506562665E+02  0.75965405643E+02  0.60604119857E+03  0.62300495188E+03  0.93579908844E+02 0.  0.
         24    2    1    2    0    0 -0.41326701753E+02 -0.14369702095E+02  0.14568235335E+03  0.17187076654E+03  0.80011422300E+02 0.  0.
        -13    1    4    4    0    0  0.17161416460E+02 -0.22246154900E+02  0.73162759649E+02  0.78372157187E+02  0.00000000000E+00 0.  1.
         14    1    4    4    0    0 -0.58488118213E+02  0.78764528050E+01  0.72519593700E+02  0.93498609355E+02  0.00000000000E+00 0. -1.
        -11    1    3    3    0    0  0.99800217325E+02  0.52880003447E+02  0.44929931615E+03  0.46327772841E+03  0.00000000000E+00 0. -1.
         11    1    3    3    0    0 -0.20293654661E+02  0.23085402195E+02  0.15674188242E+03  0.15972722347E+03  0.00000000000E+00 0.  1.
          1    1    1    2  501    0 -0.38179860912E+02 -0.61595703547E+02  0.21105866023E+02  0.75479732746E+02  0.00000000000E+00 0. -1.
<scales pt_clust_5="13000.00000" pt_clust_6="13000.00000" pt_clust_7="13000.00000" pt_clust_8="13000.00000" pt_clust_9="72.46884"></scales>
<clustering>
<clus scale="   72.469">  2  9  1 -1</clus>
<clus scale="   80.011">  5  6 -1 -1</clus>
<clus scale="   93.580">  7  8 -1 -1</clus>
<clus scale="  115.065">  2  5  1 -1</clus>
<clus scale="   72.469">  2  5  1 -1</clus>
</clustering>
</event>
<event>
 9    2  0.1488992E-004  0.3487788E+03  0.7546771E-02  0.1104763E+00
         21   -1    0    0  501  502  0.00000000000E+00  0.00000000000E+00  0.72037020800E+03  0.72037020800E+03  0.00000000000E+00 0. -1.
          2   -1    0    0  502    0 -0.00000000000E+00 -0.00000000000E+00 -0.25071384466E+03  0.25071384466E+03  0.00000000000E+00 0. -1.
         24    2    1    2    0    0 -0.52562384226E+02  0.63523453589E+02 -0.79054178810E+01  0.11476232609E+03  0.79434642736E+02 0.  0.
         23    2    1    2    0    0 -0.30351238827E+03 -0.57609281763E+02  0.99243766228E+02  0.33675581016E+03  0.90091905091E+02 0.  0.
        -11    1    3    3    0    0 -0.85943055977E+01 -0.18914462109E+02  0.16715190821E+01  0.20842575216E+02  0.00000000000E+00 0.  1.
         12    1    3    3    0    0 -0.43968078628E+02  0.82437915698E+02 -0.95769369632E+01  0.93919750875E+02  0.00000000000E+00 0. -1.
        -13    1    4    4    0    0 -0.33476370984E+02 -0.28293433340E+02  0.38691640093E+02  0.58465620646E+02  0.00000000000E+00 0.  1.
         13    1    4    4    0    0 -0.27003601728E+03 -0.29315848423E+02  0.60552126135E+02  0.27829018951E+03  0.00000000000E+00 0. -1.
          1    1    1    2  501    0  0.35607477249E+03 -0.59141718255E+01  0.37831801499E+03  0.51956591642E+03  0.00000000000E+00 0. -1.
<scales pt_clust_5="13000.00000" pt_clust_6="13000.00000" pt_clust_7="13000.00000" pt_clust_8="13000.00000" pt_clust_9="336.94229"></scales>
<clustering>
<clus scale="   79.435">  5  6 -1 -1</clus>
<clus scale="   90.092">  7  8 -1 -1</clus>
<clus scale="  114.490">  2  5  1 -1</clus>
<clus scale="  336.942">  1  9  2 -1</clus>
<clus scale="  336.942">  1  5  2 -1</clus>
</clustering>
</event>
<event>
 9    2  0.1488992E-004  0.9325722E+02  0.7546771E-02  0.1302173E+00
          2   -1    0    0  502    0 -0.00000000000E+00  0.00000000000E+00  0.33102853531E+03  0.33102853531E+03  0.00000000000E+00 0. -1.
         21   -1    0    0  501  502  0.00000000000E+00 -0.00000000000E+00 -0.39554443454E+02  0.39554443454E+02  0.00000000000E+00 0.  1.
         24    2    1    2    0    0 -0.28026175697E+02 -0.15619548517E+02  0.14341994035E+03  0.16716733391E+03  0.79663049265E+02 0.  0.
         23    2    1    2    0    0 -0.16666186192E+02  0.14582187285E+02  0.89510816044E+02  0.12975557794E+03  0.91290316410E+02 0.  0.
        -13    1    3    3    0    0  0.92769637585E+01 -0.36633422508E+02  0.96569589915E+02  0.10370031532E+03  0.00000000000E+00 0.  1.
         14    1    3    3    0    0 -0.37303139456E+02  0.21013873991E+02  0.46850350430E+02  0.63467018591E+02  0.00000000000E+00 0. -1.
        -11    1    4    4    0    0 -0.46204174958E+02 -0.18336409254E+02  0.47459705605E+02  0.68727529739E+02  0.00000000000E+00 0. -1.
         11    1    4    4    0    0  0.29537988766E+02  0.32918596539E+02  0.42051110439E+02  0.61028048204E+02  0.00000000000E+00 0.  1.
          1    1    1    2  501    0  0.44692361889E+02  0.10373612327E+01  0.58543335468E+02  0.73660066910E+02  0.00000000000E+00 0. -1.
<scales pt_clust_5="13000.00000" pt_clust_6="13000.00000" pt_clust_7="13000.00000" pt_clust_8="13000.00000" pt_clust_9="44.70442"></scales>
<clustering>
<clus scale="   44.704">  2  9  1 -1</clus>
<clus scale="   79.663">  5  6 -1 -1</clus>
<clus scale="   81.910">  1  5  2 -1</clus>
<clus scale="   91.290">  7  8 -1 -1</clus>
<clus scale="   44.704">  2  5  1 -1</clus>
</clustering>
</event>
<event>
 9    2  0.1488992E-004  0.1355472E+03  0.7546771E-02  0.1229968E+00
         21   -1    0    0  501  502  0.00000000000E+00  0.00000000000E+00  0.63632516169E+02  0.63632516169E+02  0.00000000000E+00 0.  1.
          2   -1    0    0  502    0 -0.00000000000E+00 -0.00000000000E+00 -0.12877807893E+04  0.12877807893E+04  0.00000000000E+00 0. -1.
         23    2    1    2    0    0 -0.11332761617E+02 -0.42396483921E+02 -0.10558135688E+02  0.10938489821E+03  0.99637785963E+02 0.  0.
         24    2    1    2    0    0  0.13952653196E+02 -0.93011312958E+02 -0.45534562410E+03  0.47178372062E+03  0.79965372416E+02 0.  0.
        -13    1    4    4    0    0 -0.67559684955E+01 -0.98654851322E+02 -0.40779680837E+03  0.41961489454E+03  0.00000000000E+00 0.  1.
         14    1    4    4    0    0  0.20708621692E+02  0.56435383637E+01 -0.47548815725E+02  0.52168826079E+02  0.00000000000E+00 0. -1.
        -13    1    3    3    0    0  0.98460230010E+00 -0.67814463092E+02  0.17003448919E+02  0.69920584389E+02  0.00000000000E+00 0.  1.
         13    1    3    3    0    0 -0.12317363917E+02  0.25417979171E+02 -0.27561584607E+02  0.39464313817E+02  0.00000000000E+00 0. -1.
          1    1    1    2  501    0 -0.26198915791E+01  0.13540779688E+03 -0.75824451336E+03  0.77024468666E+03  0.00000000000E+00 0. -1.
<scales pt_clust_5="13000.00000" pt_clust_6="13000.00000" pt_clust_7="13000.00000" pt_clust_8="13000.00000" pt_clust_9="109.44672"></scales>
<clustering>
<clus scale="   79.965">  5  6 -1 -1</clus>
<clus scale="   99.638">  7  8 -1 -1</clus>
<clus scale="  108.874">  2  7  1 -1</clus>
<clus scale="  109.447">  1  9  2 -1</clus>
<clus scale="  109.447">  1  5  2 -1</clus>
</clustering>
</event>
<event>
 9    2  0.1488992E-004  0.1327002E+03  0.7546771E-02  0.1225416E+00
         21   -1    0    0  501  502  0.00000000000E+00  0.00000000000E+00  0.26579489881E+02  0.26579489881E+02  0.00000000000E+00 0. -1.
          2   -1    0    0  502    0 -0.00000000000E+00 -0.00000000000E+00 -0.11808629265E+04  0.11808629265E+04  0.00000000000E+00 0. -1.
         23    2    1    2    0    0 -0.16332111129E+02  0.82697503962E+02 -0.43885024320E+03  0.45509383599E+03  0.86111837661E+02 0.  0.
         24    2    1    2    0    0  0.68602796337E+02 -0.11827122719E+03 -0.38489750699E+03  0.41581989763E+03  0.77882408368E+02 0.  0.
        -11    1    4    4    0    0  0.64282686421E+01 -0.47219044544E+02 -0.22616210096E+03  0.23112822570E+03  0.00000000000E+00 0.  1.
         12    1    4    4    0    0  0.62174527695E+02 -0.71052182645E+02 -0.15873540603E+03  0.18469167193E+03  0.00000000000E+00 0. -1.
        -13    1    3    3    0    0 -0.48765572041E+02  0.45495776552E+02 -0.18916844638E+03  0.20058077626E+03  0.00000000000E+00 0.  1.
         13    1    3    3    0    0  0.32433460912E+02  0.37201727410E+02 -0.24968179682E+03  0.25451305973E+03  0.00000000000E+00 0. -1.
          1    1    1    2  501    0 -0.52270685208E+02  0.35573723227E+02 -0.33053568644E+03  0.33652868277E+03  0.00000000000E+00 0. -1.
<scales pt_clust_5="13000.00000" pt_clust_6="13000.00000" pt_clust_7="13000.00000" pt_clust_8="13000.00000" pt_clust_9="63.22751"></scales>
<clustering>
<clus scale="   63.228">  1  9  2 -1</clus>
<clus scale="   77.882">  5  6 -1 -1</clus>
<clus scale="   86.112">  7  8 -1 -1</clus>
<clus scale="  127.514">  1  5  2 -1</clus>
<clus scale="   63.228">  1  5  2 -1</clus>
</clustering>
</event>
<event>
 9    2  0.1488992E-004  0.1419043E+03  0.7546771E-02  0.1213505E+00
          2   -1    0    0  502    0 -0.00000000000E+00  0.00000000000E+00  0.14383182912E+03  0.14383182912E+03  0.00000000000E+00 0. -1.
         21   -1    0    0  501  502  0.00000000000E+00 -0.00000000000E+00 -0.28585393625E+03  0.28585393625E+03  0.00000000000E+00 0. -1.
         24    2    1    2    0    0 -0.60315739055E+02  0.36691277946E+02 -0.42718718879E+02  0.11333546995E+03  0.77690421227E+02 0.  0.
         23    2    1    2    0    0  0.10386761132E+03 -0.11265860806E+03  0.74969982818E+01  0.17824119585E+03  0.90737402769E+02 0.  0.
        -11    1    3    3    0    0 -0.54014965755E+02  0.29129429006E+02 -0.64746260937E+02  0.89208847460E+02  0.00000000000E+00 0.  1.
         12    1    3    3    0    0 -0.63007733006E+01  0.75618489398E+01  0.22027542058E+02  0.24126622488E+02  0.00000000000E+00 0. -1.
        -13    1    4    4    0    0  0.23275800534E+02 -0.76021951380E+02  0.33046335318E+02  0.86099711150E+02  0.00000000000E+00 0.  1.
         13    1    4    4    0    0  0.80591810790E+02 -0.36636656681E+02 -0.25549337037E+02  0.92141484697E+02  0.00000000000E+00 0. -1.
          1    1    1    2  501    0 -0.43551872269E+02  0.75967330115E+02 -0.10680038653E+03  0.13810909958E+03  0.00000000000E+00 0. -1.
<scales pt_clust_5="13000.00000" pt_clust_6="13000.00000" pt_clust_7="13000.00000" pt_clust_8="13000.00000" pt_clust_9="87.56598"></scales>
<clustering>
<clus scale="   77.690">  5  6 -1 -1</clus>
<clus scale="   87.566">  2  9  1 -1</clus>
<clus scale="   90.737">  7  8 -1 -1</clus>
<clus scale="  133.938">  1  5  2 -1</clus>
<clus scale="   87.566">  2  5  1 -1</clus>
</clustering>
</event>
<event>
 9    2  0.1488992E-004  0.1616775E+03  0.7546771E-02  0.1216779E+00
         21   -1    0    0  501  502  0.00000000000E+00  0.00000000000E+00  0.23485592903E+03  0.23485592903E+03  0.00000000000E+00 0. -1.
          2   -1    0    0  502    0 -0.00000000000E+00 -0.00000000000E+00 -0.24575692675E+03  0.24575692675E+03  0.00000000000E+00 0. -1.
         24    2    1    2    0    0 -0.18502911190E+02  0.22171386625E+02 -0.10805167619E+03  0.13716777757E+03  0.79409737228E+02 0.  0.
         23    2    1    2    0    0  0.12376273227E+03  0.56773475499E+02 -0.21339431700E+02  0.16638060579E+03  0.93202431404E+02 0.  0.
        -13    1    3    3    0    0 -0.44352790755E+02  0.28153122629E+02 -0.46563590021E+02  0.70199261229E+02  0.00000000000E+00 0.  1.
         14    1    3    3    0    0  0.25849879564E+02 -0.59817360042E+01 -0.61488086173E+02  0.66968516337E+02  0.00000000000E+00 0. -1.
        -11    1    4    4    0    0  0.93968949538E+02  0.67057152014E+02  0.17067199199E+02  0.11669667691E+03  0.00000000000E+00 0. -1.
         11    1    4    4    0    0  0.29793782729E+02 -0.10283676515E+02 -0.38406630899E+02  0.49683928880E+02  0.00000000000E+00 0.  1.
          1    1    1    2  501    0 -0.10525982108E+03 -0.78944862124E+02  0.11849011017E+03  0.17706447243E+03  0.00000000000E+00 0. -1.
<scales pt_clust_5="13000.00000" pt_clust_6="13000.00000" pt_clust_7="13000.00000" pt_clust_8="13000.00000" pt_clust_9="132.10954"></scales>
<clustering>
<clus scale="   79.410">  5  6 -1 -1</clus>
<clus scale="   84.498">  2  5  1 -1</clus>
<clus scale="   93.202">  7  8 -1 -1</clus>
<clus scale="  132.110">  1  9  2 -1</clus>
<clus scale="  132.110">  1  5  2 -1</clus>
</clustering>
</event>
<event>
 9    2  0.1488992E-004  0.9592501E+02  0.7546771E-02  0.1298214E+00
         21   -1    0    0  501  502  0.00000000000E+00  0.00000000000E+00  0.82102713858E+02  0.82102713858E+02  0.00000000000E+00 0. -1.
          4   -1    0    0  502    0 -0.00000000000E+00 -0.00000000000E+00 -0.37020381902E+03  0.37020381902E+03  0.00000000000E+00 0. -1.
         24    2    1    2    0    0  0.24058097148E+02  0.97526972894E+01 -0.17291375935E+03  0.19049037501E+03  0.75587748072E+02 0.  0.
         23    2    1    2    0    0 -0.32038225209E+02  0.58147854282E+02 -0.14781875164E+03  0.18606012845E+03  0.91435043773E+02 0.  0.
        -11    1    3    3    0    0  0.21078398711E+02 -0.25044328331E+02 -0.33772096202E+02  0.47032666899E+02  0.00000000000E+00 0.  1.
         12    1    3    3    0    0  0.29796984374E+01  0.34797025621E+02 -0.13914166314E+03  0.14345770811E+03  0.00000000000E+00 0. -1.
        -11    1    4    4    0    0  0.22800065309E+02  0.84726269114E+01 -0.44549354259E+01  0.24728017197E+02  0.00000000000E+00 0.  1.
         11    1    4    4    0    0 -0.54838290518E+02  0.49675227371E+02 -0.14336381621E+03  0.16133211125E+03  0.00000000000E+00 0. -1.
          3    1    1    2  501    0  0.79801280610E+01 -0.67900551572E+02  0.32631405821E+02  0.75756029420E+02  0.00000000000E+00 0. -1.
<scales pt_clust_5="13000.00000" pt_clust_6="13000.00000" pt_clust_7="13000.00000" pt_clust_8="13000.00000" pt_clust_9="68.36788"></scales>
<clustering>
<clus scale="   68.368">  1  9  2 -1</clus>
<clus scale="   75.588">  5  6 -1 -1</clus>
<clus scale="   80.961">  2  5  1 -1</clus>
<clus scale="   91.435">  7  8 -1 -1</clus>
<clus scale="   68.368">  1  5  2 -1</clus>
</clustering>
</event>
<event>
 9    2  0.1488992E-004  0.1118090E+03  0.7546771E-02  0.1262701E+00
          2   -1    0    0  502    0 -0.00000000000E+00  0.00000000000E+00  0.64651675633E+03  0.64651675633E+03  0.00000000000E+00 0. -1.
         21   -1    0    0  501  502  0.00000000000E+00 -0.00000000000E+00 -0.41786595554E+02  0.41786595554E+02  0.00000000000E+00 0.  1.
         24    2    1    2    0    0  0.37157166618E+02  0.49782982060E+02  0.50947114724E+03  0.51949915573E+03  0.80371155274E+02 0.  0.
         23    2    1    2    0    0 -0.10539365704E+02 -0.54440149833E+02  0.89305006654E+02  0.14113387388E+03  0.94173127795E+02 0.  0.
        -11    1    3    3    0    0  0.27764960074E+02  0.58069489734E+02  0.20716960186E+03  0.21693824601E+03  0.00000000000E+00 0.  1.
         12    1    3    3    0    0  0.93922065443E+01 -0.82865076733E+01  0.30230154538E+03  0.30256090972E+03  0.00000000000E+00 0. -1.
        -11    1    4    4    0    0  0.21011305792E+02  0.17244803688E+02  0.40747417505E+02  0.48981733928E+02  0.00000000000E+00 0. -1.
         11    1    4    4    0    0 -0.31550671496E+02 -0.71684953521E+02  0.48557589149E+02  0.92152139948E+02  0.00000000000E+00 0.  1.
          1    1    1    2  501    0 -0.26617800914E+02  0.46571677728E+01  0.59540068852E+01  0.27670322281E+02  0.00000000000E+00 0. -1.
<scales pt_clust_5="13000.00000" pt_clust_6="13000.00000" pt_clust_7="13000.00000" pt_clust_8="13000.00000" pt_clust_9="27.02215"></scales>
<clustering>
<clus scale="   27.022">  2  9  1 -1</clus>
<clus scale="   80.371">  5  6 -1 -1</clus>
<clus scale="   94.173">  7  8 -1 -1</clus>
<clus scale="  100.460">  1  5  2 -1</clus>
<clus scale="   27.022">  2  5  1 -1</clus>
</clustering>
</event>
<event>
 9    2  0.1488992E-004  0.9307026E+02  0.7546771E-02  0.1299236E+00
         21   -1    0    0  501  502  0.00000000000E+00  0.00000000000E+00  0.15385041904E+03  0.15385041904E+03  0.00000000000E+00 0. -1.
          2   -1    0    0  502    0 -0.00000000000E+00 -0.00000000000E+00 -0.16734821570E+03  0.16734821570E+03  0.00000000000E+00 0. -1.
         23    2    1    2    0    0  0.36497949135E+01  0.47598079786E+01 -0.12666177798E+03  0.15722157334E+03  0.92948589804E+02 0.  0.
         24    2    1    2    0    0 -0.95881940737E+01  0.17516443262E+02  0.64135079478E+02  0.10979838322E+03  0.86853999836E+02 0.  0.
        -11    1    4    4    0    0  0.13835770783E+02 -0.25039292378E+02 -0.90304058359E+00  0.28621848267E+02  0.00000000000E+00 0.  1.
         12    1    4    4    0    0 -0.23423964857E+02  0.42555735640E+02  0.65038120062E+02  0.81176534951E+02  0.00000000000E+00 0. -1.
        -11    1    3    3    0    0  0.37772509421E+02 -0.13473981138E+02 -0.22228351089E+02  0.45852047150E+02  0.00000000000E+00 0.  1.
         11    1    3    3    0    0 -0.34122714508E+02  0.18233789116E+02 -0.10443342689E+03  0.11136952619E+03  0.00000000000E+00 0. -1.
          1    1    1    2  501    0  0.59383991603E+01 -0.22276251240E+02  0.49028901839E+02  0.54178678181E+02  0.00000000000E+00 0. -1.
<scales pt_clust_5="13000.00000" pt_clust_6="13000.00000" pt_clust_7="13000.00000" pt_clust_8="13000.00000" pt_clust_9="23.05420"></scales>
<clustering>
<clus scale="   23.054">  1  9  2 -1</clus>
<clus scale="   86.854">  5  6 -1 -1</clus>
<clus scale="   86.984">  1  5  2 -1</clus>
<clus scale="   92.949">  7  8 -1 -1</clus>
<clus scale="   23.054">  1  5  2 -1</clus>
</clustering>
</event>
<event>
 9    2  0.1488992E-004  0.2288531E+03  0.7546771E-02  0.1137187E+00
         -1   -1    0    0    0  501 -0.00000000000E+00  0.00000000000E+00  0.22225426309E+03  0.22225426309E+03  0.00000000000E+00 0.  1.
         21   -1    0    0  501  502  0.00000000000E+00 -0.00000000000E+00 -0.21387603602E+04  0.21387603602E+04  0.00000000000E+00 0.  1.
         24    2    1    2    0    0  0.14911845425E+03 -0.60014752053E+02 -0.57883663286E+03  0.60628347481E+03  0.81790711099E+02 0.  0.
         23    2    1    2    0    0 -0.24444990886E+03 -0.12724071446E+03  0.96439711718E+02  0.30530994519E+03  0.89261342571E+02 0.  0.
        -13    1    3    3    0    0  0.13465120022E+03 -0.18902258481E+02 -0.46150418461E+03  0.48111781667E+03  0.00000000000E+00 0.  1.
         14    1    3    3    0    0  0.14467254032E+02 -0.41112493572E+02 -0.11733244824E+03  0.12516565814E+03  0.00000000000E+00 0. -1.
        -13    1    4    4    0    0 -0.83248553480E+02 -0.53737980182E+02  0.80056878380E+02  0.12738601158E+03  0.00000000000E+00 0.  1.
         13    1    4    4    0    0 -0.16120135538E+03 -0.73502734278E+02  0.16382833338E+02  0.17792393361E+03  0.00000000000E+00 0. -1.
         -2    1    1    2    0  502  0.95331454610E+02  0.18725546651E+03 -0.14341091759E+04  0.14494212033E+04  0.00000000000E+00 0.  1.
<scales pt_clust_5="13000.00000" pt_clust_6="13000.00000" pt_clust_7="13000.00000" pt_clust_8="13000.00000" pt_clust_9="210.72770"></scales>
<clustering>
<clus scale="   81.791">  5  6 -1 -1</clus>
<clus scale="   89.261">  7  8 -1 -1</clus>
<clus scale="  180.355">  1  5  2 -1</clus>
<clus scale="  210.728">  2  9  1 -1</clus>
<clus scale="  210.728">  2  5  1 -1</clus>
</clustering>
</event>
<event>
 9    2  0.1488992E-004  0.1350430E+03  0.7546771E-02  0.1221529E+00
         21   -1    0    0  501  502  0.00000000000E+00  0.00000000000E+00  0.36011385321E+02  0.36011385321E+02  0.00000000000E+00 0.  1.
         -1   -1    0    0    0  501 -0.00000000000E+00 -0.00000000000E+00 -0.88101913899E+03  0.88101913899E+03  0.00000000000E+00 0.  1.
         23    2    1    2    0    0 -0.10263758828E+03  0.26405854498E+01 -0.60207101360E+03  0.61714855327E+03  0.88551590391E+02 0.  0.
         24    2    1    2    0    0  0.99391963533E+02  0.18509019560E+02 -0.12752069731E+03  0.18249925171E+03  0.82602072689E+02 0.  0.
        -11    1    4    4    0    0  0.85895182350E+02  0.11579253490E+02 -0.43231861718E+02  0.96855848197E+02  0.00000000000E+00 0.  1.
         12    1    4    4    0    0  0.13496781183E+02  0.69297660701E+01 -0.84288835590E+02  0.85643403512E+02  0.00000000000E+00 0. -1.
        -13    1    3    3    0    0  0.59117112724E+01 -0.20015020408E+02 -0.52382315020E+02  0.56386667742E+02  0.00000000000E+00 0. -1.
         13    1    3    3    0    0 -0.10854929955E+03  0.22655605858E+02 -0.54968869858E+03  0.56076188553E+03  0.00000000000E+00 0.  1.
         -2    1    1    2    0  502  0.32456247475E+01 -0.21149605010E+02 -0.11541604276E+03  0.11738271933E+03  0.00000000000E+00 0.  1.
<scales pt_clust_5="13000.00000" pt_clust_6="13000.00000" pt_clust_7="13000.00000" pt_clust_8="13000.00000" pt_clust_9="21.39720"></scales>
<clustering>
<clus scale="   21.397">  1  9  2 -1</clus>
<clus scale="   82.602">  5  6 -1 -1</clus>
<clus scale="   88.552">  7  8 -1 -1</clus>
<clus scale="  131.219">  1  5  2 -1</clus>
<clus scale="   21.397">  1  5  2 -1</clus>
</clustering>
</event>
<event>
 9    2  0.1488992E-004  0.9950774E+02  0.7546771E-02  0.1282071E+00
         21   -1    0    0  501  502  0.00000000000E+00  0.00000000000E+00  0.95414599419E+02  0.95414599419E+02  0.00000000000E+00 0.  1.
         -1   -1    0    0    0  501 -0.00000000000E+00 -0.00000000000E+00 -0.26576928289E+03  0.26576928289E+03  0.00000000000E+00 0.  1.
         24    2    1    2    0    0 -0.48429503251E+02  0.19946701806E+02 -0.18635529492E+03  0.21275863478E+03  0.88287332228E+02 0.  0.
         23    2    1    2    0    0  0.19552477417E+02  0.15611456819E+02 -0.13101369176E+02  0.94155637781E+02  0.89819938180E+02 0.  0.
        -11    1    3    3    0    0 -0.59570296993E+02  0.21173313491E+02 -0.19057089098E+03  0.20078394850E+03  0.00000000000E+00 0.  1.
         12    1    3    3    0    0  0.11140793741E+02 -0.12266116853E+01  0.42155960575E+01  0.11974686281E+02  0.00000000000E+00 0. -1.
        -11    1    4    4    0    0  0.53439960988E+02  0.18254472513E+02  0.29856585482E+01  0.56550591103E+02  0.00000000000E+00 0. -1.
         11    1    4    4    0    0 -0.33887483571E+02 -0.26430156938E+01 -0.16087027725E+02  0.37605046679E+02  0.00000000000E+00 0.  1.
         -2    1    1    2    0  502  0.28877025834E+02 -0.35558158624E+02  0.29101980624E+02  0.54269609746E+02  0.00000000000E+00 0.  1.
<scales pt_clust_5="13000.00000" pt_clust_6="13000.00000" pt_clust_7="13000.00000" pt_clust_8="13000.00000" pt_clust_9="45.80683"></scales>
<clustering>
<clus scale="   45.807">  1  9  2 -1</clus>
<clus scale="   88.287">  5  6 -1 -1</clus>
<clus scale="   89.820">  7  8 -1 -1</clus>
<clus scale="   98.127">  2  5  1 -1</clus>
<clus scale="   45.807">  1  5  2 -1</clus>
</clustering>
</event>
<event>
 9    2  0.1488992E-004  0.1074099E+03  0.7546771E-02  0.1269910E+00
          2   -1    0    0  502    0 -0.00000000000E+00  0.00000000000E+00  0.25156836584E+03  0.25156836584E+03  0.00000000000E+00 0. -1.
         21   -1    0    0  501  502  0.00000000000E+00 -0.00000000000E+00 -0.65380604996E+02  0.65380604996E+02  0.00000000000E+00 0.  1.
         24    2    1    2    0    0 -0.93005070579E+01  0.35592184133E+02  0.14965558549E+03  0.18546901651E+03  0.10319233893E+03 0.  0.
         23    2    1    2    0    0 -0.11948898452E+02 -0.19216383049E+02  0.39825592634E+02  0.10445125304E+03  0.93871938735E+02 0.  0.
        -13    1    3    3    0    0 -0.19100859769E+02 -0.23792367958E+02  0.79778774580E+01  0.31536742788E+02  0.00000000000E+00 0.  1.
         14    1    3    3    0    0  0.98003527112E+01  0.59384552091E+02  0.14167770803E+03  0.15393227372E+03  0.00000000000E+00 0. -1.
        -11    1    4    4    0    0 -0.24975726292E+02  0.16547502944E+02 -0.18200686604E+02  0.35055267084E+02  0.00000000000E+00 0.  1.
         11    1    4    4    0    0  0.13026827840E+02 -0.35763885993E+02  0.58026279239E+02  0.69395985959E+02  0.00000000000E+00 0. -1.
          1    1    1    2  501    0  0.21249405510E+02 -0.16375801084E+02 -0.32934172790E+01  0.27028701283E+02  0.00000000000E+00 0. -1.
<scales pt_clust_5="13000.00000" pt_clust_6="13000.00000" pt_clust_7="13000.00000" pt_clust_8="13000.00000" pt_clust_9="26.82730"></scales>
<clustering>
<clus scale="   26.827">  2  9  1 -1</clus>
<clus scale="   93.872">  7  8 -1 -1</clus>
<clus scale="   98.489">  2  7  1 -1</clus>
<clus scale="  103.192">  5  6 -1 -1</clus>
<clus scale="   26.827">  2  5  1 -1</clus>
</clustering>
</event>
<event>
 9    2  0.1488992E-004  0.1055421E+03  0.7546771E-02  0.1274847E+00
         21   -1    0    0  501  502  0.00000000000E+00  0.00000000000E+00  0.38331365997E+03  0.38331365997E+03  0.00000000000E+00 0. -1.
          2   -1    0    0  502    0 -0.00000000000E+00 -0.00000000000E+00 -0.57109455379E+02  0.57109455379E+02  0.00000000000E+00 0. -1.
         23    2    1    2    0    0 -0.40838081624E+02 -0.46691682877E+02  0.27572593234E+02  0.11369143453E+03  0.91201053876E+02 0.  0.
         24    2    1    2    0    0  0.19951997637E+01  0.38660533187E+02  0.15579941016E+03  0.17849434902E+03  0.78026654295E+02 0.  0.
        -13    1    4    4    0    0  0.31414223424E+02  0.46957093239E+02  0.98517844585E+02  0.11356754704E+03  0.00000000000E+00 0.  1.
         14    1    4    4    0    0 -0.29419023660E+02 -0.82965600519E+01  0.57281565570E+02  0.64926801985E+02  0.00000000000E+00 0. -1.
        -13    1    3    3    0    0 -0.48291360179E+01 -0.41590877263E+02  0.54292640790E+02  0.68562471295E+02  0.00000000000E+00 0.  1.
         13    1    3    3    0    0 -0.36008945606E+02 -0.51008056139E+01 -0.26720047556E+02  0.45128963238E+02  0.00000000000E+00 0. -1.
          1    1    1    2  501    0  0.38842881860E+02  0.80311496898E+01  0.14283220120E+03  0.14823733179E+03  0.00000000000E+00 0. -1.
<scales pt_clust_5="13000.00000" pt_clust_6="13000.00000" pt_clust_7="13000.00000" pt_clust_8="13000.00000" pt_clust_9="39.66445"></scales>
<clustering>
<clus scale="   39.664">  1  9  2 -1</clus>
<clus scale="   78.027">  5  6 -1 -1</clus>
<clus scale="   91.201">  7  8 -1 -1</clus>
<clus scale="   94.391">  1  5  2 -1</clus>
<clus scale="   39.664">  1  5  2 -1</clus>
</clustering>
</event>
<event>
 9    2  0.1488992E-004  0.1438727E+03  0.7546771E-02  0.1235509E+00
          2   -1    0    0  502    0 -0.00000000000E+00  0.00000000000E+00  0.87550625455E+03  0.87550625455E+03  0.00000000000E+00 0. -1.
         21   -1    0    0  501  502  0.00000000000E+00 -0.00000000000E+00 -0.47754223687E+02  0.47754223687E+02  0.00000000000E+00 0. -1.
         24    2    1    2    0    0  0.46008671243E+01  0.15894564530E+02  0.51081154864E+03  0.51723232382E+03  0.79542651605E+02 0.  0.
         23    2    1    2    0    0 -0.28093063871E+02  0.93681046469E+02  0.14582009531E+03  0.20147770917E+03  0.98815021071E+02 0.  0.
        -13    1    3    3    0    0 -0.14955752667E+02 -0.24020584776E+02  0.97070925181E+02  0.10111096650E+03  0.00000000000E+00 0.  1.
         14    1    3    3    0    0  0.19556619791E+02  0.39915149306E+02  0.41374062346E+03  0.41612135732E+03  0.00000000000E+00 0. -1.
        -13    1    4    4    0    0  0.35178396923E+01  0.93223672561E+02  0.14162026162E+03  0.16958575065E+03  0.00000000000E+00 0.  1.
         13    1    4    4    0    0 -0.31610903564E+02  0.45737390816E+00  0.41998336895E+01  0.31891958516E+02  0.00000000000E+00 0. -1.
          1    1    1    2  501    0  0.23492196747E+02 -0.10957561100E+03  0.17112038691E+03  0.20455044525E+03  0.00000000000E+00 0. -1.
<scales pt_clust_5="13000.00000" pt_clust_6="13000.00000" pt_clust_7="13000.00000" pt_clust_8="13000.00000" pt_clust_9="104.57034"></scales>
<clustering>
<clus scale="   79.543">  5  6 -1 -1</clus>
<clus scale="   81.246">  1  5  2 -1</clus>
<clus scale="   98.815">  7  8 -1 -1</clus>
<clus scale="  104.570">  2  9  1 -1</clus>
<clus scale="  104.570">  2  5  1 -1</clus>
</clustering>
</event>
<event>
 9    2  0.1488992E-004  0.9377844E+02  0.7546771E-02  0.1301334E+00
         -1   -1    0    0    0  501 -0.00000000000E+00  0.00000000000E+00  0.21193910094E+03  0.21193910094E+03  0.00000000000E+00 0.  1.
         21   -1    0    0  501  502  0.00000000000E+00 -0.00000000000E+00 -0.13130558862E+03  0.13130558862E+03  0.00000000000E+00 0.  1.
         23    2    1    2    0    0 -0.13934451100E+02 -0.56779097126E+01  0.16190771499E+03  0.18711458561E+03  0.92581598544E+02 0.  0.
         24    2    1    2    0    0  0.21502360480E+02 -0.36113580089E+02 -0.57988502752E+02  0.10769431457E+03  0.80429203446E+02 0.  0.
        -11    1    4    4    0    0  0.39968722964E+02 -0.33655164449E+02 -0.61520567507E+01  0.52611944573E+02  0.00000000000E+00 0.  1.
         12    1    4    4    0    0 -0.18466362484E+02 -0.24584156395E+01 -0.51836446001E+02  0.55082370001E+02  0.00000000000E+00 0. -1.
        -11    1    3    3    0    0  0.13460143247E+02 -0.37675646511E+02  0.12453137242E+03  0.13080020074E+03  0.00000000000E+00 0.  1.
         11    1    3    3    0    0 -0.27394594347E+02  0.31997736799E+02  0.37376342567E+02  0.56314384871E+02  0.00000000000E+00 0. -1.
         -2    1    1    2    0  502 -0.75679093795E+01  0.41791489801E+02 -0.23285699912E+02  0.48435789377E+02  0.00000000000E+00 0.  1.
<scales pt_clust_5="13000.00000" pt_clust_6="13000.00000" pt_clust_7="13000.00000" pt_clust_8="13000.00000" pt_clust_9="42.47119"></scales>
<clustering>
<clus scale="   42.471">  2  9  1 -1</clus>
<clus scale="   80.429">  5  6 -1 -1</clus>
<clus scale="   81.804">  2  5  1 -1</clus>
<clus scale="   92.582">  7  8 -1 -1</clus>
<clus scale="   42.471">  2  5  1 -1</clus>
</clustering>
</event>
<event>
 9    2  0.1488992E-004  0.2634761E+03  0.7546771E-02  0.1106074E+00
         21   -1    0    0  501  502  0.00000000000E+00  0.00000000000E+00  0.74850539625E+03  0.74850539625E+03  0.00000000000E+00 0.  1.
         -3   -1    0    0    0  501 -0.00000000000E+00 -0.00000000000E+00 -0.22882898138E+03  0.22882898138E+03  0.00000000000E+00 0.  1.
         24    2    1    2    0    0 -0.10051603914E+03 -0.24379925533E+03 -0.95804372890E+02  0.29260488440E+03  0.83051727774E+02 0.  0.
         23    2    1    2    0    0  0.87043936999E+02  0.18163270098E+03  0.32087089377E+03  0.38333080767E+03  0.58457613787E+02 0.  0.
        -11    1    3    3    0    0 -0.64176034207E+02 -0.22793317031E+03 -0.83521277524E+02  0.25109340352E+03  0.00000000000E+00 0.  1.
         12    1    3    3    0    0 -0.36340004937E+02 -0.15866085015E+02 -0.12283095365E+02  0.41511480873E+02  0.00000000000E+00 0. -1.
        -13    1    4    4    0    0  0.74029077498E+02  0.12306552686E+03  0.18040923847E+03  0.23059254442E+03  0.00000000000E+00 0.  1.
         13    1    4    4    0    0  0.13014859501E+02  0.58567174111E+02  0.14046165530E+03  0.15273826325E+03  0.00000000000E+00 0. -1.
         -4    1    1    2    0  502  0.13472102145E+02  0.62166554350E+02  0.29460989400E+03  0.30139868556E+03  0.00000000000E+00 0.  1.
<scales pt_clust_5="13000.00000" pt_clust_6="13000.00000" pt_clust_7="13000.00000" pt_clust_8="13000.00000" pt_clust_9="63.60957"></scales>
<clustering>
<clus scale="   58.458">  7  8 -1 -1</clus>
<clus scale="   63.610">  1  9  2 -1</clus>
<clus scale="   83.052">  5  6 -1 -1</clus>
<clus scale="  256.787">  1  7  2 -1</clus>
<clus scale="   63.610">  1  5  2 -1</clus>
</clustering>
</event>
<event>
 9    2  0.1488992E-004  0.1434189E+03  0.7546771E-02  0.1233451E+00
         21   -1    0    0  501  502  0.00000000000E+00  0.00000000000E+00  0.49475374158E+02  0.49475374158E+02  0.00000000000E+00 0. -1.
          2   -1    0    0  502    0 -0.00000000000E+00 -0.00000000000E+00 -0.58559923854E+03  0.58559923854E+03  0.00000000000E+00 0. -1.
         24    2    1    2    0    0  0.15309838807E+02  0.24760837805E+02 -0.12605857758E+03  0.15234768067E+03  0.80446010282E+02 0.  0.
         23    2    1    2    0    0 -0.92677604940E+02 -0.85038843067E+02 -0.24044103447E+03  0.28678919668E+03  0.92819227467E+02 0.  0.
        -11    1    3    3    0    0  0.20194962400E+02  0.17357296738E+02 -0.66159568809E+00  0.26637379099E+02  0.00000000000E+00 0.  1.
         12    1    3    3    0    0 -0.48851235932E+01  0.74035410663E+01 -0.12539698189E+03  0.12571030157E+03  0.00000000000E+00 0. -1.
        -11    1    4    4    0    0  0.16026013619E+02 -0.16768807524E+02 -0.67787694698E+02  0.71646336758E+02  0.00000000000E+00 0.  1.
         11    1    4    4    0    0 -0.10870361856E+03 -0.68270035544E+02 -0.17265333977E+03  0.21514285992E+03  0.00000000000E+00 0. -1.
          1    1    1    2  501    0  0.77367766133E+02  0.60278005263E+02 -0.16962425234E+03  0.19593773535E+03  0.00000000000E+00 0. -1.
<scales pt_clust_5="13000.00000" pt_clust_6="13000.00000" pt_clust_7="13000.00000" pt_clust_8="13000.00000" pt_clust_9="109.33233"></scales>
<clustering>
<clus scale="   80.446">  5  6 -1 -1</clus>
<clus scale="   85.551">  2  5  1 -1</clus>
<clus scale="   92.819">  7  8 -1 -1</clus>
<clus scale="  109.332">  1  9  2 -1</clus>
<clus scale="  109.332">  1  5  2 -1</clus>
</clustering>
</event>
<event>
 9    2  0.1488992E-004  0.2068100E+03  0.7546771E-02  0.1144916E+00
         21   -1    0    0  501  502  0.00000000000E+00  0.00000000000E+00  0.11157322352E+03  0.11157322352E+03  0.00000000000E+00 0. -1.
         -1   -1    0    0    0  501 -0.00000000000E+00 -0.00000000000E+00 -0.77626611409E+03  0.77626611409E+03  0.00000000000E+00 0.  1.
         24    2    1    2    0    0  0.63240037136E+02  0.22793338425E+03 -0.35068210019E+03  0.43050980049E+03  0.80048878631E+02 0.  0.
         23    2    1    2    0    0  0.16456901246E+02 -0.12218850178E+03 -0.47252692538E+02  0.15951505642E+03  0.89506294222E+02 0.  0.
        -11    1    3    3    0    0  0.29387763017E+02  0.20303290502E+03 -0.31193575855E+03  0.37334959301E+03  0.00000000000E+00 0.  1.
         12    1    3    3    0    0  0.33852274119E+02  0.24900479236E+02 -0.38746341639E+02  0.57160207484E+02  0.00000000000E+00 0. -1.
        -13    1    4    4    0    0 -0.14797921521E+02 -0.76650944551E+02  0.11464234764E+02  0.78903576983E+02  0.00000000000E+00 0. -1.
         13    1    4    4    0    0  0.31254822768E+02 -0.45537557228E+02 -0.58716927302E+02  0.80611479433E+02  0.00000000000E+00 0.  1.
         -2    1    1    2    0  502 -0.79696938383E+02 -0.10574488247E+03 -0.26675809784E+03  0.29781448070E+03  0.00000000000E+00 0.  1.
<scales pt_clust_5="13000.00000" pt_clust_6="13000.00000" pt_clust_7="13000.00000" pt_clust_8="13000.00000" pt_clust_9="132.41450"></scales>
<clustering>
<clus scale="   80.049">  5  6 -1 -1</clus>
<clus scale="   89.506">  7  8 -1 -1</clus>
<clus scale="  132.414">  1  9  2 -1</clus>
<clus scale="  202.896">  2  5  1 -1</clus>
<clus scale="  132.414">  1  5  2 -1</clus>
</clustering>
</event>
<event>
 9    2  0.1488992E-004  0.9883332E+02  0.7546771E-02  0.1289574E+00
         21   -1    0    0  501  502  0.00000000000E+00  0.00000000000E+00  0.21616428002E+03  0.21616428002E+03  0.00000000000E+00 0.  1.
          2   -1    0    0  502    0 -0.00000000000E+00 -0.00000000000E+00 -0.61320122521E+02  0.61320122521E+02  0.00000000000E+00 0. -1.
         24    2    1    2    0    0  0.37015475107E+02 -0.18672633609E+02  0.67697402759E+02  0.11015922313E+03  0.76376065993E+02 0.  0.
         23    2    1    2    0    0 -0.46504032602E+02 -0.11889606404E+02  0.89154159366E+02  0.13526097958E+03  0.89683224046E+02 0.  0.
        -13    1    3    3    0    0  0.19795199233E+02 -0.30627254431E+02 -0.28349643287E+01  0.36577529296E+02  0.00000000000E+00 0.  1.
         14    1    3    3    0    0  0.17220275874E+02  0.11954620822E+02  0.70532367087E+02  0.73581693831E+02  0.00000000000E+00 0. -1.
        -13    1    4    4    0    0 -0.22216838415E+02 -0.30333565714E+02  0.96778421375E+02  0.10382569991E+03  0.00000000000E+00 0.  1.
         13    1    4    4    0    0 -0.24287194187E+02  0.18443959310E+02 -0.76242620094E+01  0.31435279666E+02  0.00000000000E+00 0. -1.
          1    1    1    2  501    0  0.94885574945E+01  0.30562240013E+02 -0.20074046246E+01  0.32064199838E+02  0.00000000000E+00 0. -1.
<scales pt_clust_5="13000.00000" pt_clust_6="13000.00000" pt_clust_7="13000.00000" pt_clust_8="13000.00000" pt_clust_9="32.00132"></scales>
<clustering>
<clus scale="   32.001">  1  9  2 -1</clus>
<clus scale="   76.376">  5  6 -1 -1</clus>
<clus scale="   86.938">  2  5  1 -1</clus>
<clus scale="   89.683">  7  8 -1 -1</clus>
<clus scale="   32.001">  1  5  2 -1</clus>
</clustering>
</event>
<event>
 9    2  0.1488992E-004  0.1992156E+03  0.7546771E-02  0.1178667E+00
         21   -1    0    0  501  502  0.00000000000E+00  0.00000000000E+00  0.14953629879E+03  0.14953629879E+03  0.00000000000E+00 0. -1.
          4   -1    0    0  502    0 -0.00000000000E+00 -0.00000000000E+00 -0.40457636327E+03  0.40457636327E+03  0.00000000000E+00 0. -1.
         24    2    1    2    0    0  0.64197606968E+02 -0.25291344129E+01 -0.87882724636E+02  0.13593490606E+03  0.81407592607E+02 0.  0.
         23    2    1    2    0    0 -0.30205354645E+02  0.17704098183E+03 -0.62902607913E+02  0.21207363853E+03  0.93608853099E+02 0.  0.
        -11    1    3    3    0    0 -0.15644109867E+02 -0.13787638950E+02 -0.77206600799E+01  0.22236136207E+02  0.00000000000E+00 0.  1.
         12    1    3    3    0    0  0.79841716836E+02  0.11258504537E+02 -0.80162064556E+02  0.11369876985E+03  0.00000000000E+00 0. -1.
        -13    1    4    4    0    0 -0.56659284572E+02  0.71429155738E+02 -0.45226796492E+02  0.10177358173E+03  0.00000000000E+00 0.  1.
         13    1    4    4    0    0  0.26453929927E+02  0.10561182609E+03 -0.17675811422E+02  0.11030005680E+03  0.00000000000E+00 0. -1.
          3    1    1    2  501    0 -0.33992252323E+02 -0.17451184742E+03 -0.10425473193E+03  0.20610411747E+03  0.00000000000E+00 0. -1.
<scales pt_clust_5="13000.00000" pt_clust_6="13000.00000" pt_clust_7="13000.00000" pt_clust_8="13000.00000" pt_clust_9="175.85295"></scales>
<clustering>
<clus scale="   81.408">  5  6 -1 -1</clus>
<clus scale="   93.609">  7  8 -1 -1</clus>
<clus scale="  103.706">  2  5  1 -1</clus>
<clus scale="  175.853">  1  9  2 -1</clus>
<clus scale="  175.853">  1  5  2 -1</clus>
</clustering>
</event>
<event>
 9    2  0.1488992E-004  0.1048279E+03  0.7546771E-02  0.1275142E+00
         21   -1    0    0  501  502  0.00000000000E+00  0.00000000000E+00  0.10334168886E+03  0.10334168886E+03  0.00000000000E+00 0.  1.
          2   -1    0    0  502    0 -0.00000000000E+00 -0.00000000000E+00 -0.47691681913E+03  0.47691681913E+03  0.00000000000E+00 0. -1.
         24    2    1    2    0    0 -0.30845828029E+02 -0.29767201577E+02 -0.31881231448E+03  0.33162899650E+03  0.80616053355E+02 0.  0.
         23    2    1    2    0    0  0.96289417718E+02  0.46907533649E+02 -0.95172337514E+02  0.16982859868E+03  0.91170227730E+02 0.  0.
        -13    1    3    3    0    0 -0.19649174441E+02 -0.71061445399E+01 -0.12651099667E+02  0.24426167714E+02  0.00000000000E+00 0.  1.
         14    1    3    3    0    0 -0.11196653588E+02 -0.22661057038E+02 -0.30616121481E+03  0.30720282878E+03  0.00000000000E+00 0. -1.
        -11    1    4    4    0    0  0.87898978335E+02  0.27535014745E+02 -0.23429333409E+02  0.95043890353E+02  0.00000000000E+00 0.  1.
         11    1    4    4    0    0  0.83904393833E+01  0.19372518903E+02 -0.71743004105E+02  0.74784708328E+02  0.00000000000E+00 0. -1.
          1    1    1    2  501    0 -0.65443589690E+02 -0.17140332071E+02  0.40409521721E+02  0.78800912817E+02  0.00000000000E+00 0. -1.
<scales pt_clust_5="13000.00000" pt_clust_6="13000.00000" pt_clust_7="13000.00000" pt_clust_8="13000.00000" pt_clust_9="67.65097"></scales>
<clustering>
<clus scale="   67.651">  1  9  2 -1</clus>
<clus scale="   80.616">  5  6 -1 -1</clus>
<clus scale="   91.170">  7  8 -1 -1</clus>
<clus scale="   95.791">  2  5  1 -1</clus>
<clus scale="   67.651">  1  5  2 -1</clus>
</clustering>
</event>
<event>
 9    2  0.1488992E-004  0.8279976E+02  0.7546771E-02  0.1323629E+00
         21   -1    0    0  501  502  0.00000000000E+00  0.00000000000E+00  0.10210191150E+03  0.10210191150E+03  0.00000000000E+00 0.  1.
          2   -1    0    0  502    0 -0.00000000000E+00 -0.00000000000E+00 -0.31012361749E+03  0.31012361749E+03  0.00000000000E+00 0. -1.
         24    2    1    2    0    0 -0.61251057189E+01 -0.16071889116E+01 -0.25803237378E+03  0.27089419999E+03  0.82236620131E+02 0.  0.
         23    2    1    2    0    0  0.45892212574E+02  0.62662318335E+01  0.41432762074E+02  0.10038368029E+03  0.78834311437E+02 0.  0.
        -11    1    3    3    0    0 -0.34497907725E+02  0.23892277939E+02 -0.16700764344E+03  0.17219901146E+03  0.00000000000E+00 0.  1.
         12    1    3    3    0    0  0.28372802006E+02 -0.25499466850E+02 -0.91024730347E+02  0.98695188525E+02  0.00000000000E+00 0. -1.
        -13    1    4    4    0    0  0.59762920768E+01  0.37942556015E+02  0.28447634886E+02  0.47797714951E+02  0.00000000000E+00 0.  1.
         13    1    4    4    0    0  0.39915920497E+02 -0.31676324182E+02  0.12985127188E+02  0.52585965342E+02  0.00000000000E+00 0. -1.
          1    1    1    2  501    0 -0.39767106855E+02 -0.46590429219E+01  0.85779057145E+01  0.40947648712E+02  0.00000000000E+00 0. -1.
<scales pt_clust_5="13000.00000" pt_clust_6="13000.00000" pt_clust_7="13000.00000" pt_clust_8="13000.00000" pt_clust_9="40.03910"></scales>
<clustering>
<clus scale="   40.039">  1  9  2 -1</clus>
<clus scale="   78.834">  7  8 -1 -1</clus>
<clus scale="   79.422">  1  7  2 -1</clus>
<clus scale="   82.237">  5  6 -1 -1</clus>
<clus scale="   40.039">  1  5  2 -1</clus>
</clustering>
</event>
<event>
 9    2  0.1488992E-004  0.1439167E+03  0.7546771E-02  0.1227745E+00
         21   -1    0    0  501  502  0.00000000000E+00  0.00000000000E+00  0.42892670203E+02  0.42892670203E+02  0.00000000000E+00 0. -1.
          2   -1    0    0  502    0 -0.00000000000E+00 -0.00000000000E+00 -0.15210992842E+04  0.15210992842E+04  0.00000000000E+00 0. -1.
         24    2    1    2    0    0  0.16978429122E+02 -0.46600008062E+02 -0.89828877792E+03  0.90332386517E+03  0.81310817475E+02 0.  0.
         23    2    1    2    0    0  0.50189473338E+02 -0.53867555376E+02 -0.50567334710E+03  0.51883190707E+03  0.89779268615E+02 0.  0.
        -11    1    3    3    0    0 -0.75263756885E+01 -0.45449800680E+02 -0.22912133872E+03  0.23370690740E+03  0.00000000000E+00 0.  1.
         12    1    3    3    0    0  0.24504804810E+02 -0.11502073818E+01 -0.66916743920E+03  0.66961695777E+03  0.00000000000E+00 0. -1.
        -11    1    4    4    0    0  0.21415315082E+01  0.23968687862E+02 -0.85835390154E+02  0.89144816776E+02  0.00000000000E+00 0.  1.
         11    1    4    4    0    0  0.48047941830E+02 -0.77836243238E+02 -0.41983795694E+03  0.42968709030E+03  0.00000000000E+00 0. -1.
          1    1    1    2  501    0 -0.67167902460E+02  0.10046756344E+03 -0.74244488955E+02  0.14183618214E+03  0.00000000000E+00 0. -1.
<scales pt_clust_5="13000.00000" pt_clust_6="13000.00000" pt_clust_7="13000.00000" pt_clust_8="13000.00000" pt_clust_9="112.47980"></scales>
<clustering>
<clus scale="   81.311">  5  6 -1 -1</clus>
<clus scale="   89.779">  7  8 -1 -1</clus>
<clus scale="   95.243">  2  5  1 -1</clus>
<clus scale="  112.480">  1  9  2 -1</clus>
<clus scale="  112.480">  1  5  2 -1</clus>
</clustering>
</event>
<event>
 9    2  0.1488992E-004  0.1346418E+03  0.7546771E-02  0.1228086E+00
          2   -1    0    0  502    0 -0.00000000000E+00  0.00000000000E+00  0.85556567753E+02  0.85556567753E+02  0.00000000000E+00 0. -1.
         21   -1    0    0  501  502  0.00000000000E+00 -0.00000000000E+00 -0.32836947001E+03  0.32836947001E+03  0.00000000000E+00 0. -1.
         23    2    1    2    0    0  0.95383208713E+02  0.25908701726E+02 -0.19686418444E+02  0.14662776314E+03  0.10650318550E+03 0.  0.
         24    2    1    2    0    0 -0.55061737343E+02 -0.64659957525E+01 -0.12093139425E+03  0.15572912029E+03  0.80954016394E+02 0.  0.
        -11    1    4    4    0    0 -0.53642619460E+02  0.30089398251E+02 -0.73962275557E+02  0.96194182335E+02  0.00000000000E+00 0.  1.
         12    1    4    4    0    0 -0.14191178838E+01 -0.36555394004E+02 -0.46969118695E+02  0.59534937955E+02  0.00000000000E+00 0. -1.
        -11    1    3    3    0    0  0.47801853302E+02 -0.33221998042E+02 -0.36741178401E+02  0.68837726018E+02  0.00000000000E+00 0.  1.
         11    1    3    3    0    0  0.47581355411E+02  0.59130699767E+02  0.17054759956E+02  0.77790037118E+02  0.00000000000E+00 0. -1.
          1    1    1    2  501    0 -0.40321471370E+02 -0.19442705973E+02 -0.10219508956E+03  0.11156915434E+03  0.00000000000E+00 0. -1.
<scales pt_clust_5="13000.00000" pt_clust_6="13000.00000" pt_clust_7="13000.00000" pt_clust_8="13000.00000" pt_clust_9="44.76427"></scales>
<clustering>
<clus scale="   44.764">  2  9  1 -1</clus>
<clus scale="   80.954">  5  6 -1 -1</clus>
<clus scale="  106.503">  7  8 -1 -1</clus>
<clus scale="  115.495">  2  5  1 -1</clus>
<clus scale="   44.764">  2  5  1 -1</clus>
</clustering>
</event>
<event>
 9    2  0.1488992E-004  0.1460661E+03  0.7546771E-02  0.1222250E+00
         21   -1    0    0  501  502  0.00000000000E+00  0.00000000000E+00  0.10015373727E+04  0.10015373727E+04  0.00000000000E+00 0.  1.
         -1   -1    0    0    0  501 -0.00000000000E+00 -0.00000000000E+00 -0.50657027786E+02  0.50657027786E+02  0.00000000000E+00 0.  1.
         24    2    1    2    0    0  0.39752662362E+02 -0.49502342827E+02  0.57910528889E+02  0.11741682648E+03  0.80014534139E+02 0.  0.
         23    2    1    2    0    0 -0.17904547801E+02 -0.78192263811E+02  0.24442204017E+03  0.27341725600E+03  0.92629688571E+02 0.  0.
        -11    1    3    3    0    0  0.60341278930E+02 -0.37627777714E+02  0.22156469009E+02  0.74483748009E+02  0.00000000000E+00 0.  1.
         12    1    3    3    0    0 -0.20588616568E+02 -0.11874565113E+02  0.35754059880E+02  0.42933078468E+02  0.00000000000E+00 0. -1.
        -13    1    4    4    0    0 -0.68321636414E+00 -0.96903660666E+02  0.18705684693E+03  0.21066810442E+03  0.00000000000E+00 0.  1.
         13    1    4    4    0    0 -0.17221331436E+02  0.18711396855E+02  0.57365193244E+02  0.62749151585E+02  0.00000000000E+00 0. -1.
         -2    1    1    2    0  502 -0.21848114562E+02  0.12769460664E+03  0.64854777590E+03  0.66136031805E+03  0.00000000000E+00 0.  1.
<scales pt_clust_5="13000.00000" pt_clust_6="13000.00000" pt_clust_7="13000.00000" pt_clust_8="13000.00000" pt_clust_9="112.93830"></scales>
<clustering>
<clus scale="   80.015">  5  6 -1 -1</clus>
<clus scale="   92.630">  7  8 -1 -1</clus>
<clus scale="  102.142">  2  5  1 -1</clus>
<clus scale="  112.938">  1  9  2 -1</clus>
<clus scale="  112.938">  1  5  2 -1</clus>
</clustering>
</event>
<event>
 9    2  0.1488992E-004  0.1688293E+03  0.7546771E-02  0.1179303E+00
          2   -1    0    0  502    0 -0.00000000000E+00  0.00000000000E+00  0.12043031834E+04  0.12043031834E+04  0.00000000000E+00 0. -1.
         21   -1    0    0  501  502  0.00000000000E+00 -0.00000000000E+00 -0.51288674347E+02  0.51288674347E+02  0.00000000000E+00 0.  1.
         23    2    1    2    0    0 -0.15699953338E+03 -0.70285766365E+02  0.50018663179E+03  0.53612333013E+03  0.87479232135E+02 0.  0.
         24    2    1    2    0    0  0.10576913110E+03 -0.76827678601E+00  0.12642647789E+03  0.18582851372E+03  0.85795587641E+02 0.  0.
        -13    1    4    4    0    0  0.79326973550E+02 -0.38026686972E+00  0.28337629777E+02  0.84237370549E+02  0.00000000000E+00 0.  1.
         14    1    4    4    0    0  0.26442157545E+02 -0.38800991629E+00  0.98088848110E+02  0.10159114317E+03  0.00000000000E+00 0. -1.
        -11    1    3    3    0    0 -0.98199217789E+02 -0.79834558306E+00  0.20665304774E+03  0.22879948835E+03  0.00000000000E+00 0.  1.
         11    1    3    3    0    0 -0.58800315588E+02 -0.69487420782E+02  0.29353358405E+03  0.30732384178E+03  0.00000000000E+00 0. -1.
          1    1    1    2  501    0  0.51230402282E+02  0.71054043151E+02  0.52640139939E+03  0.53364001391E+03  0.00000000000E+00 0. -1.
<scales pt_clust_5="13000.00000" pt_clust_6="13000.00000" pt_clust_7="13000.00000" pt_clust_8="13000.00000" pt_clust_9="87.59703"></scales>
<clustering>
<clus scale="   85.796">  5  6 -1 -1</clus>
<clus scale="   87.479">  7  8 -1 -1</clus>
<clus scale="   87.597">  2  9  1 -1</clus>
<clus scale="  167.963">  2  5  1 -1</clus>
<clus scale="   87.597">  2  5  1 -1</clus>
</clustering>
</event>
<event>
 9    2  0.1488992E-004  0.9337064E+02  0.7546771E-02  0.1299415E+00
          2   -1    0    0  502    0 -0.00000000000E+00  0.00000000000E+00  0.50062141218E+02  0.50062141218E+02  0.00000000000E+00 0. -1.
         21   -1    0    0  501  502  0.00000000000E+00 -0.00000000000E+00 -0.52142865860E+03  0.52142865860E+03  0.00000000000E+00 0. -1.
         23    2    1    2    0    0 -0.41424006430E+01 -0.14463369760E+02 -0.36389231853E+02  0.97278328244E+02  0.88952506446E+02 0.  0.
         24    2    1    2    0    0  0.60895531002E+02  0.36946971706E+02 -0.16302154246E+03  0.19548974851E+03  0.81036251481E+02 0.  0.
        -13    1    4    4    0    0 -0.38153629479E+01  0.23227342067E+02 -0.48361498346E+01  0.24030288370E+02  0.00000000000E+00 0.  1.
         14    1    4    4    0    0  0.64710893950E+02  0.13719629640E+02 -0.15818539263E+03  0.17145946015E+03  0.00000000000E+00 0. -1.
        -11    1    3    3    0    0  0.39430781235E+01  0.37201527167E+02 -0.20314456199E+02  0.42569691323E+02  0.00000000000E+00 0.  1.
         11    1    3    3    0    0 -0.80854787665E+01 -0.51664896928E+02 -0.16074775654E+02  0.54708636921E+02  0.00000000000E+00 0. -1.
          1    1    1    2  501    0 -0.56753130359E+02 -0.22483601946E+02 -0.27195574306E+03  0.27872272306E+03  0.00000000000E+00 0. -1.
<scales pt_clust_5="13000.00000" pt_clust_6="13000.00000" pt_clust_7="13000.00000" pt_clust_8="13000.00000" pt_clust_9="61.04449"></scales>
<clustering>
<clus scale="   61.044">  2  9  1 -1</clus>
<clus scale="   81.036">  5  6 -1 -1</clus>
<clus scale="   85.863">  2  5  1 -1</clus>
<clus scale="   88.953">  7  8 -1 -1</clus>
<clus scale="   61.044">  2  5  1 -1</clus>
</clustering>
</event>
<event>
 9    2  0.1488992E-004  0.1209346E+03  0.7546771E-02  0.1245817E+00
         21   -1    0    0  501  502  0.00000000000E+00  0.00000000000E+00  0.10157361366E+03  0.10157361366E+03  0.00000000000E+00 0.  1.
          2   -1    0    0  502    0 -0.00000000000E+00 -0.00000000000E+00 -0.27095185746E+03  0.27095185746E+03  0.00000000000E+00 0. -1.
         24    2    1    2    0    0 -0.68258091467E+02 -0.16726918013E+02 -0.57138599157E+02  0.12097437825E+03  0.80193664604E+02 0.  0.
         23    2    1    2    0    0  0.93315213882E+02 -0.32638968284E+02 -0.11425500223E+02  0.13653656410E+03  0.93480799567E+02 0.  0.
        -11    1    3    3    0    0 -0.12914612860E+02  0.30824082100E+02 -0.14198969587E+02  0.36311458246E+02  0.00000000000E+00 0.  1.
         12    1    3    3    0    0 -0.55343478607E+02 -0.47551000113E+02 -0.42939629571E+02  0.84662920005E+02  0.00000000000E+00 0. -1.
        -11    1    4    4    0    0  0.67994727679E+02  0.31757749779E+00  0.33103903410E+02  0.75625738135E+02  0.00000000000E+00 0.  1.
         11    1    4    4    0    0  0.25320486203E+02 -0.32956545782E+02 -0.44529403633E+02  0.60910825962E+02  0.00000000000E+00 0. -1.
          1    1    1    2  501    0 -0.25057122415E+02  0.49365886297E+02 -0.10081414442E+03  0.11501452877E+03  0.00000000000E+00 0. -1.
<scales pt_clust_5="13000.00000" pt_clust_6="13000.00000" pt_clust_7="13000.00000" pt_clust_8="13000.00000" pt_clust_9="55.36112"></scales>
<clustering>
<clus scale="   55.361">  1  9  2 -1</clus>
<clus scale="   80.194">  5  6 -1 -1</clus>
<clus scale="   93.481">  7  8 -1 -1</clus>
<clus scale="  110.984">  2  5  1 -1</clus>
<clus scale="   55.361">  1  5  2 -1</clus>
</clustering>
</event>
<event>
 9    2  0.1488992E-004  0.1216066E+03  0.7546771E-02  0.1243193E+00
         21   -1    0    0  501  502  0.00000000000E+00  0.00000000000E+00  0.40792460775E+02  0.40792460775E+02  0.00000000000E+00 0.  1.
          4   -1    0    0  502    0 -0.00000000000E+00 -0.00000000000E+00 -0.65533730963E+03  0.65533730963E+03  0.00000000000E+00 0. -1.
         23    2    1    2    0    0  0.92190720426E+02  0.11450307491E+02 -0.46173828333E+03  0.47967082999E+03  0.90838452070E+02 0.  0.
         24    2    1    2    0    0 -0.45189143450E+02 -0.55806784704E+01 -0.57257599979E+02  0.10981370799E+03  0.81898809811E+02 0.  0.
        -13    1    4    4    0    0 -0.48930942606E+02 -0.97341165976E+01  0.23494597416E+01  0.49945071141E+02  0.00000000000E+00 0.  1.
         14    1    4    4    0    0  0.37417991561E+01  0.41534381272E+01 -0.59607059720E+02  0.59868636845E+02  0.00000000000E+00 0. -1.
        -11    1    3    3    0    0  0.38710822517E+02  0.42428617440E+02 -0.12852414067E+03  0.14077347084E+03  0.00000000000E+00 0.  1.
         11    1    3    3    0    0  0.53479897909E+02 -0.30978309949E+02 -0.33321414266E+03  0.33889735915E+03  0.00000000000E+00 0. -1.
          3    1    1    2  501    0 -0.47001576976E+02 -0.58696290207E+01 -0.95548965540E+02  0.10664523242E+03  0.00000000000E+00 0. -1.
<scales pt_clust_5="13000.00000" pt_clust_6="13000.00000" pt_clust_7="13000.00000" pt_clust_8="13000.00000" pt_clust_9="47.36669"></scales>
<clustering>
<clus scale="   47.367">  1  9  2 -1</clus>
<clus scale="   81.899">  5  6 -1 -1</clus>
<clus scale="   90.838">  7  8 -1 -1</clus>
<clus scale="  115.082">  1  5  2 -1</clus>
<clus scale="   47.367">  1  5  2 -1</clus>
</clustering>
</event>
<event>
 9    2  0.1488992E-004  0.9021667E+02  0.7546771E-02  0.1312227E+00
         -3   -1    0    0    0  501 -0.00000000000E+00  0.00000000000E+00  0.83385243622E+02  0.83385243622E+02  0.00000000000E+00 0.  1.
         21   -1    0    0  501  502  0.00000000000E+00 -0.00000000000E+00 -0.31873982676E+03  0.31873982676E+03  0.00000000000E+00 0.  1.
         24    2    1    2    0    0  0.18546003495E+02  0.10641475461E+02  0.38807379615E+02  0.84894730823E+02  0.72414828339E+02 0.  0.
         23    2    1    2    0    0 -0.27243672059E+02  0.20461001483E+02 -0.90039904629E+02  0.13029734141E+03  0.87802861589E+02 0.  0.
        -13    1    3    3    0    0  0.12338274330E+02  0.40783373927E+02  0.12489802480E+02  0.44401709069E+02  0.00000000000E+00 0.  1.
         14    1    3    3    0    0  0.62077291653E+01 -0.30141898466E+02  0.26317577135E+02  0.40493021754E+02  0.00000000000E+00 0. -1.
        -11    1    4    4    0    0  0.26488982560E+02  0.33331417722E+01 -0.61597918204E+02  0.67134786499E+02  0.00000000000E+00 0.  1.
         11    1    4    4    0    0 -0.53732654619E+02  0.17127859711E+02 -0.28441986425E+02  0.63162554908E+02  0.00000000000E+00 0. -1.
         -4    1    1    2    0  502  0.86976685637E+01 -0.31102476944E+02 -0.18412205812E+03  0.18693299815E+03  0.00000000000E+00 0.  1.
<scales pt_clust_5="13000.00000" pt_clust_6="13000.00000" pt_clust_7="13000.00000" pt_clust_8="13000.00000" pt_clust_9="32.29572"></scales>
<clustering>
<clus scale="   32.296">  2  9  1 -1</clus>
<clus scale="   72.415">  5  6 -1 -1</clus>
<clus scale="   75.323">  1  5  2 -1</clus>
<clus scale="   87.803">  7  8 -1 -1</clus>
<clus scale="   32.296">  2  5  1 -1</clus>
</clustering>
</event>
<event>
 9    2  0.1488992E-004  0.9233302E+02  0.7546771E-02  0.1303407E+00
         21   -1    0    0  501  502  0.00000000000E+00  0.00000000000E+00  0.31856329593E+02  0.31856329593E+02  0.00000000000E+00 0.  1.
          2   -1    0    0  502    0 -0.00000000000E+00 -0.00000000000E+00 -0.64127031706E+03  0.64127031706E+03  0.00000000000E+00 0. -1.
         23    2    1    2    0    0 -0.20898314999E+02 -0.94859552567E+01 -0.49648921436E+03  0.50517806547E+03  0.90424636806E+02 0.  0.
         24    2    1    2    0    0  0.10541301041E+02 -0.14203988805E+02 -0.11566513395E+03  0.14194875877E+03  0.80362644173E+02 0.  0.
        -11    1    4    4    0    0  0.23388566767E+00 -0.46654975152E+02 -0.52835628308E+02  0.70486488263E+02  0.00000000000E+00 0.  1.
         12    1    4    4    0    0  0.10307415373E+02  0.32450986347E+02 -0.62829505646E+02  0.71462270508E+02  0.00000000000E+00 0. -1.
        -11    1    3    3    0    0  0.18730297668E+02  0.31128343687E+02 -0.17720460451E+03  0.18089021447E+03  0.00000000000E+00 0. -1.
         11    1    3    3    0    0 -0.39628612667E+02 -0.40614298944E+02 -0.31928460985E+03  0.32428785100E+03  0.00000000000E+00 0.  1.
          1    1    1    2  501    0  0.10357013958E+02  0.23689944062E+02  0.27403608461E+01  0.25999822410E+02  0.00000000000E+00 0. -1.
<scales pt_clust_5="13000.00000" pt_clust_6="13000.00000" pt_clust_7="13000.00000" pt_clust_8="13000.00000" pt_clust_9="25.85500"></scales>
<clustering>
<clus scale="   25.855">  1  9  2 -1</clus>
<clus scale="   80.363">  5  6 -1 -1</clus>
<clus scale="   82.504">  1  5  2 -1</clus>
<clus scale="   90.425">  7  8 -1 -1</clus>
<clus scale="   25.855">  1  5  2 -1</clus>
</clustering>
</event>
<event>
 9    2  0.1488992E-004  0.1501297E+03  0.7546771E-02  0.1205889E+00
         21   -1    0    0  501  502  0.00000000000E+00  0.00000000000E+00  0.12544363456E+03  0.12544363456E+03  0.00000000000E+00 0. -1.
          2   -1    0    0  502    0 -0.00000000000E+00 -0.00000000000E+00 -0.10501312175E+04  0.10501312175E+04  0.00000000000E+00 0. -1.
         24    2    1    2    0    0 -0.11361083274E+03  0.21790167634E+02 -0.82514327142E+03  0.83712907026E+03  0.80879102274E+02 0.  0.
         23    2    1    2    0    0  0.73374509991E+02 -0.50102435536E+01 -0.19466199967E+03  0.23381355872E+03  0.10661409320E+03 0.  0.
        -11    1    3    3    0    0 -0.70900268678E+02 -0.20225285020E+01 -0.24873951370E+03  0.25865475909E+03  0.00000000000E+00 0.  1.
         12    1    3    3    0    0 -0.42710564060E+02  0.23812696136E+02 -0.57640375772E+03  0.57847431118E+03  0.00000000000E+00 0. -1.
        -13    1    4    4    0    0  0.58211605363E+01  0.42284638498E+02 -0.97112497601E+02  0.10607880916E+03  0.00000000000E+00 0. -1.
         13    1    4    4    0    0  0.67553349455E+02 -0.47294882051E+02 -0.97549502065E+02  0.12773474956E+03  0.00000000000E+00 0.  1.
          1    1    1    2  501    0  0.40236322747E+02 -0.16779924081E+02  0.95117688114E+02  0.10463222311E+03  0.00000000000E+00 0. -1.
<scales pt_clust_5="13000.00000" pt_clust_6="13000.00000" pt_clust_7="13000.00000" pt_clust_8="13000.00000" pt_clust_9="43.59504"></scales>
<clustering>
<clus scale="   43.595">  1  9  2 -1</clus>
<clus scale="   80.879">  5  6 -1 -1</clus>
<clus scale="  106.614">  7  8 -1 -1</clus>
<clus scale="  133.093">  2  5  1 -1</clus>
<clus scale="   43.595">  1  5  2 -1</clus>
</clustering>
</event>
<event>
 9    2  0.1488992E-004  0.2083176E+03  0.7546771E-02  0.1142905E+00
          2   -1    0    0  502    0 -0.00000000000E+00  0.00000000000E+00  0.86736784546E+02  0.86736784546E+02  0.00000000000E+00 0. -1.
         21   -1    0    0  501  502  0.00000000000E+00 -0.00000000000E+00 -0.28991750308E+03  0.28991750308E+03  0.00000000000E+00 0.  1.
         24    2    1    2    0    0 -0.16292171458E+01  0.82834122804E+02 -0.57192963146E+02  0.12865462753E+03  0.80105130318E+02 0.  0.
         23    2    1    2    0    0 -0.12888466691E+02  0.23536963550E+02 -0.59369041200E+02  0.11005629199E+03  0.88699510296E+02 0.  0.
        -11    1    3    3    0    0 -0.97957120295E+01  0.94734151038E+02 -0.61766266645E+02  0.11351469968E+03  0.00000000000E+00 0.  1.
         12    1    3    3    0    0  0.81664948837E+01 -0.11900028234E+02  0.45733034996E+01  0.15139927858E+02  0.00000000000E+00 0. -1.
        -11    1    4    4    0    0  0.34117421463E+02  0.14008564264E+02 -0.48409478998E+02  0.60858162780E+02  0.00000000000E+00 0.  1.
         11    1    4    4    0    0 -0.47005888155E+02  0.95283992862E+01 -0.10959562202E+02  0.49198129210E+02  0.00000000000E+00 0. -1.
          1    1    1    2  501    0  0.14517683837E+02 -0.10637108635E+03 -0.86618714191E+02  0.13794336811E+03  0.00000000000E+00 0. -1.
<scales pt_clust_5="13000.00000" pt_clust_6="13000.00000" pt_clust_7="13000.00000" pt_clust_8="13000.00000" pt_clust_9="107.35721"></scales>
<clustering>
<clus scale="   80.105">  5  6 -1 -1</clus>
<clus scale="   88.700">  7  8 -1 -1</clus>
<clus scale="   89.739">  5  7 -1 -1</clus>
<clus scale="  107.357">  2  9  1 -1</clus>
<clus scale="  107.357">  2  5  1 -1</clus>
</clustering>
</event>
<event>
 9    2  0.1488992E-004  0.1007332E+03  0.7546771E-02  0.1285454E+00
         21   -1    0    0  501  502  0.00000000000E+00  0.00000000000E+00  0.75747827065E+02  0.75747827065E+02  0.00000000000E+00 0. -1.
          2   -1    0    0  502    0 -0.00000000000E+00 -0.00000000000E+00 -0.38964238471E+03  0.38964238471E+03  0.00000000000E+00 0. -1.
         24    2    1    2    0    0 -0.11001094131E+00  0.39964080153E+02 -0.20067928332E+03  0.21908266122E+03  0.78280890952E+02 0.  0.
         23    2    1    2    0    0  0.15295157601E+02 -0.54251938336E+02  0.21711620840E+02  0.10977917032E+03  0.91667099319E+02 0.  0.
        -11    1    3    3    0    0  0.30508033681E+02  0.19069426431E+02 -0.38388344082E+02  0.52612242918E+02  0.00000000000E+00 0.  1.
         12    1    3    3    0    0 -0.30618044622E+02  0.20894653721E+02 -0.16229093924E+03  0.16647041831E+03  0.00000000000E+00 0. -1.
        -13    1    4    4    0    0 -0.28083860014E+02 -0.49094923973E+02  0.31881585414E+02  0.64926498764E+02  0.00000000000E+00 0. -1.
         13    1    4    4    0    0  0.43379017615E+02 -0.51570143629E+01 -0.10169964573E+02  0.44852671557E+02  0.00000000000E+00 0.  1.
          1    1    1    2  501    0 -0.15185146659E+02  0.14287858183E+02 -0.13492689516E+03  0.13652838023E+03  0.00000000000E+00 0. -1.
<scales pt_clust_5="13000.00000" pt_clust_6="13000.00000" pt_clust_7="13000.00000" pt_clust_8="13000.00000" pt_clust_9="20.85023"></scales>
<clustering>
<clus scale="   20.850">  1  9  2 -1</clus>
<clus scale="   78.281">  5  6 -1 -1</clus>
<clus scale="   88.725">  2  5  1 -1</clus>
<clus scale="   91.667">  7  8 -1 -1</clus>
<clus scale="   20.850">  1  5  2 -1</clus>
</clustering>
</event>
<event>
 9    2  0.2949201E-004  0.3206229E+03  0.7546771E-02  0.1123181E+00
          2   -1    0    0  502    0 -0.00000000000E+00  0.00000000000E+00  0.69338052539E+03  0.69338052539E+03  0.00000000000E+00 0. -1.
         21   -1    0    0  501  502  0.00000000000E+00 -0.00000000000E+00 -0.35075575858E+03  0.35075575858E+03  0.00000000000E+00 0.  1.
         23    2    1    2    0    0 -0.18495346542E+02  0.14943666195E+02  0.17421611407E+03  0.19725205781E+03  0.89396470327E+02 0.  0.
         24    2    1    2    0    0  0.13446431149E+03  0.27868277929E+03 -0.18793988708E+03  0.37080695076E+03  0.80197575009E+02 0.  0.
        -13    1    4    4    0    0  0.13898957127E+03  0.27654997192E+03 -0.19211702907E+03  0.36428963854E+03  0.00000000000E+00 0.  1.
         14    1    4    4    0    0 -0.45252597823E+01  0.21328073711E+01  0.41771419852E+01  0.65173122178E+01  0.00000000000E+00 0. -1.
        -11    1    3    3    0    0 -0.49301113873E+02  0.33202323370E+01  0.56696540639E+02  0.75207190429E+02  0.00000000000E+00 0. -1.
         11    1    3    3    0    0  0.30805767330E+02  0.11623433858E+02  0.11751957343E+03  0.12204486738E+03  0.00000000000E+00 0.  1.
          1    1    1    2  501    0 -0.11596896495E+03 -0.29362644548E+03  0.35634853982E+03  0.47607727540E+03  0.00000000000E+00 0. -1.
<scales pt_clust_5="13000.00000" pt_clust_6="13000.00000" pt_clust_7="13000.00000" pt_clust_8="13000.00000" pt_clust_9="310.43113"></scales>
<clustering>
<clus scale="   80.198">  5  6 -1 -1</clus>
<clus scale="   89.396">  7  8 -1 -1</clus>
<clus scale="   92.505">  1  7  2 -1</clus>
<clus scale="  310.431">  2  9  1 -1</clus>
<clus scale="  310.431">  2  5  1 -1</clus>
</clustering>
</event>
<event>
 9    2  0.1488992E-004  0.1166204E+03  0.7546771E-02  0.1251939E+00
         -1   -1    0    0    0  501 -0.00000000000E+00  0.00000000000E+00  0.27019851303E+03  0.27019851303E+03  0.00000000000E+00 0.  1.
         21   -1    0    0  501  502  0.00000000000E+00 -0.00000000000E+00 -0.24418029946E+03  0.24418029946E+03  0.00000000000E+00 0.  1.
         24    2    1    2    0    0 -0.50885040308E+02  0.54473151222E+02  0.97506607424E+01  0.11099294509E+03  0.81656273145E+02 0.  0.
         23    2    1    2    0    0  0.94620481929E+02  0.79375633410E+01 -0.16250014188E+03  0.20905168405E+03  0.90995988819E+02 0.  0.
        -13    1    3    3    0    0 -0.59847288130E+02  0.64852815391E+02 -0.79464994225E+01  0.88604358887E+02  0.00000000000E+00 0.  1.
         14    1    3    3    0    0  0.89622478224E+01 -0.10379664170E+02  0.17697160165E+02  0.22388586204E+02  0.00000000000E+00 0. -1.
        -11    1    4    4    0    0  0.44191925470E+02  0.21227840744E+02 -0.14652494340E+03  0.15450924418E+03  0.00000000000E+00 0.  1.
         11    1    4    4    0    0  0.50428556460E+02 -0.13290277403E+02 -0.15975198475E+02  0.54542439864E+02  0.00000000000E+00 0. -1.
         -2    1    1    2    0  502 -0.43735441622E+02 -0.62410714563E+02  0.17876769471E+03  0.19433418335E+03  0.00000000000E+00 0.  1.
<scales pt_clust_5="13000.00000" pt_clust_6="13000.00000" pt_clust_7="13000.00000" pt_clust_8="13000.00000" pt_clust_9="76.20953"></scales>
<clustering>
<clus scale="   76.210">  2  9  1 -1</clus>
<clus scale="   81.656">  5  6 -1 -1</clus>
<clus scale="   90.996">  7  8 -1 -1</clus>
<clus scale="  109.489">  1  5  2 -1</clus>
<clus scale="   76.210">  2  5  1 -1</clus>
</clustering>
</event>
<event>
 9    2  0.1488992E-004  0.1394928E+03  0.7546771E-02  0.1226659E+00
         21   -1    0    0  501  502  0.00000000000E+00  0.00000000000E+00  0.24877160347E+03  0.24877160347E+03  0.00000000000E+00 0.  1.
          2   -1    0    0  502    0 -0.00000000000E+00 -0.00000000000E+00 -0.23440877567E+03  0.23440877567E+03  0.00000000000E+00 0. -1.
         23    2    1    2    0    0 -0.45469126525E+02  0.30716819955E+02 -0.39059765307E+02  0.11388563831E+03  0.91833048797E+02 0.  0.
         24    2    1    2    0    0 -0.32170610487E+02  0.95518154901E+02  0.14322828303E+03  0.19600810089E+03  0.88012319935E+02 0.  0.
        -11    1    4    4    0    0 -0.44061302221E+02  0.10123985940E+03  0.93888802385E+02  0.14493451865E+03  0.00000000000E+00 0.  1.
         12    1    4    4    0    0  0.11890691734E+02 -0.57217044946E+01  0.49339480648E+02  0.51073582240E+02  0.00000000000E+00 0. -1.
        -13    1    3    3    0    0 -0.63078089414E+02  0.49231079584E+02 -0.37275701641E+02  0.88272433376E+02  0.00000000000E+00 0.  1.
         13    1    3    3    0    0  0.17608962889E+02 -0.18514259629E+02 -0.17840636655E+01  0.25613204930E+02  0.00000000000E+00 0. -1.
          1    1    1    2  501    0  0.77639737012E+02 -0.12623497486E+03 -0.89805689928E+02  0.17328663995E+03  0.00000000000E+00 0. -1.
<scales pt_clust_5="13000.00000" pt_clust_6="13000.00000" pt_clust_7="13000.00000" pt_clust_8="13000.00000" pt_clust_9="108.22237"></scales>
<clustering>
<clus scale="   88.012">  5  6 -1 -1</clus>
<clus scale="   91.833">  7  8 -1 -1</clus>
<clus scale="  106.978">  2  7  1 -1</clus>
<clus scale="  108.222">  1  9  2 -1</clus>
<clus scale="  108.222">  1  5  2 -1</clus>
</clustering>
</event>
<event>
 9    2  0.1488992E-004  0.1199158E+03  0.7546771E-02  0.1245724E+00
         21   -1    0    0  501  502  0.00000000000E+00  0.00000000000E+00  0.39595336002E+03  0.39595336002E+03  0.00000000000E+00 0.  1.
         -1   -1    0    0    0  501 -0.00000000000E+00 -0.00000000000E+00 -0.11595069076E+03  0.11595069076E+03  0.00000000000E+00 0.  1.
         24    2    1    2    0    0 -0.91424604518E+01 -0.82463633364E+02 -0.67398050417E+02  0.13569728523E+03  0.83590792601E+02 0.  0.
         23    2    1    2    0    0  0.10556301532E+02  0.37499318019E+02  0.23825855125E+03  0.25815676965E+03  0.91433834659E+02 0.  0.
        -13    1    3    3    0    0  0.12770870110E+02 -0.27756696344E+02 -0.70342165760E+02  0.76691261557E+02  0.00000000000E+00 0.  1.
         14    1    3    3    0    0 -0.21913330562E+02 -0.54706937020E+02  0.29441153433E+01  0.59006023672E+02  0.00000000000E+00 0. -1.
        -13    1    4    4    0    0  0.11877321919E+02  0.67075913664E+02  0.14285362495E+03  0.15826372652E+03  0.00000000000E+00 0. -1.
         13    1    4    4    0    0 -0.13210203870E+01 -0.29576595645E+02  0.95404926297E+02  0.99893043134E+02  0.00000000000E+00 0.  1.
         -2    1    1    2    0  502 -0.14138410799E+01  0.44964315345E+02  0.10914216843E+03  0.11804999589E+03  0.00000000000E+00 0.  1.
<scales pt_clust_5="13000.00000" pt_clust_6="13000.00000" pt_clust_7="13000.00000" pt_clust_8="13000.00000" pt_clust_9="44.98654"></scales>
<clustering>
<clus scale="   44.987">  1  9  2 -1</clus>
<clus scale="   83.591">  5  6 -1 -1</clus>
<clus scale="   91.434">  7  8 -1 -1</clus>
<clus scale="  114.049">  2  5  1 -1</clus>
<clus scale="   44.987">  1  5  2 -1</clus>
</clustering>
</event>
<event>
 9    2  0.1488992E-004  0.2424798E+03  0.7546771E-02  0.1118805E+00
          4   -1    0    0  502    0 -0.00000000000E+00  0.00000000000E+00  0.55511391865E+03  0.55511391865E+03  0.00000000000E+00 0. -1.
         21   -1    0    0  501  502  0.00000000000E+00 -0.00000000000E+00 -0.14651924676E+03  0.14651924676E+03  0.00000000000E+00 0. -1.
         23    2    1    2    0    0  0.71743121446E+02  0.24619548958E+03  0.28115132750E+03  0.39123919671E+03  0.90899645355E+02 0.  0.
         24    2    1    2    0    0 -0.52151427175E+02 -0.17365048631E+03  0.54001215143E+02  0.20532085923E+03  0.79788854145E+02 0.  0.
        -11    1    4    4    0    0  0.15380916730E+02 -0.76274648780E+02  0.34944322801E+02  0.85296543552E+02  0.00000000000E+00 0.  1.
         12    1    4    4    0    0 -0.67532343905E+02 -0.97375837530E+02  0.19056892342E+02  0.12002431568E+03  0.00000000000E+00 0. -1.
        -13    1    3    3    0    0 -0.11515111955E+02  0.31066039331E+02  0.87121917703E+01  0.34257829594E+02  0.00000000000E+00 0.  1.
         13    1    3    3    0    0  0.83258233401E+02  0.21512945025E+03  0.27243913573E+03  0.35698136712E+03  0.00000000000E+00 0. -1.
          3    1    1    2  501    0 -0.19591694271E+02 -0.72545003271E+02  0.73442129244E+02  0.10507310946E+03  0.00000000000E+00 0. -1.
<scales pt_clust_5="13000.00000" pt_clust_6="13000.00000" pt_clust_7="13000.00000" pt_clust_8="13000.00000" pt_clust_9="75.14398"></scales>
<clustering>
<clus scale="   75.144">  2  9  1 -1</clus>
<clus scale="   79.789">  5  6 -1 -1</clus>
<clus scale="   90.900">  7  8 -1 -1</clus>
<clus scale="  238.537">  2  5  1 -1</clus>
<clus scale="   75.144">  2  5  1 -1</clus>
</clustering>
</event>
<event>
 9    2  0.1488992E-004  0.9429634E+02  0.7546771E-02  0.1293549E+00
         21   -1    0    0  501  502  0.00000000000E+00  0.00000000000E+00  0.78630374717E+02  0.78630374717E+02  0.00000000000E+00 0. -1.
         -3   -1    0    0    0  501 -0.00000000000E+00 -0.00000000000E+00 -0.23613400105E+03  0.23613400105E+03  0.00000000000E+00 0.  1.
         23    2    1    2    0    0 -0.21246461907E+02  0.10347288899E+01 -0.15545191856E+03  0.18224797255E+03  0.92717537204E+02 0.  0.
         24    2    1    2    0    0 -0.14168851129E+01  0.19020416124E+02  0.19556410175E+02  0.95331098318E+02  0.91333352805E+02 0.  0.
        -11    1    4    4    0    0  0.24998036848E+02 -0.12978917003E+02  0.40121227148E+02  0.49021087306E+02  0.00000000000E+00 0.  1.
         12    1    4    4    0    0 -0.26414921960E+02  0.31999333127E+02 -0.20564816973E+02  0.46310011012E+02  0.00000000000E+00 0. -1.
        -11    1    3    3    0    0  0.34499628953E+02  0.32963524998E+01 -0.88823729063E+02  0.95345399377E+02  0.00000000000E+00 0.  1.
         11    1    3    3    0    0 -0.55746090860E+02 -0.22616236099E+01 -0.66628189500E+02  0.86902573170E+02  0.00000000000E+00 0. -1.
         -4    1    1    2    0  502  0.22663347020E+02 -0.20055145014E+02 -0.21608117949E+02  0.37185304906E+02  0.00000000000E+00 0.  1.
<scales pt_clust_5="13000.00000" pt_clust_6="13000.00000" pt_clust_7="13000.00000" pt_clust_8="13000.00000" pt_clust_9="30.26280"></scales>
<clustering>
<clus scale="   30.263">  1  9  2 -1</clus>
<clus scale="   91.333">  5  6 -1 -1</clus>
<clus scale="   92.718">  7  8 -1 -1</clus>
<clus scale="   92.936">  1  5  2 -1</clus>
<clus scale="   30.263">  1  5  2 -1</clus>
</clustering>
</event>
<event>
 9    2  0.1488992E-004  0.1023576E+03  0.7546771E-02  0.1281033E+00
          2   -1    0    0  502    0 -0.00000000000E+00  0.00000000000E+00  0.43296206097E+03  0.43296206097E+03  0.00000000000E+00 0. -1.
         21   -1    0    0  501  502  0.00000000000E+00 -0.00000000000E+00 -0.48373850168E+02  0.48373850168E+02  0.00000000000E+00 0.  1.
         24    2    1    2    0    0 -0.38506784282E+02  0.18578403810E+02  0.32350579464E+03  0.33594684360E+03  0.79852069717E+02 0.  0.
         23    2    1    2    0    0  0.52716195376E+02 -0.33660448514E+02  0.48057560606E+02  0.12091413550E+03  0.91644290505E+02 0.  0.
        -11    1    3    3    0    0 -0.13986719900E+02  0.32415261030E+02  0.51213885127E+02  0.62203211420E+02  0.00000000000E+00 0.  1.
         12    1    3    3    0    0 -0.24520064382E+02 -0.13836857220E+02  0.27229190951E+03  0.27374363218E+03  0.00000000000E+00 0. -1.
        -11    1    4    4    0    0  0.35293019034E+02 -0.55202078274E+02  0.89887010934E-01  0.65520032951E+02  0.00000000000E+00 0.  1.
         11    1    4    4    0    0  0.17423176343E+02  0.21541629760E+02  0.47967673595E+02  0.55394102545E+02  0.00000000000E+00 0. -1.
          1    1    1    2  501    0 -0.14209411094E+02  0.15082044703E+02  0.13024855560E+02  0.24474932042E+02  0.00000000000E+00 0. -1.
<scales pt_clust_5="13000.00000" pt_clust_6="13000.00000" pt_clust_7="13000.00000" pt_clust_8="13000.00000" pt_clust_9="20.72138"></scales>
<clustering>
<clus scale="   20.721">  2  9  1 -1</clus>
<clus scale="   79.852">  5  6 -1 -1</clus>
<clus scale="   91.644">  7  8 -1 -1</clus>
<clus scale="   91.950">  1  5  2 -1</clus>
<clus scale="   20.721">  2  5  1 -1</clus>
</clustering>
</event>
<event>
 9    2  0.1488992E-004  0.1375208E+03  0.7546771E-02  0.1223398E+00
         -3   -1    0    0    0  501 -0.00000000000E+00  0.00000000000E+00  0.12855924299E+03  0.12855924299E+03  0.00000000000E+00 0.  1.
         21   -1    0    0  501  502  0.00000000000E+00 -0.00000000000E+00 -0.16183432812E+03  0.16183432812E+03  0.00000000000E+00 0.  1.
         24    2    1    2    0    0 -0.88860374091E+02  0.18933873663E+02 -0.21791982486E+01  0.12501599362E+03  0.85846328403E+02 0.  0.
         23    2    1    2    0    0  0.72434716596E+02 -0.36073888855E+01 -0.45088630703E+02  0.13891061243E+03  0.10955990235E+03 0.  0.
        -11    1    3    3    0    0 -0.86341823326E+02  0.35337031227E+02 -0.25200312475E+02  0.96636804480E+02  0.00000000000E+00 0.  1.
         12    1    3    3    0    0 -0.25185507652E+01 -0.16403157564E+02  0.23021114227E+02  0.28379189140E+02  0.00000000000E+00 0. -1.
        -13    1    4    4    0    0  0.39459942653E+02  0.31002446590E+02  0.23415521076E+02  0.55376216881E+02  0.00000000000E+00 0. -1.
         13    1    4    4    0    0  0.32974773942E+02 -0.34609835476E+02 -0.68504151778E+02  0.83534395545E+02  0.00000000000E+00 0.  1.
         -4    1    1    2    0  502  0.16425657495E+02 -0.15326484778E+02  0.13992743822E+02  0.26466965060E+02  0.00000000000E+00 0.  1.
<scales pt_clust_5="13000.00000" pt_clust_6="13000.00000" pt_clust_7="13000.00000" pt_clust_8="13000.00000" pt_clust_9="22.46562"></scales>
<clustering>
<clus scale="   22.466">  2  9  1 -1</clus>
<clus scale="   85.846">  5  6 -1 -1</clus>
<clus scale="  109.560">  7  8 -1 -1</clus>
<clus scale="  119.491">  1  5  2 -1</clus>
<clus scale="   22.466">  2  5  1 -1</clus>
</clustering>
</event>
<event>
 9    2  0.1488992E-004  0.9459448E+02  0.7546771E-02  0.1298170E+00
         21   -1    0    0  501  502  0.00000000000E+00  0.00000000000E+00  0.29916940117E+03  0.29916940117E+03  0.00000000000E+00 0. -1.
          2   -1    0    0  502    0 -0.00000000000E+00 -0.00000000000E+00 -0.29487429829E+03  0.29487429829E+03  0.00000000000E+00 0. -1.
         24    2    1    2    0    0 -0.21587529659E+02  0.19119262633E+02 -0.25018831138E+03  0.26464118341E+03  0.81296968981E+02 0.  0.
         23    2    1    2    0    0 -0.30782166988E+02  0.28069482164E+02  0.48771850865E+02  0.11194766998E+03  0.91750475440E+02 0.  0.
        -13    1    3    3    0    0  0.20459727763E+02 -0.20117354105E+02 -0.78845422361E+02  0.83904165710E+02  0.00000000000E+00 0.  1.
         14    1    3    3    0    0 -0.42047257422E+02  0.39236616739E+02 -0.17134288902E+03  0.18073701770E+03  0.00000000000E+00 0. -1.
        -11    1    4    4    0    0 -0.55081511994E+01 -0.31380549227E+02  0.14928116030E+01  0.31895251777E+02  0.00000000000E+00 0.  1.
         11    1    4    4    0    0 -0.25274015789E+02  0.59450031391E+02  0.47279039262E+02  0.80052418202E+02  0.00000000000E+00 0. -1.
          1    1    1    2  501    0  0.52369696647E+02 -0.47188744797E+02  0.20571156340E+03  0.21745484607E+03  0.00000000000E+00 0. -1.
<scales pt_clust_5="13000.00000" pt_clust_6="13000.00000" pt_clust_7="13000.00000" pt_clust_8="13000.00000" pt_clust_9="70.49371"></scales>
<clustering>
<clus scale="   70.494">  1  9  2 -1</clus>
<clus scale="   81.297">  5  6 -1 -1</clus>
<clus scale="   84.494">  2  5  1 -1</clus>
<clus scale="   91.750">  7  8 -1 -1</clus>
<clus scale="   70.494">  1  5  2 -1</clus>
</clustering>
</event>
<event>
 9    2  0.1488992E-004  0.3437664E+03  0.7546771E-02  0.1065203E+00
         -1   -1    0    0    0  501 -0.00000000000E+00  0.00000000000E+00  0.41986388200E+03  0.41986388200E+03  0.00000000000E+00 0.  1.
         21   -1    0    0  501  502  0.00000000000E+00 -0.00000000000E+00 -0.41228149864E+03  0.41228149864E+03  0.00000000000E+00 0. -1.
         24    2    1    2    0    0 -0.14216509583E+03 -0.15275032331E+03 -0.19899077569E+03  0.29935442148E+03  0.80449767587E+02 0.  0.
         23    2    1    2    0    0 -0.45350634927E+02 -0.64930316175E+02 -0.67587774427E+02  0.13566222999E+03  0.86968427296E+02 0.  0.
        -13    1    3    3    0    0 -0.84807215918E+02 -0.10362195878E+03 -0.73120551232E+02  0.15256601596E+03  0.00000000000E+00 0.  1.
         14    1    3    3    0    0 -0.57357879916E+02 -0.49128364524E+02 -0.12587022445E+03  0.14678840551E+03  0.00000000000E+00 0. -1.
        -11    1    4    4    0    0  0.75854157626E+01 -0.53888374240E+02 -0.60089588691E+02  0.81069439863E+02  0.00000000000E+00 0.  1.
         11    1    4    4    0    0 -0.52936050689E+02 -0.11041941935E+02 -0.74981857355E+01  0.54592790125E+02  0.00000000000E+00 0. -1.
         -2    1    1    2    0  502  0.18751573076E+03  0.21768063948E+03  0.27416093348E+03  0.39712872917E+03  0.00000000000E+00 0.  1.
<scales pt_clust_5="13000.00000" pt_clust_6="13000.00000" pt_clust_7="13000.00000" pt_clust_8="13000.00000" pt_clust_9="287.31010"></scales>
<clustering>
<clus scale="   80.450">  5  6 -1 -1</clus>
<clus scale="   86.968">  7  8 -1 -1</clus>
<clus scale="   87.855">  5  7 -1 -1</clus>
<clus scale="  287.310">  2  9  1 -1</clus>
<clus scale="  287.310">  2  5  1 -1</clus>
</clustering>
</event>
<event>
 9    2  0.1488992E-004  0.1768053E+03  0.7546771E-02  0.1196741E+00
         21   -1    0    0  501  502  0.00000000000E+00  0.00000000000E+00  0.10797595181E+03  0.10797595181E+03  0.00000000000E+00 0. -1.
          2   -1    0    0  502    0 -0.00000000000E+00 -0.00000000000E+00 -0.50426537525E+03  0.50426537525E+03  0.00000000000E+00 0. -1.
         23    2    1    2    0    0 -0.40922753755E+02 -0.22692273943E+02 -0.34694217601E+02  0.10523331727E+03  0.87639895347E+02 0.  0.
         24    2    1    2    0    0 -0.57273265311E+02  0.14841702280E+03 -0.26919255056E+03  0.32265123248E+03  0.79569774223E+02 0.  0.
        -13    1    4    4    0    0 -0.13304337846E+02  0.99282472495E+02 -0.10216003022E+03  0.14307580691E+03  0.00000000000E+00 0.  1.
         14    1    4    4    0    0 -0.43968927466E+02  0.49134550306E+02 -0.16703252034E+03  0.17957542557E+03  0.00000000000E+00 0. -1.
        -13    1    3    3    0    0 -0.35685976812E+02  0.15611278718E+02  0.15461135018E+02  0.41907608621E+02  0.00000000000E+00 0. -1.
         13    1    3    3    0    0 -0.52367769427E+01 -0.38303552661E+02 -0.50155352619E+02  0.63325708646E+02  0.00000000000E+00 0.  1.
          1    1    1    2  501    0  0.98196019066E+02 -0.12572474886E+03 -0.92402655283E+02  0.18435677731E+03  0.00000000000E+00 0. -1.
<scales pt_clust_5="13000.00000" pt_clust_6="13000.00000" pt_clust_7="13000.00000" pt_clust_8="13000.00000" pt_clust_9="157.88846"></scales>
<clustering>
<clus scale="   79.570">  5  6 -1 -1</clus>
<clus scale="   87.640">  7  8 -1 -1</clus>
<clus scale="   99.350">  2  7  1 -1</clus>
<clus scale="  157.888">  1  9  2 -1</clus>
<clus scale="  157.888">  1  5  2 -1</clus>
</clustering>
</event>
<event>
 9    2  0.1488992E-004  0.1370108E+03  0.7546771E-02  0.1220541E+00
          2   -1    0    0  502    0 -0.00000000000E+00  0.00000000000E+00  0.72829987633E+02  0.72829987633E+02  0.00000000000E+00 0. -1.
         21   -1    0    0  501  502  0.00000000000E+00 -0.00000000000E+00 -0.32645827074E+03  0.32645827074E+03  0.00000000000E+00 0.  1.
         24    2    1    2    0    0 -0.83988125539E+01 -0.95415681473E+02 -0.52103266233E+02  0.13541418752E+03  0.80296696738E+02 0.  0.
         23    2    1    2    0    0 -0.94359451150E+01  0.10879590934E+03 -0.15046764267E+03  0.20816083598E+03  0.93620698546E+02 0.  0.
        -13    1    3    3    0    0 -0.27535748377E+02 -0.18570161013E+02 -0.44964463462E+02  0.55900548237E+02  0.00000000000E+00 0.  1.
         14    1    3    3    0    0  0.19136935823E+02 -0.76845520459E+02 -0.71388027711E+01  0.79513639285E+02  0.00000000000E+00 0. -1.
        -11    1    4    4    0    0  0.31361763032E+02  0.66728600923E+02 -0.12308210595E+03  0.14347637843E+03  0.00000000000E+00 0.  1.
         11    1    4    4    0    0 -0.40797708147E+02  0.42067308419E+02 -0.27385536720E+02  0.64684457554E+02  0.00000000000E+00 0. -1.
          1    1    1    2  501    0  0.17834757669E+02 -0.13380227869E+02 -0.51057374208E+02  0.55713234872E+02  0.00000000000E+00 0. -1.
<scales pt_clust_5="13000.00000" pt_clust_6="13000.00000" pt_clust_7="13000.00000" pt_clust_8="13000.00000" pt_clust_9="22.29594"></scales>
<clustering>
<clus scale="   22.296">  2  9  1 -1</clus>
<clus scale="   80.297">  5  6 -1 -1</clus>
<clus scale="   93.621">  7  8 -1 -1</clus>
<clus scale="  128.276">  1  5  2 -1</clus>
<clus scale="   22.296">  2  5  1 -1</clus>
</clustering>
</event>
<event>
 9    2  0.1488992E-004  0.2713595E+03  0.7546771E-02  0.1101214E+00
         21   -1    0    0  501  502  0.00000000000E+00  0.00000000000E+00  0.46790077800E+03  0.46790077800E+03  0.00000000000E+00 0.  1.
          4   -1    0    0  502    0 -0.00000000000E+00 -0.00000000000E+00 -0.19950862248E+03  0.19950862248E+03  0.00000000000E+00 0. -1.
         23    2    1    2    0    0 -0.15625310386E+03 -0.20815150199E+03 -0.97489258733E+00  0.27668358354E+03  0.93865727190E+02 0.  0.
         24    2    1    2    0    0  0.13104847069E+03  0.20378312046E+03  0.25869201794E+03  0.36300736532E+03  0.78431659948E+02 0.  0.
        -13    1    4    4    0    0  0.36784607453E+02  0.82079081316E+02  0.14878390057E+03  0.17385836766E+03  0.00000000000E+00 0.  1.
         14    1    4    4    0    0  0.94263863237E+02  0.12170403914E+03  0.10990811736E+03  0.18914899766E+03  0.00000000000E+00 0. -1.
        -13    1    3    3    0    0 -0.97710545390E+02 -0.19232268289E+03 -0.62393882428E+01  0.21581078518E+03  0.00000000000E+00 0. -1.
         13    1    3    3    0    0 -0.58542558472E+02 -0.15828819102E+02  0.52644956555E+01  0.60872798368E+02  0.00000000000E+00 0.  1.
          3    1    1    2  501    0  0.25204633172E+02  0.43683815327E+01  0.10675030170E+02  0.27718451610E+02  0.00000000000E+00 0. -1.
<scales pt_clust_5="13000.00000" pt_clust_6="13000.00000" pt_clust_7="13000.00000" pt_clust_8="13000.00000" pt_clust_9="25.58040"></scales>
<clustering>
<clus scale="   25.580">  1  9  2 -1</clus>
<clus scale="   78.432">  5  6 -1 -1</clus>
<clus scale="   93.866">  7  8 -1 -1</clus>
<clus scale="  266.415">  1  5  2 -1</clus>
<clus scale="   25.580">  1  5  2 -1</clus>
</clustering>
</event>
<event>
 9    2  0.1488992E-004  0.1529269E+03  0.7546771E-02  0.1198646E+00
          2   -1    0    0  502    0 -0.00000000000E+00  0.00000000000E+00  0.20151021831E+03  0.20151021831E+03  0.00000000000E+00 0. -1.
         21   -1    0    0  501  502  0.00000000000E+00 -0.00000000000E+00 -0.23907018995E+03  0.23907018995E+03  0.00000000000E+00 0. -1.
         24    2    1    2    0    0  0.12635443629E+03 -0.77689628704E+02  0.13947389153E+02  0.16920202158E+03  0.80210176822E+02 0.  0.
         23    2    1    2    0    0 -0.61674562617E+02  0.46131116444E+02 -0.12236052469E+03  0.17038533450E+03  0.90151165442E+02 0.  0.
        -13    1    3    3    0    0  0.10936180472E+02 -0.42869835586E+02  0.19871213947E+02  0.48500391651E+02  0.00000000000E+00 0.  1.
         14    1    3    3    0    0  0.11541825582E+03 -0.34819793118E+02 -0.59238247934E+01  0.12070162993E+03  0.00000000000E+00 0. -1.
        -13    1    4    4    0    0 -0.26979391979E+02  0.47845048697E+02 -0.14128737953E+02  0.56715584389E+02  0.00000000000E+00 0.  1.
         13    1    4    4    0    0 -0.34695170638E+02 -0.17139322530E+01 -0.10823178674E+03  0.11366975011E+03  0.00000000000E+00 0. -1.
          1    1    1    2  501    0 -0.64679873670E+02  0.31558512260E+02  0.70853163900E+02  0.10099305218E+03  0.00000000000E+00 0. -1.
<scales pt_clust_5="13000.00000" pt_clust_6="13000.00000" pt_clust_7="13000.00000" pt_clust_8="13000.00000" pt_clust_9="71.96826"></scales>
<clustering>
<clus scale="   71.968">  2  9  1 -1</clus>
<clus scale="   80.210">  5  6 -1 -1</clus>
<clus scale="   90.151">  7  8 -1 -1</clus>
<clus scale="  147.286">  1  5  2 -1</clus>
<clus scale="   71.968">  2  5  1 -1</clus>
</clustering>
</event>
<event>
 9    2  0.1488992E-004  0.1590615E+03  0.7546771E-02  0.1215127E+00
          4   -1    0    0  502    0 -0.00000000000E+00  0.00000000000E+00  0.95632363695E+02  0.95632363695E+02  0.00000000000E+00 0. -1.
         21   -1    0    0  501  502  0.00000000000E+00 -0.00000000000E+00 -0.52617799179E+03  0.52617799179E+03  0.00000000000E+00 0. -1.
         23    2    1    2    0    0  0.99592956679E+01  0.20183877511E+01  0.72580180752E+01  0.92175258809E+02  0.91325451276E+02 0.  0.
         24    2    1    2    0    0  0.33082596649E+02  0.12990790060E+03 -0.19727585385E+03  0.25194683814E+03  0.81172199037E+02 0.  0.
        -11    1    4    4    0    0 -0.23590164627E+02  0.53838112386E+02 -0.10053950745E+03  0.11646128442E+03  0.00000000000E+00 0.  1.
         12    1    4    4    0    0  0.56672761276E+02  0.76069788211E+02 -0.96736346402E+02  0.13548555371E+03  0.00000000000E+00 0. -1.
        -13    1    3    3    0    0  0.28449679933E+02  0.24148366325E+02  0.35720125014E+02  0.51657092595E+02  0.00000000000E+00 0. -1.
         13    1    3    3    0    0 -0.18490384265E+02 -0.22129978573E+02 -0.28462106938E+02  0.40518166213E+02  0.00000000000E+00 0.  1.
          3    1    1    2  501    0 -0.43041892317E+02 -0.13192628835E+03 -0.24052779232E+03  0.27768825854E+03  0.00000000000E+00 0. -1.
<scales pt_clust_5="13000.00000" pt_clust_6="13000.00000" pt_clust_7="13000.00000" pt_clust_8="13000.00000" pt_clust_9="136.79045"></scales>
<clustering>
<clus scale="   81.172">  5  6 -1 -1</clus>
<clus scale="   91.325">  7  8 -1 -1</clus>
<clus scale="   91.889">  1  7  2 -1</clus>
<clus scale="  136.790">  2  9  1 -1</clus>
<clus scale="  136.790">  2  5  1 -1</clus>
</clustering>
</event>
<event>
 9    2  0.1488992E-004  0.1366234E+03  0.7546771E-02  0.1218404E+00
         21   -1    0    0  501  502  0.00000000000E+00  0.00000000000E+00  0.43744573538E+02  0.43744573538E+02  0.00000000000E+00 0. -1.
          2   -1    0    0  502    0 -0.00000000000E+00 -0.00000000000E+00 -0.90745174044E+03  0.90745174044E+03  0.00000000000E+00 0. -1.
         23    2    1    2    0    0  0.87426219283E+02 -0.84716405205E+02 -0.44524213548E+03  0.47039453404E+03  0.90610404051E+02 0.  0.
         24    2    1    2    0    0 -0.87493836236E+02 -0.70699887628E+01 -0.13954261254E+03  0.18716516362E+03  0.88619984404E+02 0.  0.
        -13    1    4    4    0    0 -0.20380236206E+02  0.24967108286E+02 -0.38877156659E+01  0.32462668669E+02  0.00000000000E+00 0.  1.
         14    1    4    4    0    0 -0.67113600030E+02 -0.32037097049E+02 -0.13565489688E+03  0.15470249495E+03  0.00000000000E+00 0. -1.
        -11    1    3    3    0    0  0.43758872165E+02 -0.43226073206E+02 -0.83707000835E+02  0.10387585998E+03  0.00000000000E+00 0.  1.
         11    1    3    3    0    0  0.43667347118E+02 -0.41490331999E+02 -0.36153513465E+03  0.36651867406E+03  0.00000000000E+00 0. -1.
          1    1    1    2  501    0  0.67616953254E-01  0.91786393967E+02 -0.27892241888E+03  0.29363661632E+03  0.00000000000E+00 0. -1.
<scales pt_clust_5="13000.00000" pt_clust_6="13000.00000" pt_clust_7="13000.00000" pt_clust_8="13000.00000" pt_clust_9="91.78646"></scales>
<clustering>
<clus scale="   88.620">  5  6 -1 -1</clus>
<clus scale="   90.610">  7  8 -1 -1</clus>
<clus scale="   91.786">  1  9  2 -1</clus>
<clus scale="  135.312">  1  5  2 -1</clus>
<clus scale="   91.786">  1  5  2 -1</clus>
</clustering>
</event>
<event>
 9    2  0.1488992E-004  0.1643398E+03  0.7546771E-02  0.1203306E+00
         21   -1    0    0  501  502  0.00000000000E+00  0.00000000000E+00  0.73349222739E+02  0.73349222739E+02  0.00000000000E+00 0. -1.
          2   -1    0    0  502    0 -0.00000000000E+00 -0.00000000000E+00 -0.84261581985E+03  0.84261581985E+03  0.00000000000E+00 0. -1.
         24    2    1    2    0    0 -0.52112170036E+02 -0.51054969738E+02 -0.48275944195E+03  0.49453498183E+03  0.78650373555E+02 0.  0.
         23    2    1    2    0    0 -0.10030587234E+03  0.60101846727E+02 -0.18415572201E+03  0.23761242969E+03  0.94195736562E+02 0.  0.
        -13    1    3    3    0    0  0.17871719296E+02 -0.28692416732E+02 -0.15039144019E+03  0.15414356428E+03  0.00000000000E+00 0.  1.
         14    1    3    3    0    0 -0.69983889332E+02 -0.22362553006E+02 -0.33236800177E+03  0.34039141755E+03  0.00000000000E+00 0. -1.
        -13    1    4    4    0    0 -0.88165213955E+02  0.44715936905E+01 -0.81116870488E+02  0.11988764231E+03  0.00000000000E+00 0. -1.
         13    1    4    4    0    0 -0.12140658387E+02  0.55630253037E+02 -0.10303885152E+03  0.11772478737E+03  0.00000000000E+00 0.  1.
          1    1    1    2  501    0  0.15241804238E+03 -0.90468769896E+01 -0.10235143315E+03  0.18381763108E+03  0.00000000000E+00 0. -1.
<scales pt_clust_5="13000.00000" pt_clust_6="13000.00000" pt_clust_7="13000.00000" pt_clust_8="13000.00000" pt_clust_9="134.66528"></scales>
<clustering>
<clus scale="   78.650">  5  6 -1 -1</clus>
<clus scale="   94.196">  7  8 -1 -1</clus>
<clus scale="  107.276">  2  5  1 -1</clus>
<clus scale="  134.665">  1  9  2 -1</clus>
<clus scale="  134.665">  1  5  2 -1</clus>
</clustering>
</event>
<event>
 9    2  0.1488992E-004  0.1344479E+03  0.7546771E-02  0.1224042E+00
         21   -1    0    0  501  502  0.00000000000E+00  0.00000000000E+00  0.54437168949E+03  0.54437168949E+03  0.00000000000E+00 0. -1.
         -3   -1    0    0    0  501 -0.00000000000E+00 -0.00000000000E+00 -0.54139452369E+02  0.54139452369E+02  0.00000000000E+00 0.  1.
         23    2    1    2    0    0  0.90893238052E+02 -0.59660654742E+02  0.14193079115E+03  0.20168780204E+03  0.93341553269E+02 0.  0.
         24    2    1    2    0    0 -0.92202671728E+02 -0.10809437112E+01  0.17960555023E+03  0.21752035145E+03  0.80959548588E+02 0.  0.
        -13    1    4    4    0    0 -0.19316667618E+02 -0.13607599094E+02  0.37481435239E+00  0.23631353892E+02  0.00000000000E+00 0.  1.
         14    1    4    4    0    0 -0.72886004109E+02  0.12526655382E+02  0.17923073588E+03  0.19388899755E+03  0.00000000000E+00 0. -1.
        -11    1    3    3    0    0 -0.18987183704E+02 -0.74557437683E+01  0.30645428112E+02  0.36813632316E+02  0.00000000000E+00 0. -1.
         11    1    3    3    0    0  0.10988042176E+03 -0.52204910974E+02  0.11128536304E+03  0.16487416972E+03  0.00000000000E+00 0.  1.
         -4    1    1    2    0  502  0.13094336753E+01  0.60741598453E+02  0.16869589575E+03  0.17930298838E+03  0.00000000000E+00 0.  1.
<scales pt_clust_5="13000.00000" pt_clust_6="13000.00000" pt_clust_7="13000.00000" pt_clust_8="13000.00000" pt_clust_9="60.75571"></scales>
<clustering>
<clus scale="   60.756">  1  9  2 -1</clus>
<clus scale="   80.960">  5  6 -1 -1</clus>
<clus scale="   93.342">  7  8 -1 -1</clus>
<clus scale="  126.167">  1  5  2 -1</clus>
<clus scale="   60.756">  1  5  2 -1</clus>
</clustering>
</event>
<event>
 9    2  0.1488992E-004  0.2364044E+03  0.7546771E-02  0.1140297E+00
          2   -1    0    0  502    0 -0.00000000000E+00  0.00000000000E+00  0.65570899293E+03  0.65570899293E+03  0.00000000000E+00 0. -1.
         21   -1    0    0  501  502  0.00000000000E+00 -0.00000000000E+00 -0.15105972210E+03  0.15105972210E+03  0.00000000000E+00 0. -1.
         23    2    1    2    0    0 -0.19939679783E+02  0.11993056579E+03  0.10471160259E+03  0.18438730028E+03  0.90847263838E+02 0.  0.
         24    2    1    2    0    0  0.23223244966E+03 -0.90287595868E+02  0.23255383584E+03  0.35041767974E+03  0.81409477734E+02 0.  0.
        -13    1    4    4    0    0  0.12076824217E+02 -0.30387427962E+02  0.18515220089E+02  0.37577371332E+02  0.00000000000E+00 0.  1.
         14    1    4    4    0    0  0.22015562545E+03 -0.59900167906E+02  0.21403861575E+03  0.31284030841E+03  0.00000000000E+00 0. -1.
        -11    1    3    3    0    0 -0.49183593497E+02  0.48695691494E+02  0.25086036372E+02  0.73617969683E+02  0.00000000000E+00 0.  1.
         11    1    3    3    0    0  0.29243913714E+02  0.71234874299E+02  0.79625566218E+02  0.11076933060E+03  0.00000000000E+00 0. -1.
          1    1    1    2  501    0 -0.21229276988E+03 -0.29642969926E+02  0.16738383240E+03  0.27196373501E+03  0.00000000000E+00 0. -1.
<scales pt_clust_5="13000.00000" pt_clust_6="13000.00000" pt_clust_7="13000.00000" pt_clust_8="13000.00000" pt_clust_9="221.94487"></scales>
<clustering>
<clus scale="   81.409">  5  6 -1 -1</clus>
<clus scale="   90.847">  7  8 -1 -1</clus>
<clus scale="  151.770">  1  7  2 -1</clus>
<clus scale="  221.945">  2  9  1 -1</clus>
<clus scale="  221.945">  2  5  1 -1</clus>
</clustering>
</event>
<event>
 9    2  0.1488992E-004  0.1582428E+03  0.7546771E-02  0.1209606E+00
          2   -1    0    0  502    0 -0.00000000000E+00  0.00000000000E+00  0.17573577039E+04  0.17573577039E+04  0.00000000000E+00 0. -1.
         21   -1    0    0  501  502  0.00000000000E+00 -0.00000000000E+00 -0.57434111157E+02  0.57434111157E+02  0.00000000000E+00 0. -1.
         23    2    1    2    0    0  0.24887041146E+02  0.44733808207E+02  0.94353445058E+02  0.14112719226E+03  0.91617866096E+02 0.  0.
         24    2    1    2    0    0 -0.11086745024E+03 -0.14412294097E+03  0.14752305693E+04  0.14885721158E+04  0.80490357288E+02 0.  0.
        -13    1    4    4    0    0 -0.65780567948E+02 -0.30412309802E+02  0.41166058169E+03  0.41799094036E+03  0.00000000000E+00 0.  1.
         14    1    4    4    0    0 -0.45086882290E+02 -0.11371063116E+03  0.10635699876E+04  0.10705811754E+04  0.00000000000E+00 0. -1.
        -13    1    3    3    0    0 -0.34313225980E+02  0.21380807877E+02  0.45722615651E+02  0.61033548189E+02  0.00000000000E+00 0. -1.
         13    1    3    3    0    0  0.59200267126E+02  0.23353000330E+02  0.48630829407E+02  0.80093644074E+02  0.00000000000E+00 0.  1.
          1    1    1    2  501    0  0.85980409091E+02  0.99389132760E+02  0.13033957835E+03  0.18509250698E+03  0.00000000000E+00 0. -1.
<scales pt_clust_5="13000.00000" pt_clust_6="13000.00000" pt_clust_7="13000.00000" pt_clust_8="13000.00000" pt_clust_9="136.24270"></scales>
<clustering>
<clus scale="   80.490">  5  6 -1 -1</clus>
<clus scale="   91.618">  7  8 -1 -1</clus>
<clus scale="  104.949">  1  7  2 -1</clus>
<clus scale="  136.243">  2  9  1 -1</clus>
<clus scale="  136.243">  2  5  1 -1</clus>
</clustering>
</event>
<event>
 9    2  0.1488992E-004  0.2123013E+03  0.7546771E-02  0.1175376E+00
         -1   -1    0    0    0  501 -0.00000000000E+00  0.00000000000E+00  0.26358387840E+03  0.26358387840E+03  0.00000000000E+00 0.  1.
         21   -1    0    0  501  502  0.00000000000E+00 -0.00000000000E+00 -0.28961316830E+03  0.28961316830E+03  0.00000000000E+00 0.  1.
         24    2    1    2    0    0 -0.42633199685E+02  0.94827749369E+01  0.60702866220E+02  0.11047430408E+03  0.81315565291E+02 0.  0.
         23    2    1    2    0    0 -0.97655051282E+02  0.13486555705E+03  0.52396232087E+02  0.19803121700E+03  0.93518822971E+02 0.  0.
        -11    1    3    3    0    0 -0.19230066808E+02  0.34594722281E+02  0.64771480251E+02  0.75907410264E+02  0.00000000000E+00 0.  1.
         12    1    3    3    0    0 -0.23403132878E+02 -0.25111947344E+02 -0.40686140305E+01  0.34566893816E+02  0.00000000000E+00 0. -1.
        -11    1    4    4    0    0 -0.99984616238E+02  0.68675193283E+02  0.15690306089E+02  0.12230859071E+03  0.00000000000E+00 0.  1.
         11    1    4    4    0    0  0.23295649553E+01  0.66190363770E+02  0.36705925998E+02  0.75722626290E+02  0.00000000000E+00 0. -1.
         -2    1    1    2    0  502  0.14028825097E+03 -0.14434833199E+03 -0.13912838821E+03  0.24469152562E+03  0.00000000000E+00 0.  1.
<scales pt_clust_5="13000.00000" pt_clust_6="13000.00000" pt_clust_7="13000.00000" pt_clust_8="13000.00000" pt_clust_9="190.59398"></scales>
<clustering>
<clus scale="   81.316">  5  6 -1 -1</clus>
<clus scale="   92.302">  1  5  2 -1</clus>
<clus scale="   93.519">  7  8 -1 -1</clus>
<clus scale="  190.594">  2  9  1 -1</clus>
<clus scale="  190.594">  2  5  1 -1</clus>
</clustering>
</event>
<event>
 9    2  0.1488992E-004  0.9989845E+02  0.7546771E-02  0.1285158E+00
         21   -1    0    0  501  502  0.00000000000E+00  0.00000000000E+00  0.11006546674E+04  0.11006546674E+04  0.00000000000E+00 0. -1.
          2   -1    0    0  502    0 -0.00000000000E+00 -0.00000000000E+00 -0.30546962796E+02  0.30546962796E+02  0.00000000000E+00 0. -1.
         23    2    1    2    0    0 -0.34797649604E+02  0.27723854422E+01  0.13360423937E+03  0.16599268559E+03  0.92113605686E+02 0.  0.
         24    2    1    2    0    0  0.32752841343E+02 -0.90146665306E+02  0.73070374886E+03  0.74162010481E+03  0.82905014193E+02 0.  0.
        -13    1    4    4    0    0 -0.48033353282E+01 -0.38222471127E+02  0.92417561285E+02  0.10012509657E+03  0.00000000000E+00 0.  1.
         14    1    4    4    0    0  0.37556176671E+02 -0.51924194179E+02  0.63828618757E+03  0.64149500824E+03  0.00000000000E+00 0. -1.
        -11    1    3    3    0    0 -0.10743177373E+02 -0.31959089588E+02  0.97004435895E+01  0.35084154161E+02  0.00000000000E+00 0. -1.
         11    1    3    3    0    0 -0.24054472231E+02  0.34731475030E+02  0.12390379578E+03  0.13090853143E+03  0.00000000000E+00 0.  1.
          1    1    1    2  501    0  0.20448082610E+01  0.87374279864E+02  0.20579971639E+03  0.22358883981E+03  0.00000000000E+00 0. -1.
<scales pt_clust_5="13000.00000" pt_clust_6="13000.00000" pt_clust_7="13000.00000" pt_clust_8="13000.00000" pt_clust_9="87.39825"></scales>
<clustering>
<clus scale="   82.905">  5  6 -1 -1</clus>
<clus scale="   87.398">  1  9  2 -1</clus>
<clus scale="   91.477">  1  5  2 -1</clus>
<clus scale="   92.114">  7  8 -1 -1</clus>
<clus scale="   87.398">  1  5  2 -1</clus>
</clustering>
</event>
<event>
 9    2  0.1488992E-004  0.9016633E+02  0.7546771E-02  0.1308650E+00
         21   -1    0    0  501  502  0.00000000000E+00  0.00000000000E+00  0.11275716428E+03  0.11275716428E+03  0.00000000000E+00 0.  1.
          2   -1    0    0  502    0 -0.00000000000E+00 -0.00000000000E+00 -0.20342172931E+03  0.20342172931E+03  0.00000000000E+00 0. -1.
         24    2    1    2    0    0 -0.29684593369E+02  0.18661427104E+02 -0.97368200638E+02  0.13142905485E+03  0.81016084933E+02 0.  0.
         23    2    1    2    0    0  0.33811612135E+02 -0.60453635553E+02  0.61154645605E+02  0.11598550598E+03  0.70106203372E+02 0.  0.
        -13    1    3    3    0    0 -0.51629227835E+02  0.23129222865E+01 -0.32565778157E+02  0.61085650388E+02  0.00000000000E+00 0.  1.
         14    1    3    3    0    0  0.21944634467E+02  0.16348504817E+02 -0.64802422480E+02  0.70343404460E+02  0.00000000000E+00 0. -1.
        -11    1    4    4    0    0  0.55517635054E+02 -0.47285251342E+02  0.41748723094E+02  0.84030105774E+02  0.00000000000E+00 0.  1.
         11    1    4    4    0    0 -0.21706022919E+02 -0.13168384211E+02  0.19405922511E+02  0.31955400204E+02  0.00000000000E+00 0. -1.
          1    1    1    2  501    0 -0.41270187662E+01  0.41792208449E+02 -0.54451010002E+02  0.68764332769E+02  0.00000000000E+00 0. -1.
<scales pt_clust_5="13000.00000" pt_clust_6="13000.00000" pt_clust_7="13000.00000" pt_clust_8="13000.00000" pt_clust_9="41.99551"></scales>
<clustering>
<clus scale="   41.996">  1  9  2 -1</clus>
<clus scale="   70.106">  7  8 -1 -1</clus>
<clus scale="   80.506">  1  7  2 -1</clus>
<clus scale="   81.016">  5  6 -1 -1</clus>
<clus scale="   41.996">  1  5  2 -1</clus>
</clustering>
</event>
<event>
 9    2  0.1488992E-004  0.9487725E+02  0.7546771E-02  0.1299160E+00
          4   -1    0    0  502    0 -0.00000000000E+00  0.00000000000E+00  0.28157130658E+03  0.28157130658E+03  0.00000000000E+00 0. -1.
         21   -1    0    0  501  502  0.00000000000E+00 -0.00000000000E+00 -0.78699038467E+02  0.78699038467E+02  0.00000000000E+00 0.  1.
         24    2    1    2    0    0  0.10240382901E+02 -0.20572494175E+02  0.21682266012E+03  0.23214471512E+03  0.79693223409E+02 0.  0.
         23    2    1    2    0    0  0.18547888785E+02  0.77791122260E+01 -0.17404870034E+02  0.96433854550E+02  0.92693149893E+02 0.  0.
        -11    1    3    3    0    0  0.30017367482E+02  0.41094915806E+01  0.29906132868E+02  0.42571199827E+02  0.00000000000E+00 0.  1.
         12    1    3    3    0    0 -0.19776984581E+02 -0.24681985756E+02  0.18691652725E+03  0.18957351529E+03  0.00000000000E+00 0. -1.
        -13    1    4    4    0    0  0.46012155159E+02  0.33280990951E+02 -0.52282910519E+01  0.57026991928E+02  0.00000000000E+00 0. -1.
         13    1    4    4    0    0 -0.27464266374E+02 -0.25501878725E+02 -0.12176578982E+02  0.39406862622E+02  0.00000000000E+00 0.  1.
          3    1    1    2  501    0 -0.28788271685E+02  0.12793381949E+02  0.34544780304E+01  0.31691775381E+02  0.00000000000E+00 0. -1.
<scales pt_clust_5="13000.00000" pt_clust_6="13000.00000" pt_clust_7="13000.00000" pt_clust_8="13000.00000" pt_clust_9="31.50294"></scales>
<clustering>
<clus scale="   31.503">  2  9  1 -1</clus>
<clus scale="   79.693">  5  6 -1 -1</clus>
<clus scale="   82.223">  1  5  2 -1</clus>
<clus scale="   92.693">  7  8 -1 -1</clus>
<clus scale="   31.503">  2  5  1 -1</clus>
</clustering>
</event>
<event>
 9    2  0.1488992E-004  0.1208782E+03  0.7546771E-02  0.1244953E+00
          2   -1    0    0  502    0 -0.00000000000E+00  0.00000000000E+00  0.67440241954E+03  0.67440241954E+03  0.00000000000E+00 0. -1.
         21   -1    0    0  501  502  0.00000000000E+00 -0.00000000000E+00 -0.15374273427E+03  0.15374273427E+03  0.00000000000E+00 0. -1.
         24    2    1    2    0    0 -0.64630541917E+01 -0.94005227549E+02  0.58126164776E+03  0.59427764588E+03  0.80137777338E+02 0.  0.
         23    2    1    2    0    0 -0.15310760863E+02  0.13707064808E+02  0.41697688425E+02  0.10200730719E+03  0.90799176632E+02 0.  0.
        -11    1    3    3    0    0  0.29536520659E+02 -0.93100435853E+01  0.17541092816E+03  0.17812376787E+03  0.00000000000E+00 0.  1.
         12    1    3    3    0    0 -0.35999574851E+02 -0.84695183963E+02  0.40585071960E+03  0.41615387800E+03  0.00000000000E+00 0. -1.
        -13    1    4    4    0    0 -0.29754517683E+02 -0.29568370338E+02  0.37371399180E+02  0.56180435417E+02  0.00000000000E+00 0. -1.
         13    1    4    4    0    0  0.14443756820E+02  0.43275435146E+02  0.43262892449E+01  0.45826871776E+02  0.00000000000E+00 0.  1.
          1    1    1    2  501    0  0.21773815055E+02  0.80298162741E+02 -0.10229965091E+03  0.13186020074E+03  0.00000000000E+00 0. -1.
<scales pt_clust_5="13000.00000" pt_clust_6="13000.00000" pt_clust_7="13000.00000" pt_clust_8="13000.00000" pt_clust_9="83.19792"></scales>
<clustering>
<clus scale="   80.138">  5  6 -1 -1</clus>
<clus scale="   83.198">  2  9  1 -1</clus>
<clus scale="   90.799">  7  8 -1 -1</clus>
<clus scale="  113.089">  1  5  2 -1</clus>
<clus scale="   83.198">  2  5  1 -1</clus>
</clustering>
</event>
<event>
 9    2  0.1488992E-004  0.1686727E+03  0.7546771E-02  0.1180540E+00
          2   -1    0    0  502    0 -0.00000000000E+00  0.00000000000E+00  0.37190969931E+03  0.37190969931E+03  0.00000000000E+00 0. -1.
         21   -1    0    0  501  502  0.00000000000E+00 -0.00000000000E+00 -0.19313442715E+03  0.19313442715E+03  0.00000000000E+00 0. -1.
         23    2    1    2    0    0  0.33435699212E+02  0.14026439250E+03  0.29157804841E+03  0.33774570946E+03  0.90897525574E+02 0.  0.
         24    2    1    2    0    0 -0.14864589434E+02 -0.13207879345E+03 -0.53864677305E+02  0.16496391886E+03  0.81522557401E+02 0.  0.
        -11    1    4    4    0    0  0.85174398178E+01 -0.13034062582E+03 -0.54441987675E+02  0.14151026656E+03  0.00000000000E+00 0.  1.
         12    1    4    4    0    0 -0.23382029252E+02 -0.17381676277E+01  0.57731036998E+00  0.23453652294E+02  0.00000000000E+00 0. -1.
        -11    1    3    3    0    0  0.67756684489E+01  0.42516881911E+02  0.19212329685E+02  0.47145610000E+02  0.00000000000E+00 0.  1.
         11    1    3    3    0    0  0.26660030763E+02  0.97747510593E+02  0.27236571873E+03  0.29060009946E+03  0.00000000000E+00 0. -1.
          1    1    1    2  501    0 -0.18571109778E+02 -0.81855990541E+01 -0.58938098953E+02  0.62334498140E+02  0.00000000000E+00 0. -1.
<scales pt_clust_5="13000.00000" pt_clust_6="13000.00000" pt_clust_7="13000.00000" pt_clust_8="13000.00000" pt_clust_9="20.29508"></scales>
<clustering>
<clus scale="   20.295">  2  9  1 -1</clus>
<clus scale="   81.523">  5  6 -1 -1</clus>
<clus scale="   90.898">  7  8 -1 -1</clus>
<clus scale="  163.811">  2  5  1 -1</clus>
<clus scale="   20.295">  2  5  1 -1</clus>
</clustering>
</event>
<event>
 9    2  0.1488992E-004  0.9624985E+02  0.7546771E-02  0.1292907E+00
          2   -1    0    0  502    0 -0.00000000000E+00  0.00000000000E+00  0.42611245883E+03  0.42611245883E+03  0.00000000000E+00 0. -1.
         21   -1    0    0  501  502  0.00000000000E+00 -0.00000000000E+00 -0.14944233215E+03  0.14944233215E+03  0.00000000000E+00 0. -1.
         24    2    1    2    0    0  0.71816690338E+01  0.37245706372E+02  0.30214836059E+03  0.31552215218E+03  0.82594053654E+02 0.  0.
         23    2    1    2    0    0 -0.90440536049E+00 -0.14505474432E+02  0.97919873237E+02  0.13439978070E+03  0.90905295439E+02 0.  0.
        -13    1    3    3    0    0  0.43705529503E+02  0.28672106285E+02  0.15115506593E+03  0.15993785339E+03  0.00000000000E+00 0.  1.
         14    1    3    3    0    0 -0.36523860469E+02  0.85736000865E+01  0.15099329465E+03  0.15558429880E+03  0.00000000000E+00 0. -1.
        -13    1    4    4    0    0  0.37960281051E+02 -0.27374735560E+02  0.72230148199E+02  0.86067144679E+02  0.00000000000E+00 0.  1.
         13    1    4    4    0    0 -0.38864686411E+02  0.12869261128E+02  0.25689725039E+02  0.48332636017E+02  0.00000000000E+00 0. -1.
          1    1    1    2  501    0 -0.62772636733E+01 -0.22740231940E+02 -0.12339810715E+03  0.12563285811E+03  0.00000000000E+00 0. -1.
<scales pt_clust_5="13000.00000" pt_clust_6="13000.00000" pt_clust_7="13000.00000" pt_clust_8="13000.00000" pt_clust_9="23.59072"></scales>
<clustering>
<clus scale="   23.591">  2  9  1 -1</clus>
<clus scale="   82.594">  5  6 -1 -1</clus>
<clus scale="   88.442">  1  5  2 -1</clus>
<clus scale="   90.905">  7  8 -1 -1</clus>
<clus scale="   23.591">  2  5  1 -1</clus>
</clustering>
</event>
<event>
 9    2  0.1488992E-004  0.1204797E+03  0.7546771E-02  0.1246923E+00
          2   -1    0    0  502    0 -0.00000000000E+00  0.00000000000E+00  0.44344706998E+03  0.44344706998E+03  0.00000000000E+00 0. -1.
         21   -1    0    0  501  502  0.00000000000E+00 -0.00000000000E+00 -0.12555559620E+03  0.12555559620E+03  0.00000000000E+00 0.  1.
         24    2    1    2    0    0 -0.32040110637E+02  0.73930957286E+02  0.27551329486E+03  0.29779487713E+03  0.79258173500E+02 0.  0.
         23    2    1    2    0    0 -0.63939874044E+02 -0.62857321215E+02 -0.48720225459E+02  0.13841583840E+03  0.93519696477E+02 0.  0.
        -13    1    3    3    0    0 -0.33062691261E+02  0.38263306708E+02  0.56217301852E+02  0.75614861113E+02  0.00000000000E+00 0.  1.
         14    1    3    3    0    0  0.10225806235E+01  0.35667650578E+02  0.21929599301E+03  0.22218001602E+03  0.00000000000E+00 0. -1.
        -13    1    4    4    0    0 -0.20042291617E+02 -0.69819073296E+02 -0.58069338560E+02  0.92997013554E+02  0.00000000000E+00 0.  1.
         13    1    4    4    0    0 -0.43897582426E+02  0.69617520812E+01  0.93491131008E+01  0.45418824849E+02  0.00000000000E+00 0. -1.
          1    1    1    2  501    0  0.95979984681E+02 -0.11073636071E+02  0.91098404380E+02  0.13279195064E+03  0.00000000000E+00 0. -1.
<scales pt_clust_5="13000.00000" pt_clust_6="13000.00000" pt_clust_7="13000.00000" pt_clust_8="13000.00000" pt_clust_9="96.61673"></scales>
<clustering>
<clus scale="   79.258">  5  6 -1 -1</clus>
<clus scale="   93.520">  7  8 -1 -1</clus>
<clus scale="   96.617">  2  9  1 -1</clus>
<clus scale="  109.778">  1  5  2 -1</clus>
<clus scale="   96.617">  2  5  1 -1</clus>
</clustering>
</event>
<event>
 9    2  0.1488992E-004  0.1441997E+03  0.7546771E-02  0.1210181E+00
         21   -1    0    0  501  502  0.00000000000E+00  0.00000000000E+00  0.18680208357E+03  0.18680208357E+03  0.00000000000E+00 0. -1.
         -1   -1    0    0    0  501 -0.00000000000E+00 -0.00000000000E+00 -0.17289593794E+03  0.17289593794E+03  0.00000000000E+00 0.  1.
         24    2    1    2    0    0  0.57656577478E+02  0.98151759126E+02 -0.93688437889E+02  0.16789411696E+03  0.80329710380E+02 0.  0.
         23    2    1    2    0    0 -0.64587055125E+02 -0.78494892260E+02  0.99519174505E+02  0.16945136183E+03  0.92069333291E+02 0.  0.
        -11    1    3    3    0    0  0.74030700881E+02  0.69877407502E+02 -0.88339066770E+02  0.13478570944E+03  0.00000000000E+00 0.  1.
         12    1    3    3    0    0 -0.16374123403E+02  0.28274351624E+02 -0.53493711195E+01  0.33108407518E+02  0.00000000000E+00 0. -1.
        -13    1    4    4    0    0 -0.46105014864E+02 -0.15883593332E+02  0.91493804782E+02  0.10367775676E+03  0.00000000000E+00 0. -1.
         13    1    4    4    0    0 -0.18482040261E+02 -0.62611298927E+02  0.80253697227E+01  0.65773605077E+02  0.00000000000E+00 0.  1.
         -2    1    1    2    0  502  0.69304776474E+01 -0.19656866866E+02  0.80754090106E+01  0.22352542721E+02  0.00000000000E+00 0.  1.
<scales pt_clust_5="13000.00000" pt_clust_6="13000.00000" pt_clust_7="13000.00000" pt_clust_8="13000.00000" pt_clust_9="20.84284"></scales>
<clustering>
<clus scale="   20.843">  1  9  2 -1</clus>
<clus scale="   80.330">  5  6 -1 -1</clus>
<clus scale="   92.069">  7  8 -1 -1</clus>
<clus scale="  137.002">  2  5  1 -1</clus>
<clus scale="   20.843">  1  5  2 -1</clus>
</clustering>
</event>
<event>
 9    2  0.1488992E-004  0.3525432E+03  0.7546771E-02  0.1062063E+00
         21   -1    0    0  501  502  0.00000000000E+00  0.00000000000E+00  0.33925482720E+03  0.33925482720E+03  0.00000000000E+00 0. -1.
          2   -1    0    0  502    0 -0.00000000000E+00 -0.00000000000E+00 -0.88054895389E+03  0.88054895389E+03  0.00000000000E+00 0. -1.
         24    2    1    2    0    0  0.17015107357E+03  0.29100202032E+03 -0.71337281048E+03  0.79272827572E+03  0.76705858521E+02 0.  0.
         23    2    1    2    0    0 -0.19132763351E+03 -0.29877347905E+03  0.16813308039E+03  0.40417550433E+03  0.96006512533E+02 0.  0.
        -13    1    3    3    0    0  0.12283656906E+03  0.14400408649E+03 -0.43490158493E+03  0.47430516358E+03  0.00000000000E+00 0.  1.
         14    1    3    3    0    0  0.47314504505E+02  0.14699793383E+03 -0.27847122555E+03  0.31842311214E+03  0.00000000000E+00 0. -1.
        -11    1    4    4    0    0 -0.11490821752E+03 -0.94723610473E+02  0.80882642800E+02  0.16946522576E+03  0.00000000000E+00 0. -1.
         11    1    4    4    0    0 -0.76419415986E+02 -0.20404986858E+03  0.87250437595E+02  0.23471027857E+03  0.00000000000E+00 0.  1.
          1    1    1    2  501    0  0.21176559938E+02  0.77714587256E+01  0.39456033886E+01  0.22900001040E+02  0.00000000000E+00 0. -1.
<scales pt_clust_5="13000.00000" pt_clust_6="13000.00000" pt_clust_7="13000.00000" pt_clust_8="13000.00000" pt_clust_9="22.55753"></scales>
<clustering>
<clus scale="   22.558">  1  9  2 -1</clus>
<clus scale="   76.706">  5  6 -1 -1</clus>
<clus scale="   96.007">  7  8 -1 -1</clus>
<clus scale="  347.783">  2  5  1 -1</clus>
<clus scale="   22.558">  1  5  2 -1</clus>
</clustering>
</event>
<event>
 9    2  0.1488992E-004  0.1369581E+03  0.7546771E-02  0.1218305E+00
          2   -1    0    0  502    0 -0.00000000000E+00  0.00000000000E+00  0.10402004366E+04  0.10402004366E+04  0.00000000000E+00 0. -1.
         21   -1    0    0  501  502  0.00000000000E+00 -0.00000000000E+00 -0.24875167653E+02  0.24875167653E+02  0.00000000000E+00 0. -1.
         24    2    1    2    0    0  0.16379750725E+02 -0.12963537211E+03  0.58075708028E+03  0.60021875747E+03  0.76877464796E+02 0.  0.
         23    2    1    2    0    0 -0.35189131556E+02  0.88540675280E+02  0.30920087956E+03  0.33159196352E+03  0.72596970984E+02 0.  0.
        -13    1    3    3    0    0 -0.20503001969E+02 -0.51969468783E+01  0.10276641139E+03  0.10492052543E+03  0.00000000000E+00 0.  1.
         14    1    3    3    0    0  0.36882752694E+02 -0.12443842523E+03  0.47799066889E+03  0.49529823204E+03  0.00000000000E+00 0. -1.
        -13    1    4    4    0    0 -0.48147082878E+02  0.31121159377E+02  0.19296517040E+03  0.20130132920E+03  0.00000000000E+00 0.  1.
         13    1    4    4    0    0  0.12957951322E+02  0.57419515903E+02  0.11623570916E+03  0.13029063432E+03  0.00000000000E+00 0. -1.
          1    1    1    2  501    0  0.18809380831E+02  0.41094696829E+02  0.12536730907E+03  0.13326488322E+03  0.00000000000E+00 0. -1.
<scales pt_clust_5="13000.00000" pt_clust_6="13000.00000" pt_clust_7="13000.00000" pt_clust_8="13000.00000" pt_clust_9="45.19477"></scales>
<clustering>
<clus scale="   45.195">  2  9  1 -1</clus>
<clus scale="   72.597">  7  8 -1 -1</clus>
<clus scale="   76.877">  5  6 -1 -1</clus>
<clus scale="  134.602">  2  7  1 -1</clus>
<clus scale="   45.195">  2  5  1 -1</clus>
</clustering>
</event>
<event>
 9    2  0.1488992E-004  0.2138679E+03  0.7546771E-02  0.1173857E+00
         21   -1    0    0  501  502  0.00000000000E+00  0.00000000000E+00  0.26534972280E+03  0.26534972280E+03  0.00000000000E+00 0. -1.
          2   -1    0    0  502    0 -0.00000000000E+00 -0.00000000000E+00 -0.25686286075E+03  0.25686286075E+03  0.00000000000E+00 0. -1.
         24    2    1    2    0    0 -0.47386351865E+01  0.39345318643E+02 -0.37197115704E+02  0.10058455847E+03  0.84635212672E+02 0.  0.
         23    2    1    2    0    0 -0.14505011625E+03 -0.14256942922E+03  0.79866071599E+02  0.23653263724E+03  0.90573289176E+02 0.  0.
        -11    1    3    3    0    0 -0.37575789192E+02  0.41805056152E+02 -0.37646210223E+02  0.67652345099E+02  0.00000000000E+00 0.  1.
         12    1    3    3    0    0  0.32837154006E+02 -0.24597375091E+01  0.44909451865E+00  0.32932213374E+02  0.00000000000E+00 0. -1.
        -11    1    4    4    0    0 -0.28535465270E+02 -0.13794989237E+01 -0.12859508674E+02  0.31329582805E+02  0.00000000000E+00 0.  1.
         11    1    4    4    0    0 -0.11651465098E+03 -0.14118993030E+03  0.92725580272E+02  0.20520305443E+03  0.00000000000E+00 0. -1.
          1    1    1    2  501    0  0.14978875144E+03  0.10322411058E+03 -0.34182093850E+02  0.18509538785E+03  0.00000000000E+00 0. -1.
<scales pt_clust_5="13000.00000" pt_clust_6="13000.00000" pt_clust_7="13000.00000" pt_clust_8="13000.00000" pt_clust_9="193.74209"></scales>
<clustering>
<clus scale="   84.635">  5  6 -1 -1</clus>
<clus scale="   90.573">  7  8 -1 -1</clus>
<clus scale="   93.454">  2  5  1 -1</clus>
<clus scale="  193.742">  1  9  2 -1</clus>
<clus scale="  193.742">  1  5  2 -1</clus>
</clustering>
</event>
<event>
 9    2  0.1909149E-004  0.9382745E+02  0.7546771E-02  0.1303892E+00
         -3   -1    0    0    0  501 -0.00000000000E+00  0.00000000000E+00  0.29703163331E+03  0.29703163331E+03  0.00000000000E+00 0.  1.
         21   -1    0    0  501  502  0.00000000000E+00 -0.00000000000E+00 -0.19328702268E+03  0.19328702268E+03  0.00000000000E+00 0.  1.
         23    2    1    2    0    0 -0.65243523770E+01 -0.20488289231E+02  0.27085096046E+03  0.28661574804E+03  0.91246956507E+02 0.  0.
         24    2    1    2    0    0 -0.16862586624E+02  0.32235028145E+02 -0.91310268839E+02  0.12351574760E+03  0.74800607236E+02 0.  0.
        -13    1    4    4    0    0 -0.46491304057E+02  0.15671166777E+02 -0.57840179078E+02  0.75845323764E+02  0.00000000000E+00 0.  1.
         14    1    4    4    0    0  0.29628717434E+02  0.16563861368E+02 -0.33470089761E+02  0.47670423837E+02  0.00000000000E+00 0. -1.
        -13    1    3    3    0    0 -0.19849643687E+02  0.29039337782E+02  0.59402259734E+02  0.69035642641E+02  0.00000000000E+00 0. -1.
         13    1    3    3    0    0  0.13325291310E+02 -0.49527627012E+02  0.21144870073E+03  0.21758010540E+03  0.00000000000E+00 0.  1.
         -4    1    1    2    0  502  0.23386939001E+02 -0.11746738914E+02 -0.75796080991E+02  0.80187160347E+02  0.00000000000E+00 0.  1.
<scales pt_clust_5="13000.00000" pt_clust_6="13000.00000" pt_clust_7="13000.00000" pt_clust_8="13000.00000" pt_clust_9="26.17126"></scales>
<clustering>
<clus scale="   26.171">  2  9  1 -1</clus>
<clus scale="   74.801">  5  6 -1 -1</clus>
<clus scale="   77.928">  2  5  1 -1</clus>
<clus scale="   91.247">  7  8 -1 -1</clus>
<clus scale="   26.171">  2  5  1 -1</clus>
</clustering>
</event>
<event>
 9    2  0.1488992E-004  0.9511608E+02  0.7546771E-02  0.1298104E+00
         21   -1    0    0  501  502  0.00000000000E+00  0.00000000000E+00  0.49418419866E+03  0.49418419866E+03  0.00000000000E+00 0.  1.
         -1   -1    0    0    0  501 -0.00000000000E+00 -0.00000000000E+00 -0.75151796059E+02  0.75151796059E+02  0.00000000000E+00 0.  1.
         23    2    1    2    0    0  0.11251031239E+02 -0.26361936432E+02 -0.11885975439E+02  0.96340810839E+02  0.91207116085E+02 0.  0.
         24    2    1    2    0    0  0.71888227925E+02  0.29878391551E+02  0.21085353252E+03  0.23772292010E+03  0.77410199382E+02 0.  0.
        -13    1    4    4    0    0  0.44796763809E+02  0.30886375002E+02  0.20200529254E+03  0.20920529731E+03  0.00000000000E+00 0.  1.
         14    1    4    4    0    0  0.27091464116E+02 -0.10079834506E+01  0.88482399741E+01  0.28517622783E+02  0.00000000000E+00 0. -1.
        -11    1    3    3    0    0 -0.24832340834E+02 -0.19430150364E+02  0.27958441132E+02  0.42140839159E+02  0.00000000000E+00 0. -1.
         11    1    3    3    0    0  0.36083372073E+02 -0.69317860672E+01 -0.39844416571E+02  0.54199971680E+02  0.00000000000E+00 0.  1.
         -2    1    1    2    0  502 -0.83139259164E+02 -0.35164551197E+01  0.22006484552E+03  0.23527226378E+03  0.00000000000E+00 0.  1.
<scales pt_clust_5="13000.00000" pt_clust_6="13000.00000" pt_clust_7="13000.00000" pt_clust_8="13000.00000" pt_clust_9="83.21359"></scales>
<clustering>
<clus scale="   77.410">  5  6 -1 -1</clus>
<clus scale="   83.214">  1  9  2 -1</clus>
<clus scale="   83.214">  1  5  2 -1</clus>
<clus scale="   91.207">  7  8 -1 -1</clus>
<clus scale="   83.214">  1  5  2 -1</clus>
</clustering>
</event>
<event>
 9    2  0.1488992E-004  0.1600975E+03  0.7546771E-02  0.1190537E+00
         -1   -1    0    0    0  501 -0.00000000000E+00  0.00000000000E+00  0.83208855653E+03  0.83208855653E+03  0.00000000000E+00 0.  1.
         21   -1    0    0  501  502  0.00000000000E+00 -0.00000000000E+00 -0.76804189623E+02  0.76804189623E+02  0.00000000000E+00 0. -1.
         23    2    1    2    0    0  0.67404251665E+02 -0.11856074106E+03  0.56643389737E+03  0.58982468570E+03  0.91901127920E+02 0.  0.
         24    2    1    2    0    0 -0.73561889578E+02  0.97584838661E+02  0.23008389218E+03  0.27239794016E+03  0.79548023401E+02 0.  0.
        -11    1    4    4    0    0 -0.47856470581E+02  0.17677286256E+02  0.14124174350E+03  0.15017309457E+03  0.00000000000E+00 0.  1.
         12    1    4    4    0    0 -0.25705418996E+02  0.79907552405E+02  0.88842148685E+02  0.12222484559E+03  0.00000000000E+00 0. -1.
        -11    1    3    3    0    0  0.68141093236E+02 -0.31742061471E+02  0.21273596961E+03  0.22562659377E+03  0.00000000000E+00 0. -1.
         11    1    3    3    0    0 -0.73684157109E+00 -0.86818679588E+02  0.35369792776E+03  0.36419809193E+03  0.00000000000E+00 0.  1.
         -2    1    1    2    0  502  0.61576379127E+01  0.20975902398E+02 -0.41233422637E+02  0.46670120296E+02  0.00000000000E+00 0.  1.
<scales pt_clust_5="13000.00000" pt_clust_6="13000.00000" pt_clust_7="13000.00000" pt_clust_8="13000.00000" pt_clust_9="21.86104"></scales>
<clustering>
<clus scale="   21.861">  2  9  1 -1</clus>
<clus scale="   79.548">  5  6 -1 -1</clus>
<clus scale="   91.901">  7  8 -1 -1</clus>
<clus scale="  153.340">  2  5  1 -1</clus>
<clus scale="   21.861">  2  5  1 -1</clus>
</clustering>
</event>
<event>
 9    2  0.1488992E-004  0.1797602E+03  0.7546771E-02  0.1173196E+00
         21   -1    0    0  501  502  0.00000000000E+00  0.00000000000E+00  0.10064544914E+04  0.10064544914E+04  0.00000000000E+00 0.  1.
          2   -1    0    0  502    0 -0.00000000000E+00 -0.00000000000E+00 -0.23797794391E+03  0.23797794391E+03  0.00000000000E+00 0. -1.
         23    2    1    2    0    0  0.29157329088E+02  0.12780301207E+03 -0.16163798006E+03  0.22727042061E+03  0.91330431696E+02 0.  0.
         24    2    1    2    0    0 -0.14537789409E+03  0.49032333914E+02  0.60542618446E+03  0.62960494865E+03  0.79514933677E+02 0.  0.
        -11    1    4    4    0    0 -0.10068048414E+03  0.18239586786E+02  0.25111507276E+03  0.27116051000E+03  0.00000000000E+00 0.  1.
         12    1    4    4    0    0 -0.44697409958E+02  0.30792747127E+02  0.35431111169E+03  0.35844443865E+03  0.00000000000E+00 0. -1.
        -13    1    3    3    0    0  0.74963404891E+01  0.10922973937E+03 -0.66852370159E+02  0.12828316522E+03  0.00000000000E+00 0.  1.
         13    1    3    3    0    0  0.21660988599E+02  0.18573272700E+02 -0.94785609898E+02  0.98987255390E+02  0.00000000000E+00 0. -1.
          1    1    1    2  501    0  0.11622056501E+03 -0.17683534598E+03  0.32468834312E+03  0.38755706609E+03  0.00000000000E+00 0. -1.
<scales pt_clust_5="13000.00000" pt_clust_6="13000.00000" pt_clust_7="13000.00000" pt_clust_8="13000.00000" pt_clust_9="161.21767"></scales>
<clustering>
<clus scale="   79.515">  5  6 -1 -1</clus>
<clus scale="   91.330">  7  8 -1 -1</clus>
<clus scale="  159.765">  2  7  1 -1</clus>
<clus scale="  161.218">  1  9  2 -1</clus>
<clus scale="  161.218">  1  5  2 -1</clus>
</clustering>
</event>
<event>
 9    2  0.1488992E-004  0.1528103E+03  0.7546771E-02  0.1219650E+00
         21   -1    0    0  501  502  0.00000000000E+00  0.00000000000E+00  0.77212981023E+03  0.77212981023E+03  0.00000000000E+00 0. -1.
          2   -1    0    0  502    0 -0.00000000000E+00 -0.00000000000E+00 -0.79199734881E+02  0.79199734881E+02  0.00000000000E+00 0. -1.
         23    2    1    2    0    0 -0.19536393976E+02 -0.15025285398E+02  0.41786976117E+03  0.42835710856E+03  0.90924393104E+02 0.  0.
         24    2    1    2    0    0 -0.10029357308E+03  0.70106532029E+02  0.38168615890E+02  0.15184360841E+03  0.81399702340E+02 0.  0.
        -11    1    4    4    0    0 -0.50053986796E+02 -0.10096334224E+02  0.22975519618E+02  0.55992964385E+02  0.00000000000E+00 0.  1.
         12    1    4    4    0    0 -0.50239586281E+02  0.80202866252E+02  0.15193096272E+02  0.95850644020E+02  0.00000000000E+00 0. -1.
        -11    1    3    3    0    0  0.21923450659E+01 -0.50668230684E+02  0.18760742462E+03  0.19434150805E+03  0.00000000000E+00 0.  1.
         11    1    3    3    0    0 -0.21728739042E+02  0.35642945286E+02  0.23026233655E+03  0.23401560051E+03  0.00000000000E+00 0. -1.
          1    1    1    2  501    0  0.11982996705E+03 -0.55081246631E+02  0.23689169828E+03  0.27112882814E+03  0.00000000000E+00 0. -1.
<scales pt_clust_5="13000.00000" pt_clust_6="13000.00000" pt_clust_7="13000.00000" pt_clust_8="13000.00000" pt_clust_9="129.32549"></scales>
<clustering>
<clus scale="   81.400">  5  6 -1 -1</clus>
<clus scale="   90.924">  7  8 -1 -1</clus>
<clus scale="   94.206">  2  7  1 -1</clus>
<clus scale="  129.325">  1  9  2 -1</clus>
<clus scale="  129.325">  1  5  2 -1</clus>
</clustering>
</event>
<event>
 9    2  0.1488992E-004  0.2880066E+03  0.7546771E-02  0.1116048E+00
          2   -1    0    0  502    0 -0.00000000000E+00  0.00000000000E+00  0.21434098493E+04  0.21434098493E+04  0.00000000000E+00 0. -1.
         21   -1    0    0  501  502  0.00000000000E+00 -0.00000000000E+00 -0.71686331755E+02  0.71686331755E+02  0.00000000000E+00 0. -1.
         23    2    1    2    0    0  0.59359754263E+02 -0.10736469771E+03  0.35599160279E+03  0.38730736836E+03  0.90698498273E+02 0.  0.
         24    2    1    2    0    0  0.95841689943E+02  0.28398241812E+03  0.49431303684E+03  0.58394582309E+03  0.82557268519E+02 0.  0.
        -13    1    4    4    0    0  0.45791820568E+02  0.42182804255E+02  0.76639924422E+02  0.98741874709E+02  0.00000000000E+00 0.  1.
         14    1    4    4    0    0  0.50049869375E+02  0.24179961387E+03  0.41767311242E+03  0.48520394838E+03  0.00000000000E+00 0. -1.
        -13    1    3    3    0    0 -0.24244992944E+02 -0.20312678673E+02  0.83086846936E+02  0.88903592343E+02  0.00000000000E+00 0.  1.
         13    1    3    3    0    0  0.83604747207E+02 -0.87052019040E+02  0.27290475585E+03  0.29840377602E+03  0.00000000000E+00 0. -1.
          1    1    1    2  501    0 -0.15520144421E+03 -0.17661772041E+03  0.12214188779E+04  0.12438429896E+04  0.00000000000E+00 0. -1.
<scales pt_clust_5="13000.00000" pt_clust_6="13000.00000" pt_clust_7="13000.00000" pt_clust_8="13000.00000" pt_clust_9="275.92060"></scales>
<clustering>
<clus scale="   82.557">  5  6 -1 -1</clus>
<clus scale="   90.698">  7  8 -1 -1</clus>
<clus scale="  152.568">  1  7  2 -1</clus>
<clus scale="  275.921">  2  9  1 -1</clus>
<clus scale="  275.921">  2  5  1 -1</clus>
</clustering>
</event>
<event>
 9    2  0.1488992E-004  0.1365630E+03  0.7546771E-02  0.1222753E+00
          4   -1    0    0  502    0 -0.00000000000E+00  0.00000000000E+00  0.47616389996E+02  0.47616389996E+02  0.00000000000E+00 0. -1.
         21   -1    0    0  501  502  0.00000000000E+00 -0.00000000000E+00 -0.63257972778E+03  0.63257972778E+03  0.00000000000E+00 0. -1.
         24    2    1    2    0    0 -0.87369083348E+02 -0.31716471493E+01 -0.13725061806E+03  0.17816270879E+03  0.72531390280E+02 0.  0.
         23    2    1    2    0    0  0.11601652069E+03  0.56276168355E+02 -0.25836136863E+03  0.30330067388E+03  0.92810892565E+02 0.  0.
        -11    1    3    3    0    0 -0.51984142962E+01 -0.25213123511E+02 -0.16962132082E+02  0.30829191251E+02  0.00000000000E+00 0.  1.
         12    1    3    3    0    0 -0.82170669052E+02  0.22041476362E+02 -0.12028848597E+03  0.14733351754E+03  0.00000000000E+00 0. -1.
        -13    1    4    4    0    0  0.80022104805E+02  0.53635292113E+02 -0.92484014573E+02  0.13354240813E+03  0.00000000000E+00 0. -1.
         13    1    4    4    0    0  0.35994415889E+02  0.26408762421E+01 -0.16587735406E+03  0.16975826575E+03  0.00000000000E+00 0.  1.
          3    1    1    2  501    0 -0.28647437347E+02 -0.53104521206E+02 -0.18935135110E+03  0.19873273510E+03  0.00000000000E+00 0. -1.
<scales pt_clust_5="13000.00000" pt_clust_6="13000.00000" pt_clust_7="13000.00000" pt_clust_8="13000.00000" pt_clust_9="60.33876"></scales>
<clustering>
<clus scale="   60.339">  2  9  1 -1</clus>
<clus scale="   72.531">  5  6 -1 -1</clus>
<clus scale="   92.811">  7  8 -1 -1</clus>
<clus scale="  123.679">  1  5  2 -1</clus>
<clus scale="   60.339">  2  5  1 -1</clus>
</clustering>
</event>
<event>
 9    2  0.1488992E-004  0.1004017E+03  0.7546771E-02  0.1286113E+00
          4   -1    0    0  502    0 -0.00000000000E+00  0.00000000000E+00  0.12948527371E+03  0.12948527371E+03  0.00000000000E+00 0. -1.
         21   -1    0    0  501  502  0.00000000000E+00 -0.00000000000E+00 -0.16819888763E+03  0.16819888763E+03  0.00000000000E+00 0. -1.
         24    2    1    2    0    0  0.48898453429E+02  0.31542455572E+02 -0.21917888260E+01  0.97256335587E+02  0.77897404464E+02 0.  0.
         23    2    1    2    0    0 -0.73517248424E+01 -0.12241738927E+01 -0.88506180792E+02  0.12729984139E+03  0.91194073926E+02 0.  0.
        -11    1    3    3    0    0  0.42032827140E+02 -0.17947320559E+02 -0.97266473853E+01  0.46727642161E+02  0.00000000000E+00 0.  1.
         12    1    3    3    0    0  0.68656262892E+01  0.49489776131E+02  0.75348585592E+01  0.50528693426E+02  0.00000000000E+00 0. -1.
        -13    1    4    4    0    0  0.25252682634E+02 -0.33849592997E+02 -0.25912524916E+02  0.49547470913E+02  0.00000000000E+00 0.  1.
         13    1    4    4    0    0 -0.32604407477E+02  0.32625419105E+02 -0.62593655876E+02  0.77752370476E+02  0.00000000000E+00 0. -1.
          3    1    1    2  501    0 -0.41546728586E+02 -0.30318281679E+02  0.51984355702E+02  0.73127984369E+02  0.00000000000E+00 0. -1.
<scales pt_clust_5="13000.00000" pt_clust_6="13000.00000" pt_clust_7="13000.00000" pt_clust_8="13000.00000" pt_clust_9="51.43279"></scales>
<clustering>
<clus scale="   51.433">  2  9  1 -1</clus>
<clus scale="   77.897">  5  6 -1 -1</clus>
<clus scale="   88.499">  1  5  2 -1</clus>
<clus scale="   91.194">  7  8 -1 -1</clus>
<clus scale="   51.433">  2  5  1 -1</clus>
</clustering>
</event>
<event>
 9    2  0.1488992E-004  0.8928338E+02  0.7546771E-02  0.1309210E+00
          2   -1    0    0  502    0 -0.00000000000E+00  0.00000000000E+00  0.29648729033E+03  0.29648729033E+03  0.00000000000E+00 0. -1.
         21   -1    0    0  501  502  0.00000000000E+00 -0.00000000000E+00 -0.80603632059E+02  0.80603632059E+02  0.00000000000E+00 0. -1.
         23    2    1    2    0    0 -0.66537373210E+01  0.55121616682E+01  0.65624075735E+02  0.10173606392E+03  0.77259635249E+02 0.  0.
         24    2    1    2    0    0  0.81353148912E+02 -0.23256976963E+02  0.16294800489E+02  0.12094811189E+03  0.84874633610E+02 0.  0.
        -11    1    4    4    0    0  0.55866694209E+02  0.23083520993E+02  0.28255758416E+02  0.66725739763E+02  0.00000000000E+00 0.  1.
         12    1    4    4    0    0  0.25486454703E+02 -0.46340497955E+02 -0.11960957927E+02  0.54222372123E+02  0.00000000000E+00 0. -1.
        -11    1    3    3    0    0 -0.59986690411E+01 -0.29772160689E+02  0.58237613214E+02  0.65680934640E+02  0.00000000000E+00 0. -1.
         11    1    3    3    0    0 -0.65506827993E+00  0.35284322357E+02  0.73864625217E+01  0.36055129278E+02  0.00000000000E+00 0.  1.
          1    1    1    2  501    0 -0.74699411591E+02  0.17744815294E+02  0.13396478205E+03  0.15440674658E+03  0.00000000000E+00 0. -1.
<scales pt_clust_5="13000.00000" pt_clust_6="13000.00000" pt_clust_7="13000.00000" pt_clust_8="13000.00000" pt_clust_9="76.77816"></scales>
<clustering>
<clus scale="   76.778">  2  9  1 -1</clus>
<clus scale="   77.260">  7  8 -1 -1</clus>
<clus scale="   82.078">  1  7  2 -1</clus>
<clus scale="   84.875">  5  6 -1 -1</clus>
<clus scale="   76.778">  2  5  1 -1</clus>
</clustering>
</event>
<event>
 9    2  0.1488992E-004  0.1074718E+03  0.7546771E-02  0.1268923E+00
          2   -1    0    0  502    0 -0.00000000000E+00  0.00000000000E+00  0.20788917682E+03  0.20788917682E+03  0.00000000000E+00 0. -1.
         21   -1    0    0  501  502  0.00000000000E+00 -0.00000000000E+00 -0.15577693976E+03  0.15577693976E+03  0.00000000000E+00 0.  1.
         23    2    1    2    0    0 -0.11237462044E+02  0.55136989297E+02 -0.33078324656E+02  0.11141775405E+03  0.90296025456E+02 0.  0.
         24    2    1    2    0    0  0.72445165063E+02 -0.26527099868E+02 -0.32229120299E+02  0.11677773691E+03  0.81525055500E+02 0.  0.
        -11    1    4    4    0    0  0.82485008176E+02 -0.52746502156E+01 -0.40262313274E+02  0.91938307461E+02  0.00000000000E+00 0.  1.
         12    1    4    4    0    0 -0.10039843113E+02 -0.21252449653E+02  0.80331929750E+01  0.24839429449E+02  0.00000000000E+00 0. -1.
        -13    1    3    3    0    0 -0.33726252301E+02  0.20986856909E+02 -0.52756666952E+02  0.66039186587E+02  0.00000000000E+00 0.  1.
         13    1    3    3    0    0  0.22488790256E+02  0.34150132387E+02  0.19678342296E+02  0.45378567461E+02  0.00000000000E+00 0. -1.
          1    1    1    2  501    0 -0.61207703019E+02 -0.28609889428E+02  0.11741968202E+03  0.13547062562E+03  0.00000000000E+00 0. -1.
<scales pt_clust_5="13000.00000" pt_clust_6="13000.00000" pt_clust_7="13000.00000" pt_clust_8="13000.00000" pt_clust_9="67.56414"></scales>
<clustering>
<clus scale="   67.564">  2  9  1 -1</clus>
<clus scale="   81.525">  5  6 -1 -1</clus>
<clus scale="   90.296">  7  8 -1 -1</clus>
<clus scale="  100.216">  2  5  1 -1</clus>
<clus scale="   67.564">  2  5  1 -1</clus>
</clustering>
</event>
<event>
 9    2  0.1488992E-004  0.9824585E+02  0.7546771E-02  0.1284568E+00
         21   -1    0    0  501  502  0.00000000000E+00  0.00000000000E+00  0.99712211946E+02  0.99712211946E+02  0.00000000000E+00 0. -1.
          2   -1    0    0  502    0 -0.00000000000E+00 -0.00000000000E+00 -0.43833825312E+03  0.43833825312E+03  0.00000000000E+00 0. -1.
         24    2    1    2    0    0  0.47350972692E+02 -0.25106252514E+02 -0.15620583137E+03  0.18679614021E+03  0.87293171069E+02 0.  0.
         23    2    1    2    0    0 -0.52008576376E+01 -0.41154332116E+02  0.47284498413E+02  0.10849652322E+03  0.88402170727E+02 0.  0.
        -13    1    3    3    0    0  0.67478034119E+02 -0.29261504616E+02 -0.83650805746E+02  0.11138661519E+03  0.00000000000E+00 0.  1.
         14    1    3    3    0    0 -0.20127061427E+02  0.41552521017E+01 -0.72555025622E+02  0.75409525027E+02  0.00000000000E+00 0. -1.
        -13    1    4    4    0    0  0.38837569256E+02 -0.10073502075E+02  0.59304662791E+01  0.40558632374E+02  0.00000000000E+00 0.  1.
         13    1    4    4    0    0 -0.44038426893E+02 -0.31080830041E+02  0.41354032134E+02  0.67937890849E+02  0.00000000000E+00 0. -1.
          1    1    1    2  501    0 -0.42150115054E+02  0.66260584630E+02 -0.22970470822E+03  0.24275780163E+03  0.00000000000E+00 0. -1.
<scales pt_clust_5="13000.00000" pt_clust_6="13000.00000" pt_clust_7="13000.00000" pt_clust_8="13000.00000" pt_clust_9="78.53091"></scales>
<clustering>
<clus scale="   78.531">  1  9  2 -1</clus>
<clus scale="   87.293">  5  6 -1 -1</clus>
<clus scale="   88.402">  7  8 -1 -1</clus>
<clus scale="   97.249">  2  5  1 -1</clus>
<clus scale="   78.531">  1  5  2 -1</clus>
</clustering>
</event>
<event>
 9    2  0.1488992E-004  0.9014464E+02  0.7546771E-02  0.1306787E+00
         -1   -1    0    0    0  501 -0.00000000000E+00  0.00000000000E+00  0.37945458921E+03  0.37945458921E+03  0.00000000000E+00 0.  1.
         21   -1    0    0  501  502  0.00000000000E+00 -0.00000000000E+00 -0.45739298815E+02  0.45739298815E+02  0.00000000000E+00 0. -1.
         23    2    1    2    0    0 -0.22240846350E+02 -0.18921368256E+02  0.28692400914E+03  0.30129559847E+03  0.87183583379E+02 0.  0.
         24    2    1    2    0    0 -0.68296617590E+01  0.10539012043E+02  0.46797639672E+02  0.93643399415E+02  0.80133339631E+02 0.  0.
        -11    1    4    4    0    0  0.34677281340E+02 -0.71595112429E+01  0.15067326738E+02  0.38481122351E+02  0.00000000000E+00 0.  1.
         12    1    4    4    0    0 -0.41506943099E+02  0.17698523286E+02  0.31730312934E+02  0.55162277063E+02  0.00000000000E+00 0. -1.
        -13    1    3    3    0    0 -0.45883673186E+02  0.77066172976E+01  0.91455595399E+02  0.10261008403E+03  0.00000000000E+00 0.  1.
         13    1    3    3    0    0  0.23642826836E+02 -0.26627985553E+02  0.19546841374E+03  0.19868551444E+03  0.00000000000E+00 0. -1.
         -2    1    1    2    0  502  0.29070508109E+02  0.83823562125E+01 -0.63584147277E-02  0.30254890147E+02  0.00000000000E+00 0.  1.
<scales pt_clust_5="13000.00000" pt_clust_6="13000.00000" pt_clust_7="13000.00000" pt_clust_8="13000.00000" pt_clust_9="30.25489"></scales>
<clustering>
<clus scale="   30.255">  2  9  1 -1</clus>
<clus scale="   80.133">  5  6 -1 -1</clus>
<clus scale="   83.345">  2  5  1 -1</clus>
<clus scale="   87.184">  7  8 -1 -1</clus>
<clus scale="   30.255">  2  5  1 -1</clus>
</clustering>
</event>
<event>
 9    2  0.1488992E-004  0.1105417E+03  0.7546771E-02  0.1265368E+00
         21   -1    0    0  501  502  0.00000000000E+00  0.00000000000E+00  0.61451693100E+02  0.61451693100E+02  0.00000000000E+00 0.  1.
          4   -1    0    0  502    0 -0.00000000000E+00 -0.00000000000E+00 -0.50841307580E+03  0.50841307580E+03  0.00000000000E+00 0. -1.
         24    2    1    2    0    0  0.24686315001E+02 -0.64906739447E+02 -0.30609874712E+03  0.32286328600E+03  0.75643634810E+02 0.  0.
         23    2    1    2    0    0 -0.39421179612E+02  0.39584720174E+02 -0.17325440228E+03  0.20332600414E+03  0.90572603885E+02 0.  0.
        -11    1    3    3    0    0  0.35154822852E+02 -0.58771409187E+02 -0.30257473061E+03  0.31022799312E+03  0.00000000000E+00 0.  1.
         12    1    3    3    0    0 -0.10468507850E+02 -0.61353302599E+01 -0.35240165062E+01  0.12635292887E+02  0.00000000000E+00 0. -1.
        -11    1    4    4    0    0 -0.64995884745E+02  0.44065451365E+02 -0.11189584211E+03  0.13670006774E+03  0.00000000000E+00 0. -1.
         11    1    4    4    0    0  0.25574705134E+02 -0.44807311905E+01 -0.61358560171E+02  0.66625936398E+02  0.00000000000E+00 0.  1.
          3    1    1    2  501    0  0.14734864611E+02  0.25322019273E+02  0.32391766700E+02  0.43675478762E+02  0.00000000000E+00 0. -1.
<scales pt_clust_5="13000.00000" pt_clust_6="13000.00000" pt_clust_7="13000.00000" pt_clust_8="13000.00000" pt_clust_9="29.29711"></scales>
<clustering>
<clus scale="   29.297">  1  9  2 -1</clus>
<clus scale="   75.644">  5  6 -1 -1</clus>
<clus scale="   90.573">  7  8 -1 -1</clus>
<clus scale="   98.681">  2  5  1 -1</clus>
<clus scale="   29.297">  1  5  2 -1</clus>
</clustering>
</event>
<event>
 9    2  0.1828086E-004  0.2178824E+03  0.7546771E-02  0.1168305E+00
          2   -1    0    0  502    0 -0.00000000000E+00  0.00000000000E+00  0.32339470350E+03  0.32339470350E+03  0.00000000000E+00 0. -1.
         21   -1    0    0  501  502  0.00000000000E+00 -0.00000000000E+00 -0.52955089138E+03  0.52955089138E+03  0.00000000000E+00 0.  1.
         23    2    1    2    0    0 -0.18199423732E+02 -0.35517227130E+02 -0.17015098512E+02  0.10176000325E+03  0.92048314690E+02 0.  0.
         24    2    1    2    0    0  0.25413553333E+02  0.20396946396E+03 -0.41441381942E+03  0.46980328468E+03  0.82017813033E+02 0.  0.
        -13    1    4    4    0    0  0.28879998486E+02  0.19360846512E+03 -0.41501262754E+03  0.45886138767E+03  0.00000000000E+00 0.  1.
         14    1    4    4    0    0 -0.34664451530E+01  0.10360998845E+02  0.59880812420E+00  0.10941897013E+02  0.00000000000E+00 0. -1.
        -13    1    3    3    0    0  0.86846293836E+01  0.28642697600E+02  0.83372708713E+00  0.29941977460E+02  0.00000000000E+00 0.  1.
         13    1    3    3    0    0 -0.26884053116E+02 -0.64159924731E+02 -0.17848825599E+02  0.71818025792E+02  0.00000000000E+00 0. -1.
          1    1    1    2  501    0 -0.72141296006E+01 -0.16845223683E+03  0.22527273004E+03  0.28138230694E+03  0.00000000000E+00 0. -1.
<scales pt_clust_5="13000.00000" pt_clust_6="13000.00000" pt_clust_7="13000.00000" pt_clust_8="13000.00000" pt_clust_9="201.85604"></scales>
<clustering>
<clus scale="   82.018">  5  6 -1 -1</clus>
<clus scale="   92.048">  7  8 -1 -1</clus>
<clus scale="  100.327">  1  7  2 -1</clus>
<clus scale="  201.856">  2  9  1 -1</clus>
<clus scale="  201.856">  2  5  1 -1</clus>
</clustering>
</event>
<event>
 9    2  0.1488992E-004  0.2116387E+03  0.7546771E-02  0.1140275E+00
          2   -1    0    0  502    0 -0.00000000000E+00  0.00000000000E+00  0.97015634785E+03  0.97015634785E+03  0.00000000000E+00 0. -1.
         21   -1    0    0  501  502  0.00000000000E+00 -0.00000000000E+00 -0.27833281217E+02  0.27833281217E+02  0.00000000000E+00 0. -1.
         24    2    1    2    0    0  0.34106887211E+02  0.78208782738E+02  0.40404421675E+03  0.42066571024E+03  0.80174916462E+02 0.  0.
         23    2    1    2    0    0  0.50401163781E+01  0.28993172392E+02  0.26868751330E+03  0.28457106089E+03  0.89003944129E+02 0.  0.
        -13    1    3    3    0    0  0.22320962195E+02  0.16111907477E+01  0.24059757736E+02  0.32858685781E+02  0.00000000000E+00 0.  1.
         14    1    3    3    0    0  0.11785925016E+02  0.76597591991E+02  0.37998445901E+03  0.38780702446E+03  0.00000000000E+00 0. -1.
        -13    1    4    4    0    0  0.36252384997E+02  0.19017295572E+02  0.23113417323E+03  0.23473154663E+03  0.00000000000E+00 0.  1.
         13    1    4    4    0    0 -0.31212268619E+02  0.99758768196E+01  0.37553340076E+02  0.49839514258E+02  0.00000000000E+00 0. -1.
          1    1    1    2  501    0 -0.39147003589E+02 -0.10720195513E+03  0.26959133657E+03  0.29275285794E+03  0.00000000000E+00 0. -1.
<scales pt_clust_5="13000.00000" pt_clust_6="13000.00000" pt_clust_7="13000.00000" pt_clust_8="13000.00000" pt_clust_9="114.12601"></scales>
<clustering>
<clus scale="   80.175">  5  6 -1 -1</clus>
<clus scale="   89.004">  7  8 -1 -1</clus>
<clus scale="   89.566">  5  7 -1 -1</clus>
<clus scale="  114.126">  2  9  1 -1</clus>
<clus scale="  114.126">  2  5  1 -1</clus>
</clustering>
</event>
<event>
 9    2  0.1488992E-004  0.1022220E+03  0.7546771E-02  0.1280333E+00
          2   -1    0    0  502    0 -0.00000000000E+00  0.00000000000E+00  0.81999283456E+02  0.81999283456E+02  0.00000000000E+00 0. -1.
         21   -1    0    0  501  502  0.00000000000E+00 -0.00000000000E+00 -0.45755464677E+03  0.45755464677E+03  0.00000000000E+00 0. -1.
         24    2    1    2    0    0 -0.25257645435E+02 -0.43813222875E+02  0.38707869997E+02  0.10254626022E+03  0.80373435499E+02 0.  0.
         23    2    1    2    0    0 -0.48044999590E+01  0.34716153962E+02 -0.22230867428E+03  0.24250049280E+03  0.90316376066E+02 0.  0.
        -13    1    3    3    0    0 -0.30855379062E+02 -0.36521246269E+02 -0.13384662541E+02  0.49648817080E+02  0.00000000000E+00 0.  1.
         14    1    3    3    0    0  0.55977336275E+01 -0.72919766053E+01  0.52092532538E+02  0.52897443141E+02  0.00000000000E+00 0. -1.
        -11    1    4    4    0    0  0.28855107929E+02  0.35311238743E+02 -0.53182129540E+02  0.70055975745E+02  0.00000000000E+00 0.  1.
         11    1    4    4    0    0 -0.33659607888E+02 -0.59508478115E+00 -0.16912654474E+03  0.17244451706E+03  0.00000000000E+00 0. -1.
          1    1    1    2  501    0  0.30062145394E+02  0.90970689132E+01 -0.19195455903E+03  0.19450717720E+03  0.00000000000E+00 0. -1.
<scales pt_clust_5="13000.00000" pt_clust_6="13000.00000" pt_clust_7="13000.00000" pt_clust_8="13000.00000" pt_clust_9="31.40843"></scales>
<clustering>
<clus scale="   31.408">  2  9  1 -1</clus>
<clus scale="   80.373">  5  6 -1 -1</clus>
<clus scale="   90.316">  7  8 -1 -1</clus>
<clus scale="   93.553">  1  5  2 -1</clus>
<clus scale="   31.408">  2  5  1 -1</clus>
</clustering>
</event>
<event>
 9    2  0.1488992E-004  0.2188162E+03  0.7546771E-02  0.1135796E+00
          2   -1    0    0  502    0 -0.00000000000E+00  0.00000000000E+00  0.61188991884E+03  0.61188991884E+03  0.00000000000E+00 0. -1.
         21   -1    0    0  501  502  0.00000000000E+00 -0.00000000000E+00 -0.10383703034E+03  0.10383703034E+03  0.00000000000E+00 0. -1.
         23    2    1    2    0    0  0.12245228334E+03  0.17933699232E+03  0.37387241244E+03  0.44201639079E+03  0.91878128177E+02 0.  0.
         24    2    1    2    0    0 -0.10573633924E+03 -0.13009531825E+03  0.91118752298E+02  0.20619406185E+03  0.78156246429E+02 0.  0.
        -11    1    4    4    0    0 -0.60086468455E+01 -0.65989338014E+02  0.28686457823E+02  0.72205328272E+02  0.00000000000E+00 0.  1.
         12    1    4    4    0    0 -0.99727692397E+02 -0.64105980232E+02  0.62432294475E+02  0.13398873358E+03  0.00000000000E+00 0. -1.
        -11    1    3    3    0    0 -0.28203788412E+01  0.44623312455E+02  0.36375418639E+02  0.57639965583E+02  0.00000000000E+00 0.  1.
         11    1    3    3    0    0  0.12527266218E+03  0.13471367986E+03  0.33749699380E+03  0.38437642521E+03  0.00000000000E+00 0. -1.
          1    1    1    2  501    0 -0.16715944101E+02 -0.49241674069E+02  0.43061723759E+02  0.67516496543E+02  0.00000000000E+00 0. -1.
<scales pt_clust_5="13000.00000" pt_clust_6="13000.00000" pt_clust_7="13000.00000" pt_clust_8="13000.00000" pt_clust_9="52.00159"></scales>
<clustering>
<clus scale="   52.002">  2  9  1 -1</clus>
<clus scale="   78.156">  5  6 -1 -1</clus>
<clus scale="   91.878">  7  8 -1 -1</clus>
<clus scale="  213.418">  2  5  1 -1</clus>
<clus scale="   52.002">  2  5  1 -1</clus>
</clustering>
</event>
<event>
 9    2  0.1488992E-004  0.9941570E+02  0.7546771E-02  0.1287002E+00
          4   -1    0    0  502    0 -0.00000000000E+00  0.00000000000E+00  0.32234064613E+03  0.32234064613E+03  0.00000000000E+00 0. -1.
         21   -1    0    0  501  502  0.00000000000E+00 -0.00000000000E+00 -0.74489498217E+02  0.74489498217E+02  0.00000000000E+00 0. -1.
         24    2    1    2    0    0 -0.32567490121E+02  0.16520998945E+02  0.23428610525E+03  0.25023873501E+03  0.79974124364E+02 0.  0.
         23    2    1    2    0    0  0.56997522245E+02 -0.21460255144E+02  0.33859420164E+02  0.11444977777E+03  0.90791140564E+02 0.  0.
        -13    1    3    3    0    0  0.32903011589E+01 -0.23182545124E+02  0.25125565555E+02  0.34344585084E+02  0.00000000000E+00 0.  1.
         14    1    3    3    0    0 -0.35857791280E+02  0.39703544069E+02  0.20916053969E+03  0.21589414993E+03  0.00000000000E+00 0. -1.
        -11    1    4    4    0    0  0.81927913319E+02 -0.13613539674E+02  0.23267432025E+02  0.86248970060E+02  0.00000000000E+00 0. -1.
         11    1    4    4    0    0 -0.24930391074E+02 -0.78467154698E+01  0.10591988139E+02  0.28200807711E+02  0.00000000000E+00 0.  1.
          3    1    1    2  501    0 -0.24430032124E+02  0.49392561989E+01 -0.20294377503E+02  0.32141631564E+02  0.00000000000E+00 0. -1.
<scales pt_clust_5="13000.00000" pt_clust_6="13000.00000" pt_clust_7="13000.00000" pt_clust_8="13000.00000" pt_clust_9="24.92434"></scales>
<clustering>
<clus scale="   24.924">  2  9  1 -1</clus>
<clus scale="   79.974">  5  6 -1 -1</clus>
<clus scale="   89.645">  1  5  2 -1</clus>
<clus scale="   90.791">  7  8 -1 -1</clus>
<clus scale="   24.924">  2  5  1 -1</clus>
</clustering>
</event>
<event>
 9    2  0.1488992E-004  0.2745637E+03  0.7546771E-02  0.1098696E+00
         21   -1    0    0  501  502  0.00000000000E+00  0.00000000000E+00  0.23660472330E+03  0.23660472330E+03  0.00000000000E+00 0.  1.
          2   -1    0    0  502    0 -0.00000000000E+00 -0.00000000000E+00 -0.29118555235E+03  0.29118555235E+03  0.00000000000E+00 0. -1.
         24    2    1    2    0    0  0.13413258432E+03 -0.14552802543E+02  0.26660835246E+02  0.16141999837E+03  0.84512019857E+02 0.  0.
         23    2    1    2    0    0  0.54875080210E+02 -0.32767292288E+02  0.59124732110E+02  0.12623320420E+03  0.91400864461E+02 0.  0.
        -13    1    3    3    0    0  0.11899294061E+03 -0.85208703304E+01  0.52925000668E+02  0.13051046257E+03  0.00000000000E+00 0.  1.
         14    1    3    3    0    0  0.15139643713E+02 -0.60319322129E+01 -0.26264165422E+02  0.30909535799E+02  0.00000000000E+00 0. -1.
        -13    1    4    4    0    0 -0.59125173769E+01  0.19211498388E+02  0.38819879323E+02  0.43715244054E+02  0.00000000000E+00 0. -1.
         13    1    4    4    0    0  0.60787597587E+02 -0.51978790675E+02  0.20304852787E+02  0.82517960149E+02  0.00000000000E+00 0.  1.
          1    1    1    2  501    0 -0.18900766453E+03  0.47320094831E+02 -0.14036639640E+03  0.24013707307E+03  0.00000000000E+00 0. -1.
<scales pt_clust_5="13000.00000" pt_clust_6="13000.00000" pt_clust_7="13000.00000" pt_clust_8="13000.00000" pt_clust_9="194.84129"></scales>
<clustering>
<clus scale="   84.512">  5  6 -1 -1</clus>
<clus scale="   91.401">  7  8 -1 -1</clus>
<clus scale="  104.508">  5  7 -1 -1</clus>
<clus scale="  194.841">  1  9  2 -1</clus>
<clus scale="  194.841">  1  5  2 -1</clus>
</clustering>
</event>
<event>
 9    2  0.1488992E-004  0.8756943E+02  0.7546771E-02  0.1313618E+00
         21   -1    0    0  501  502  0.00000000000E+00  0.00000000000E+00  0.74004159564E+02  0.74004159564E+02  0.00000000000E+00 0.  1.
          2   -1    0    0  502    0 -0.00000000000E+00 -0.00000000000E+00 -0.35908553034E+03  0.35908553034E+03  0.00000000000E+00 0. -1.
         23    2    1    2    0    0  0.67486645684E+01 -0.17490658249E+02 -0.21040868436E+03  0.22824845558E+03  0.86452735172E+02 0.  0.
         24    2    1    2    0    0 -0.42593246149E+02 -0.53150933732E+02 -0.14548419606E+02  0.10539277529E+03  0.79099773677E+02 0.  0.
        -11    1    4    4    0    0 -0.48088946434E+02 -0.55420309153E+02  0.15303608937E+02  0.74954372002E+02  0.00000000000E+00 0.  1.
         12    1    4    4    0    0  0.54957002847E+01  0.22693754219E+01 -0.29852028543E+02  0.30438403285E+02  0.00000000000E+00 0. -1.
        -13    1    3    3    0    0 -0.60523700305E+01 -0.49332705014E+02 -0.15774136443E+03  0.16538647169E+03  0.00000000000E+00 0.  1.
         13    1    3    3    0    0  0.12801034599E+02  0.31842046765E+02 -0.52667319935E+02  0.62861983887E+02  0.00000000000E+00 0. -1.
          1    1    1    2  501    0  0.35844581581E+02  0.70641591980E+02 -0.60124266807E+02  0.99448459039E+02  0.00000000000E+00 0. -1.
<scales pt_clust_5="13000.00000" pt_clust_6="13000.00000" pt_clust_7="13000.00000" pt_clust_8="13000.00000" pt_clust_9="79.21533"></scales>
<clustering>
<clus scale="   79.100">  5  6 -1 -1</clus>
<clus scale="   79.215">  1  9  2 -1</clus>
<clus scale="   80.319">  1  5  2 -1</clus>
<clus scale="   86.453">  7  8 -1 -1</clus>
<clus scale="   79.215">  1  5  2 -1</clus>
</clustering>
</event>
<event>
 9    2  0.1488992E-004  0.2301565E+03  0.7546771E-02  0.1127128E+00
         21   -1    0    0  501  502  0.00000000000E+00  0.00000000000E+00  0.23270469196E+03  0.23270469196E+03  0.00000000000E+00 0.  1.
          2   -1    0    0  502    0 -0.00000000000E+00 -0.00000000000E+00 -0.69812020585E+03  0.69812020585E+03  0.00000000000E+00 0. -1.
         24    2    1    2    0    0  0.18171217419E+03  0.11195933631E+03 -0.55063130844E+03  0.59630582070E+03  0.82653413328E+02 0.  0.
         23    2    1    2    0    0 -0.17183650447E+03 -0.84655143229E+02  0.15239840636E+03  0.26133061393E+03  0.91510316223E+02 0.  0.
        -13    1    3    3    0    0  0.82825155857E+02  0.86456233844E+02 -0.22273581518E+03  0.25287532536E+03  0.00000000000E+00 0.  1.
         14    1    3    3    0    0  0.98887018334E+02  0.25503102466E+02 -0.32789549326E+03  0.34343049534E+03  0.00000000000E+00 0. -1.
        -13    1    4    4    0    0  0.25087892073E+01 -0.28288150597E+02  0.13737457809E+02  0.31547285692E+02  0.00000000000E+00 0. -1.
         13    1    4    4    0    0 -0.17434529367E+03 -0.56366992632E+02  0.13866094855E+03  0.22978332824E+03  0.00000000000E+00 0.  1.
          1    1    1    2  501    0 -0.98756697232E+01 -0.27304193081E+02 -0.67182611812E+02  0.73188463177E+02  0.00000000000E+00 0. -1.
<scales pt_clust_5="13000.00000" pt_clust_6="13000.00000" pt_clust_7="13000.00000" pt_clust_8="13000.00000" pt_clust_9="29.03530"></scales>
<clustering>
<clus scale="   29.035">  1  9  2 -1</clus>
<clus scale="   82.653">  5  6 -1 -1</clus>
<clus scale="   91.510">  7  8 -1 -1</clus>
<clus scale="  226.781">  2  5  1 -1</clus>
<clus scale="   29.035">  1  5  2 -1</clus>
</clustering>
</event>
<event>
 9    2  0.1488992E-004  0.1172790E+03  0.7546771E-02  0.1252840E+00
          2   -1    0    0  502    0 -0.00000000000E+00  0.00000000000E+00  0.11143271857E+04  0.11143271857E+04  0.00000000000E+00 0. -1.
         21   -1    0    0  501  502  0.00000000000E+00 -0.00000000000E+00 -0.28187597575E+02  0.28187597575E+02  0.00000000000E+00 0.  1.
         24    2    1    2    0    0 -0.58411193752E+02  0.83983872548E+02  0.37014467492E+03  0.39250758845E+03  0.81178619199E+02 0.  0.
         23    2    1    2    0    0  0.34695580618E+02 -0.36941815587E+01  0.17440139444E+03  0.20198127906E+03  0.95724398223E+02 0.  0.
        -13    1    3    3    0    0 -0.13111213573E+02  0.84031475553E+02  0.22980028318E+03  0.24503339151E+03  0.00000000000E+00 0.  1.
         14    1    3    3    0    0 -0.45299980179E+02 -0.47603004965E-01  0.14034439173E+03  0.14747419694E+03  0.00000000000E+00 0. -1.
        -11    1    4    4    0    0  0.24638877647E+02  0.23994154345E+02  0.16845385652E+03  0.17192875126E+03  0.00000000000E+00 0. -1.
         11    1    4    4    0    0  0.10056702971E+02 -0.27688335904E+02  0.59475379267E+01  0.30052527800E+02  0.00000000000E+00 0.  1.
          1    1    1    2  501    0  0.23715613134E+02 -0.80289690989E+02  0.54159351880E+03  0.54802591580E+03  0.00000000000E+00 0. -1.
<scales pt_clust_5="13000.00000" pt_clust_6="13000.00000" pt_clust_7="13000.00000" pt_clust_8="13000.00000" pt_clust_9="83.71900"></scales>
<clustering>
<clus scale="   81.179">  5  6 -1 -1</clus>
<clus scale="   83.719">  2  9  1 -1</clus>
<clus scale="   95.724">  7  8 -1 -1</clus>
<clus scale="  105.741">  1  5  2 -1</clus>
<clus scale="   83.719">  2  5  1 -1</clus>
</clustering>
</event>
<event>
 9    2  0.1488992E-004  0.3079102E+03  0.7546771E-02  0.1081728E+00
         21   -1    0    0  501  502  0.00000000000E+00  0.00000000000E+00  0.56103511090E+02  0.56103511090E+02  0.00000000000E+00 0.  1.
          2   -1    0    0  502    0 -0.00000000000E+00 -0.00000000000E+00 -0.22304436858E+04  0.22304436858E+04  0.00000000000E+00 0. -1.
         23    2    1    2    0    0 -0.23049587164E+03 -0.15564641314E+03 -0.11884605293E+04  0.12240171410E+04  0.91789863796E+02 0.  0.
         24    2    1    2    0    0  0.26999136395E+03  0.18241405083E+03 -0.74754168292E+03  0.81946342979E+03  0.80817835342E+02 0.  0.
        -11    1    4    4    0    0  0.10637314733E+03  0.11235502691E+03 -0.40264384337E+03  0.43134784473E+03  0.00000000000E+00 0.  1.
         12    1    4    4    0    0  0.16361821662E+03  0.70059023915E+02 -0.34489783955E+03  0.38811558506E+03  0.00000000000E+00 0. -1.
        -13    1    3    3    0    0 -0.31141618804E+02 -0.53753546521E+02 -0.16384566543E+03  0.17522741300E+03  0.00000000000E+00 0.  1.
         13    1    3    3    0    0 -0.19935425284E+03 -0.10189286662E+03 -0.10246148638E+04  0.10487897280E+04  0.00000000000E+00 0. -1.
          1    1    1    2  501    0 -0.39495492307E+02 -0.26767637685E+02 -0.23833796249E+03  0.24306662605E+03  0.00000000000E+00 0. -1.
<scales pt_clust_5="13000.00000" pt_clust_6="13000.00000" pt_clust_7="13000.00000" pt_clust_8="13000.00000" pt_clust_9="47.71166"></scales>
<clustering>
<clus scale="   47.712">  1  9  2 -1</clus>
<clus scale="   80.818">  5  6 -1 -1</clus>
<clus scale="   91.790">  7  8 -1 -1</clus>
<clus scale="  304.819">  1  5  2 -1</clus>
<clus scale="   47.712">  1  5  2 -1</clus>
</clustering>
</event>
<event>
 9    2  0.1488992E-004  0.1143010E+03  0.7546771E-02  0.1256495E+00
         -1   -1    0    0    0  501 -0.00000000000E+00  0.00000000000E+00  0.49802779768E+03  0.49802779768E+03  0.00000000000E+00 0.  1.
         21   -1    0    0  501  502  0.00000000000E+00 -0.00000000000E+00 -0.46510052751E+02  0.46510052751E+02  0.00000000000E+00 0.  1.
         23    2    1    2    0    0  0.75663980419E+02  0.10495070913E+02  0.32002387120E+03  0.34162527945E+03  0.91963954757E+02 0.  0.
         24    2    1    2    0    0 -0.40295953326E+02 -0.15441948431E+02  0.32986587124E+02  0.98131587727E+02  0.81728060995E+02 0.  0.
        -11    1    4    4    0    0 -0.60630687298E+02  0.79154221311E+01  0.25639156947E+02  0.66303095845E+02  0.00000000000E+00 0.  1.
         12    1    4    4    0    0  0.20334733972E+02 -0.23357370562E+02  0.73474301779E+01  0.31828491882E+02  0.00000000000E+00 0. -1.
        -13    1    3    3    0    0  0.31776920282E+02 -0.40066749549E+02  0.11271398239E+03  0.12377220572E+03  0.00000000000E+00 0.  1.
         13    1    3    3    0    0  0.43887060137E+02  0.50561820462E+02  0.20730988881E+03  0.21785307373E+03  0.00000000000E+00 0. -1.
         -2    1    1    2    0  502 -0.35368027093E+02  0.49468775180E+01  0.98507286602E+02  0.10478098325E+03  0.00000000000E+00 0.  1.
<scales pt_clust_5="13000.00000" pt_clust_6="13000.00000" pt_clust_7="13000.00000" pt_clust_8="13000.00000" pt_clust_9="35.71233"></scales>
<clustering>
<clus scale="   35.712">  2  9  1 -1</clus>
<clus scale="   81.728">  5  6 -1 -1</clus>
<clus scale="   91.964">  7  8 -1 -1</clus>
<clus scale="  106.239">  2  5  1 -1</clus>
<clus scale="   35.712">  2  5  1 -1</clus>
</clustering>
</event>
<event>
 9    2  0.1488992E-004  0.1239117E+03  0.7546771E-02  0.1246258E+00
         21   -1    0    0  501  502  0.00000000000E+00  0.00000000000E+00  0.12825364629E+03  0.12825364629E+03  0.00000000000E+00 0.  1.
          2   -1    0    0  502    0 -0.00000000000E+00 -0.00000000000E+00 -0.21471911513E+03  0.21471911513E+03  0.00000000000E+00 0. -1.
         24    2    1    2    0    0  0.46407026968E+02 -0.53919352675E+02 -0.10891970947E+03  0.15274358037E+03  0.80038674954E+02 0.  0.
         23    2    1    2    0    0 -0.39156916425E+02  0.63044395813E+01  0.60738394539E+02  0.12870341009E+03  0.10631277033E+03 0.  0.
        -11    1    3    3    0    0  0.19626272573E+02  0.17335721894E+02 -0.50150116075E+02  0.56575188652E+02  0.00000000000E+00 0.  1.
         12    1    3    3    0    0  0.26780754395E+02 -0.71255074569E+02 -0.58769593390E+02  0.96168391715E+02  0.00000000000E+00 0. -1.
        -11    1    4    4    0    0 -0.67844694793E+02 -0.16086588058E+02  0.60494988613E+02  0.92311020870E+02  0.00000000000E+00 0.  1.
         11    1    4    4    0    0  0.28687778368E+02  0.22391027639E+02  0.24340592606E+00  0.36392389216E+02  0.00000000000E+00 0. -1.
          1    1    1    2  501    0 -0.72501105437E+01  0.47614913093E+02 -0.38284153913E+02  0.61525770963E+02  0.00000000000E+00 0. -1.
<scales pt_clust_5="13000.00000" pt_clust_6="13000.00000" pt_clust_7="13000.00000" pt_clust_8="13000.00000" pt_clust_9="48.16375"></scales>
<clustering>
<clus scale="   48.164">  1  9  2 -1</clus>
<clus scale="   80.039">  5  6 -1 -1</clus>
<clus scale="  102.264">  2  5  1 -1</clus>
<clus scale="  106.313">  7  8 -1 -1</clus>
<clus scale="   48.164">  1  5  2 -1</clus>
</clustering>
</event>
<event>
 9    2  0.1488992E-004  0.8905682E+02  0.7546771E-02  0.1309341E+00
          2   -1    0    0  502    0 -0.00000000000E+00  0.00000000000E+00  0.20929390923E+03  0.20929390923E+03  0.00000000000E+00 0. -1.
         21   -1    0    0  501  502  0.00000000000E+00 -0.00000000000E+00 -0.81382201954E+02  0.81382201954E+02  0.00000000000E+00 0. -1.
         23    2    1    2    0    0 -0.20315858556E+02  0.39237085373E+01  0.15206896797E+03  0.17674987985E+03  0.87677929999E+02 0.  0.
         24    2    1    2    0    0 -0.84731142771E+01 -0.90601323533E+01 -0.20201160538E+02  0.84416257859E+02  0.81019368301E+02 0.  0.
        -13    1    4    4    0    0  0.34175769757E+02 -0.56026693809E+01  0.46367378630E+01  0.34940985686E+02  0.00000000000E+00 0.  1.
         14    1    4    4    0    0 -0.42648884034E+02 -0.34574629723E+01 -0.24837898401E+02  0.49475272173E+02  0.00000000000E+00 0. -1.
        -11    1    3    3    0    0  0.19706597524E+02 -0.15258335250E+02  0.82727337495E+01  0.26260329477E+02  0.00000000000E+00 0.  1.
         11    1    3    3    0    0 -0.40022456080E+02  0.19182043787E+02  0.14379623422E+03  0.15048955037E+03  0.00000000000E+00 0. -1.
          1    1    1    2  501    0  0.28788972834E+02  0.51364238160E+01 -0.39561001532E+01  0.29509973481E+02  0.00000000000E+00 0. -1.
<scales pt_clust_5="13000.00000" pt_clust_6="13000.00000" pt_clust_7="13000.00000" pt_clust_8="13000.00000" pt_clust_9="29.24359"></scales>
<clustering>
<clus scale="   29.244">  2  9  1 -1</clus>
<clus scale="   81.019">  5  6 -1 -1</clus>
<clus scale="   82.510">  2  5  1 -1</clus>
<clus scale="   87.678">  7  8 -1 -1</clus>
<clus scale="   29.244">  2  5  1 -1</clus>
</clustering>
</event>
<event>
 9    2  0.1488992E-004  0.1900503E+03  0.7546771E-02  0.1159937E+00
          2   -1    0    0  502    0 -0.00000000000E+00  0.00000000000E+00  0.10194010507E+04  0.10194010507E+04  0.00000000000E+00 0. -1.
         21   -1    0    0  501  502  0.00000000000E+00 -0.00000000000E+00 -0.60379961338E+02  0.60379961338E+02  0.00000000000E+00 0.  1.
         23    2    1    2    0    0  0.66932060897E+02  0.13704338344E+03  0.55229935329E+03  0.58017553707E+03  0.91149813186E+02 0.  0.
         24    2    1    2    0    0 -0.10776618291E+03 -0.16110976725E+03  0.40096181477E+03  0.45185829655E+03  0.76391334459E+02 0.  0.
        -11    1    4    4    0    0 -0.89126826274E+02 -0.81744936975E+02  0.18500917650E+03  0.22102991036E+03  0.00000000000E+00 0.  1.
         12    1    4    4    0    0 -0.18639356640E+02 -0.79364830278E+02  0.21595263827E+03  0.23082838620E+03  0.00000000000E+00 0. -1.
        -11    1    3    3    0    0 -0.19880941587E+02  0.17600085034E+02  0.13331322373E+03  0.13593171247E+03  0.00000000000E+00 0.  1.
         11    1    3    3    0    0  0.86813002484E+02  0.11944329840E+03  0.41898612956E+03  0.44424382460E+03  0.00000000000E+00 0. -1.
          1    1    1    2  501    0  0.40834122017E+02  0.24066383816E+02  0.57599212744E+01  0.47747178388E+02  0.00000000000E+00 0. -1.
<scales pt_clust_5="13000.00000" pt_clust_6="13000.00000" pt_clust_7="13000.00000" pt_clust_8="13000.00000" pt_clust_9="47.39848"></scales>
<clustering>
<clus scale="   47.398">  2  9  1 -1</clus>
<clus scale="   76.391">  5  6 -1 -1</clus>
<clus scale="   91.150">  7  8 -1 -1</clus>
<clus scale="  183.430">  2  5  1 -1</clus>
<clus scale="   47.398">  2  5  1 -1</clus>
</clustering>
</event>
<event>
 9    2  0.1488992E-004  0.9746071E+02  0.7546771E-02  0.1286043E+00
         21   -1    0    0  501  502  0.00000000000E+00  0.00000000000E+00  0.24736246868E+03  0.24736246868E+03  0.00000000000E+00 0. -1.
          4   -1    0    0  502    0 -0.00000000000E+00 -0.00000000000E+00 -0.10961436571E+03  0.10961436571E+03  0.00000000000E+00 0. -1.
         24    2    1    2    0    0 -0.18907729638E+02 -0.32178755107E+01 -0.33928801397E+02  0.10057792782E+03  0.92719464182E+02 0.  0.
         23    2    1    2    0    0  0.81139743016E+02  0.13674109580E+02  0.13675916057E+03  0.18427813874E+03  0.92112568360E+02 0.  0.
        -11    1    3    3    0    0  0.20320617724E+02  0.56107894415E+01 -0.52286253655E+02  0.56376065703E+02  0.00000000000E+00 0.  1.
         12    1    3    3    0    0 -0.39228347362E+02 -0.88286649522E+01  0.18357452258E+02  0.44201862121E+02  0.00000000000E+00 0. -1.
        -11    1    4    4    0    0  0.29916470539E+02 -0.31198110350E+02  0.16871672565E+02  0.46400114591E+02  0.00000000000E+00 0.  1.
         11    1    4    4    0    0  0.51223272477E+02  0.44872219930E+02  0.11988748800E+03  0.13787802415E+03  0.00000000000E+00 0. -1.
          3    1    1    2  501    0 -0.62232013378E+02 -0.10456234069E+02  0.34917743794E+02  0.72120767825E+02  0.00000000000E+00 0. -1.
<scales pt_clust_5="13000.00000" pt_clust_6="13000.00000" pt_clust_7="13000.00000" pt_clust_8="13000.00000" pt_clust_9="63.10433"></scales>
<clustering>
<clus scale="   63.104">  1  9  2 -1</clus>
<clus scale="   92.113">  7  8 -1 -1</clus>
<clus scale="   92.719">  5  6 -1 -1</clus>
<clus scale="   96.884">  1  7  2 -1</clus>
<clus scale="   63.104">  1  5  2 -1</clus>
</clustering>
</event>
<event>
 9    2  0.1488992E-004  0.1377711E+03  0.7546771E-02  0.1233610E+00
         21   -1    0    0  501  502  0.00000000000E+00  0.00000000000E+00  0.15620247580E+03  0.15620247580E+03  0.00000000000E+00 0. -1.
          2   -1    0    0  502    0 -0.00000000000E+00 -0.00000000000E+00 -0.42944477662E+03  0.42944477662E+03  0.00000000000E+00 0. -1.
         24    2    1    2    0    0 -0.33397565100E+02 -0.19620745966E+02 -0.31370128905E+03  0.32811894300E+03  0.88052092423E+02 0.  0.
         23    2    1    2    0    0  0.42079625805E+02 -0.87673177798E+02 -0.18746090839E+02  0.13467634303E+03  0.91263467160E+02 0.  0.
        -11    1    3    3    0    0 -0.37547658710E+02  0.19411494525E+02 -0.73966600914E+02  0.85192082056E+02  0.00000000000E+00 0.  1.
         12    1    3    3    0    0  0.41500936100E+01 -0.39032240491E+02 -0.23973468813E+03  0.24292686095E+03  0.00000000000E+00 0. -1.
        -11    1    4    4    0    0  0.61714760982E+02 -0.62673442796E+02  0.13968825181E+02  0.89060654792E+02  0.00000000000E+00 0.  1.
         11    1    4    4    0    0 -0.19635135177E+02 -0.24999735003E+02 -0.32714916020E+02  0.45615688243E+02  0.00000000000E+00 0. -1.
          1    1    1    2  501    0 -0.86820607049E+01  0.10729392376E+03  0.59205079074E+02  0.12285196638E+03  0.00000000000E+00 0. -1.
<scales pt_clust_5="13000.00000" pt_clust_6="13000.00000" pt_clust_7="13000.00000" pt_clust_8="13000.00000" pt_clust_9="103.20789"></scales>
<clustering>
<clus scale="   88.052">  5  6 -1 -1</clus>
<clus scale="   91.263">  7  8 -1 -1</clus>
<clus scale="   96.195">  2  5  1 -1</clus>
<clus scale="  103.208">  1  9  2 -1</clus>
<clus scale="  103.208">  1  5  2 -1</clus>
</clustering>
</event>
<event>
 9    2  0.1488992E-004  0.1442938E+03  0.7546771E-02  0.1230761E+00
          2   -1    0    0  502    0 -0.00000000000E+00  0.00000000000E+00  0.65395746688E+03  0.65395746688E+03  0.00000000000E+00 0. -1.
         21   -1    0    0  501  502  0.00000000000E+00 -0.00000000000E+00 -0.10468012638E+03  0.10468012638E+03  0.00000000000E+00 0.  1.
         23    2    1    2    0    0  0.13235301282E+01  0.37005916542E+01  0.10912748433E+03  0.14068359065E+03  0.88699598267E+02 0.  0.
         24    2    1    2    0    0  0.80356399325E+00 -0.11915667669E+03 -0.17724049889E+02  0.14574309003E+03  0.82024063740E+02 0.  0.
        -13    1    4    4    0    0  0.22255893373E+02 -0.12104611459E+03 -0.16456276565E+02  0.12417043000E+03  0.00000000000E+00 0.  1.
         14    1    4    4    0    0 -0.21452329380E+02  0.18894379086E+01 -0.12677733244E+01  0.21572660027E+02  0.00000000000E+00 0. -1.
        -13    1    3    3    0    0  0.19683142056E+02 -0.21628316385E+02  0.10515933284E+03  0.10914987602E+03  0.00000000000E+00 0. -1.
         13    1    3    3    0    0 -0.18359611928E+02  0.25328908039E+02  0.39681514879E+01  0.31533714637E+02  0.00000000000E+00 0.  1.
          1    1    1    2  501    0 -0.21270941215E+01  0.11545608503E+03  0.45787390606E+03  0.47221091257E+03  0.00000000000E+00 0. -1.
<scales pt_clust_5="13000.00000" pt_clust_6="13000.00000" pt_clust_7="13000.00000" pt_clust_8="13000.00000" pt_clust_9="118.71292"></scales>
<clustering>
<clus scale="   82.024">  5  6 -1 -1</clus>
<clus scale="   88.700">  7  8 -1 -1</clus>
<clus scale="   88.787">  1  7  2 -1</clus>
<clus scale="  118.713">  2  9  1 -1</clus>
<clus scale="  118.713">  2  5  1 -1</clus>
</clustering>
</event>
<event>
 9    2  0.1488992E-004  0.8957337E+02  0.7546771E-02  0.1309957E+00
          2   -1    0    0  502    0 -0.00000000000E+00  0.00000000000E+00  0.33849547341E+03  0.33849547341E+03  0.00000000000E+00 0. -1.
         21   -1    0    0  501  502  0.00000000000E+00 -0.00000000000E+00 -0.84044819478E+02  0.84044819478E+02  0.00000000000E+00 0.  1.
         23    2    1    2    0    0 -0.96528153685E+01 -0.24716824400E+01  0.25201083872E+03  0.26754577749E+03  0.89286024430E+02 0.  0.
         24    2    1    2    0    0 -0.92774328377E+01 -0.29049845177E+02  0.46730709343E+02  0.97430253017E+02  0.79868208584E+02 0.  0.
        -11    1    4    4    0    0 -0.11624409671E+01 -0.55224571834E+02  0.42515416199E+02  0.69704126261E+02  0.00000000000E+00 0.  1.
         12    1    4    4    0    0 -0.81149918706E+01  0.26174726657E+02  0.42152931438E+01  0.27726126756E+02  0.00000000000E+00 0. -1.
        -13    1    3    3    0    0  0.38926742657E+02 -0.47722924732E+01  0.85258917194E+02  0.93846411921E+02  0.00000000000E+00 0.  1.
         13    1    3    3    0    0 -0.48579558025E+02  0.23006100332E+01  0.16675192153E+03  0.17369936556E+03  0.00000000000E+00 0. -1.
          1    1    1    2  501    0  0.18930248206E+02  0.31521527617E+02 -0.44290894135E+02  0.57564262383E+02  0.00000000000E+00 0. -1.
<scales pt_clust_5="13000.00000" pt_clust_6="13000.00000" pt_clust_7="13000.00000" pt_clust_8="13000.00000" pt_clust_9="36.76902"></scales>
<clustering>
<clus scale="   36.769">  2  9  1 -1</clus>
<clus scale="   79.868">  5  6 -1 -1</clus>
<clus scale="   80.189">  2  5  1 -1</clus>
<clus scale="   89.286">  7  8 -1 -1</clus>
<clus scale="   36.769">  2  5  1 -1</clus>
</clustering>
</event>
<event>
 9    2  0.1488992E-004  0.9717801E+02  0.7546771E-02  0.1292038E+00
         21   -1    0    0  501  502  0.00000000000E+00  0.00000000000E+00  0.35595266705E+03  0.35595266705E+03  0.00000000000E+00 0.  1.
          2   -1    0    0  502    0 -0.00000000000E+00 -0.00000000000E+00 -0.12122747535E+03  0.12122747535E+03  0.00000000000E+00 0. -1.
         23    2    1    2    0    0 -0.72531221829E+01 -0.43321990592E+02 -0.71824560450E+02  0.12340095794E+03  0.90219877446E+02 0.  0.
         24    2    1    2    0    0 -0.48085457161E+02 -0.16777303322E+02  0.17716373603E+03  0.20075949728E+03  0.79521678115E+02 0.  0.
        -13    1    4    4    0    0 -0.68097876207E+02 -0.12932140231E+02  0.15903648621E+03  0.17348534503E+03  0.00000000000E+00 0.  1.
         14    1    4    4    0    0  0.20012419046E+02 -0.38451630908E+01  0.18127249820E+02  0.27274152256E+02  0.00000000000E+00 0. -1.
        -13    1    3    3    0    0  0.18085886676E+02  0.22860827291E+02 -0.25556799467E+02  0.38766824996E+02  0.00000000000E+00 0.  1.
         13    1    3    3    0    0 -0.25339008859E+02 -0.66182817882E+02 -0.46267760982E+02  0.84634132944E+02  0.00000000000E+00 0. -1.
          1    1    1    2  501    0  0.55338579344E+02  0.60099293913E+02  0.12938601612E+03  0.15301968717E+03  0.00000000000E+00 0. -1.
<scales pt_clust_5="13000.00000" pt_clust_6="13000.00000" pt_clust_7="13000.00000" pt_clust_8="13000.00000" pt_clust_9="81.69629"></scales>
<clustering>
<clus scale="   79.522">  5  6 -1 -1</clus>
<clus scale="   81.696">  1  9  2 -1</clus>
<clus scale="   87.336">  1  5  2 -1</clus>
<clus scale="   90.220">  7  8 -1 -1</clus>
<clus scale="   81.696">  1  5  2 -1</clus>
</clustering>
</event>
<event>
 9    2  0.1488992E-004  0.9080363E+02  0.7546771E-02  0.1306669E+00
         21   -1    0    0  501  502  0.00000000000E+00  0.00000000000E+00  0.68196635341E+02  0.68196635341E+02  0.00000000000E+00 0. -1.
          2   -1    0    0  502    0 -0.00000000000E+00 -0.00000000000E+00 -0.27683322820E+03  0.27683322820E+03  0.00000000000E+00 0. -1.
         23    2    1    2    0    0 -0.32839508691E+02 -0.12969798132E+02 -0.12626906492E+03  0.15924199529E+03  0.90374151798E+02 0.  0.
         24    2    1    2    0    0 -0.23918612823E+02 -0.26368600156E+02 -0.75332028368E+02  0.11637250834E+03  0.81241880121E+02 0.  0.
        -13    1    4    4    0    0 -0.24181221275E+02  0.21953185701E+02 -0.54958868706E+02  0.63930830389E+02  0.00000000000E+00 0.  1.
         14    1    4    4    0    0  0.26260845247E+00 -0.48321785857E+02 -0.20373159662E+02  0.52441677951E+02  0.00000000000E+00 0. -1.
        -11    1    3    3    0    0  0.19023154261E+02 -0.35411883348E+02 -0.58908715980E+02  0.71317029514E+02  0.00000000000E+00 0.  1.
         11    1    3    3    0    0 -0.51862662951E+02  0.22442085215E+02 -0.67360348944E+02  0.87924965778E+02  0.00000000000E+00 0. -1.
          1    1    1    2  501    0  0.56758121513E+02  0.39338398288E+02 -0.70354995708E+01  0.69415359913E+02  0.00000000000E+00 0. -1.
<scales pt_clust_5="13000.00000" pt_clust_6="13000.00000" pt_clust_7="13000.00000" pt_clust_8="13000.00000" pt_clust_9="69.05790"></scales>
<clustering>
<clus scale="   69.058">  1  9  2 -1</clus>
<clus scale="   81.242">  5  6 -1 -1</clus>
<clus scale="   81.719">  1  5  2 -1</clus>
<clus scale="   90.374">  7  8 -1 -1</clus>
<clus scale="   69.058">  1  5  2 -1</clus>
</clustering>
</event>
<event>
 9    2  0.1488992E-004  0.9710625E+02  0.7546771E-02  0.1293385E+00
          2   -1    0    0  502    0 -0.00000000000E+00  0.00000000000E+00  0.42848719346E+03  0.42848719346E+03  0.00000000000E+00 0. -1.
         21   -1    0    0  501  502  0.00000000000E+00 -0.00000000000E+00 -0.47957356682E+02  0.47957356682E+02  0.00000000000E+00 0.  1.
         24    2    1    2    0    0  0.84806351293E+01 -0.43670215311E+02  0.21820617002E+03  0.23656344480E+03  0.79808031572E+02 0.  0.
         23    2    1    2    0    0 -0.83609956129E+01 -0.20022502205E+02  0.41856367679E+02  0.10361244891E+03  0.92264712713E+02 0.  0.
        -13    1    3    3    0    0 -0.14843237732E+02 -0.48778897994E+02  0.70872488285E+02  0.87307572361E+02  0.00000000000E+00 0.  1.
         14    1    3    3    0    0  0.23323872862E+02  0.51086826828E+01  0.14733368173E+03  0.14925587244E+03  0.00000000000E+00 0. -1.
        -13    1    4    4    0    0 -0.58397791976E+01 -0.57182859620E+02  0.23658468306E+02  0.62158712808E+02  0.00000000000E+00 0.  1.
         13    1    4    4    0    0 -0.25212164152E+01  0.37160357414E+02  0.18197899374E+02  0.41453736104E+02  0.00000000000E+00 0. -1.
          1    1    1    2  501    0 -0.11963951644E+00  0.63692717516E+02  0.12046729908E+03  0.13626865644E+03  0.00000000000E+00 0. -1.
<scales pt_clust_5="13000.00000" pt_clust_6="13000.00000" pt_clust_7="13000.00000" pt_clust_8="13000.00000" pt_clust_9="63.69286"></scales>
<clustering>
<clus scale="   63.693">  2  9  1 -1</clus>
<clus scale="   79.808">  5  6 -1 -1</clus>
<clus scale="   85.359">  1  5  2 -1</clus>
<clus scale="   92.265">  7  8 -1 -1</clus>
<clus scale="   63.693">  2  5  1 -1</clus>
</clustering>
</event>
<event>
 9    2  0.1488992E-004  0.9645163E+02  0.7546771E-02  0.1293593E+00
          2   -1    0    0  502    0 -0.00000000000E+00  0.00000000000E+00  0.86988540144E+03  0.86988540144E+03  0.00000000000E+00 0. -1.
         21   -1    0    0  501  502  0.00000000000E+00 -0.00000000000E+00 -0.11214356349E+03  0.11214356349E+03  0.00000000000E+00 0. -1.
         24    2    1    2    0    0 -0.27525743757E+02  0.12517235108E+02  0.55599202883E+03  0.56262273542E+03  0.80640303523E+02 0.  0.
         23    2    1    2    0    0  0.42183365921E+02  0.15049118647E+02  0.29981096073E+03  0.31649491233E+03  0.90975299009E+02 0.  0.
        -11    1    3    3    0    0 -0.30305567016E+02  0.12245243686E+02  0.77350417595E+02  0.83972974743E+02  0.00000000000E+00 0.  1.
         12    1    3    3    0    0  0.27798232594E+01  0.27199142191E+00  0.47864161123E+03  0.47864976068E+03  0.00000000000E+00 0. -1.
        -11    1    4    4    0    0  0.64267810051E+02  0.64304202780E+01  0.27374226372E+03  0.28125882859E+03  0.00000000000E+00 0.  1.
         11    1    4    4    0    0 -0.22084444129E+02  0.86186983689E+01  0.26068697009E+02  0.35236083747E+02  0.00000000000E+00 0. -1.
          1    1    1    2  501    0 -0.14657622165E+02 -0.27566353755E+02 -0.98061151611E+02  0.10291131717E+03  0.00000000000E+00 0. -1.
<scales pt_clust_5="13000.00000" pt_clust_6="13000.00000" pt_clust_7="13000.00000" pt_clust_8="13000.00000" pt_clust_9="31.22098"></scales>
<clustering>
<clus scale="   31.221">  2  9  1 -1</clus>
<clus scale="   80.640">  5  6 -1 -1</clus>
<clus scale="   86.771">  1  5  2 -1</clus>
<clus scale="   90.975">  7  8 -1 -1</clus>
<clus scale="   31.221">  2  5  1 -1</clus>
</clustering>
</event>
<event>
 9    2  0.1488992E-004  0.1400488E+03  0.7546771E-02  0.1229224E+00
         21   -1    0    0  501  502  0.00000000000E+00  0.00000000000E+00  0.83348308673E+02  0.83348308673E+02  0.00000000000E+00 0.  1.
          2   -1    0    0  502    0 -0.00000000000E+00 -0.00000000000E+00 -0.46276091354E+03  0.46276091354E+03  0.00000000000E+00 0. -1.
         23    2    1    2    0    0  0.27173415802E+02  0.26328038016E+02 -0.19368086846E+03  0.21808256661E+03  0.92823310314E+02 0.  0.
         24    2    1    2    0    0 -0.46143401829E+02  0.91026111475E+02 -0.15883172248E+03  0.20614364809E+03  0.82781163796E+02 0.  0.
        -11    1    4    4    0    0 -0.49026847747E+02  0.10550599590E+03 -0.13623412243E+03  0.17915044818E+03  0.00000000000E+00 0.  1.
         12    1    4    4    0    0  0.28834459183E+01 -0.14479884420E+02 -0.22597600056E+02  0.26993199912E+02  0.00000000000E+00 0. -1.
        -13    1    3    3    0    0 -0.19782694472E+02  0.27638627800E+02 -0.15045460423E+03  0.15424602646E+03  0.00000000000E+00 0. -1.
         13    1    3    3    0    0  0.46956110274E+02 -0.13105897834E+01 -0.43226264235E+02  0.63836540142E+02  0.00000000000E+00 0.  1.
          1    1    1    2  501    0  0.18969986026E+02 -0.11735414949E+03 -0.26900013929E+02  0.12188300752E+03  0.00000000000E+00 0. -1.
<scales pt_clust_5="13000.00000" pt_clust_6="13000.00000" pt_clust_7="13000.00000" pt_clust_8="13000.00000" pt_clust_9="112.96433"></scales>
<clustering>
<clus scale="   82.781">  5  6 -1 -1</clus>
<clus scale="   92.823">  7  8 -1 -1</clus>
<clus scale="  100.238">  2  7  1 -1</clus>
<clus scale="  112.964">  1  9  2 -1</clus>
<clus scale="  112.964">  1  5  2 -1</clus>
</clustering>
</event>
<event>
 9    2  0.1488992E-004  0.1330312E+03  0.7546771E-02  0.1224271E+00
          2   -1    0    0  502    0 -0.00000000000E+00  0.00000000000E+00  0.80044626524E+03  0.80044626524E+03  0.00000000000E+00 0. -1.
         21   -1    0    0  501  502  0.00000000000E+00 -0.00000000000E+00 -0.31718949842E+02  0.31718949842E+02  0.00000000000E+00 0. -1.
         23    2    1    2    0    0 -0.14466076959E+01  0.90943150898E+02  0.28461787801E+03  0.31182723115E+03  0.89197176154E+02 0.  0.
         24    2    1    2    0    0 -0.47427547632E+02 -0.10138036297E+03  0.33434301951E+03  0.36245322096E+03  0.84022213853E+02 0.  0.
        -13    1    4    4    0    0  0.75187854914E+01 -0.61196437183E+02  0.92141873099E+02  0.11086776284E+03  0.00000000000E+00 0.  1.
         14    1    4    4    0    0 -0.54946333123E+02 -0.40183925784E+02  0.24220114641E+03  0.25158545812E+03  0.00000000000E+00 0. -1.
        -13    1    3    3    0    0  0.40148208590E+02  0.30198025564E+02  0.15276075330E+03  0.16080935032E+03  0.00000000000E+00 0.  1.
         13    1    3    3    0    0 -0.41594816286E+02  0.60745125334E+02  0.13185712471E+03  0.15101788083E+03  0.00000000000E+00 0. -1.
          1    1    1    2  501    0  0.48874155328E+02  0.10437212070E+02  0.14976641788E+03  0.15788476297E+03  0.00000000000E+00 0. -1.
<scales pt_clust_5="13000.00000" pt_clust_6="13000.00000" pt_clust_7="13000.00000" pt_clust_8="13000.00000" pt_clust_9="49.97620"></scales>
<clustering>
<clus scale="   49.976">  2  9  1 -1</clus>
<clus scale="   84.022">  5  6 -1 -1</clus>
<clus scale="   89.197">  7  8 -1 -1</clus>
<clus scale="  129.618">  2  5  1 -1</clus>
<clus scale="   49.976">  2  5  1 -1</clus>
</clustering>
</event>
<event>
 9    2  0.1488992E-004  0.1516476E+03  0.7546771E-02  0.1204678E+00
         21   -1    0    0  501  502  0.00000000000E+00  0.00000000000E+00  0.11273979660E+03  0.11273979660E+03  0.00000000000E+00 0.  1.
          2   -1    0    0  502    0 -0.00000000000E+00 -0.00000000000E+00 -0.46011610922E+03  0.46011610922E+03  0.00000000000E+00 0. -1.
         23    2    1    2    0    0  0.74530407992E+01 -0.10750509476E+03 -0.36928878851E+03  0.39985763213E+03  0.10908264497E+03 0.  0.
         24    2    1    2    0    0  0.13779840906E+02  0.97280014245E+02 -0.16383375112E+02  0.12803206703E+03  0.80439480481E+02 0.  0.
        -11    1    4    4    0    0  0.31737511340E+02  0.84480812570E+02  0.13123876567E+02  0.91194920115E+02  0.00000000000E+00 0.  1.
         12    1    4    4    0    0 -0.17957670434E+02  0.12799201674E+02 -0.29507251679E+02  0.36837146911E+02  0.00000000000E+00 0. -1.
        -11    1    3    3    0    0 -0.32811176824E+02 -0.87888067056E+02 -0.15697996070E+03  0.18287589703E+03  0.00000000000E+00 0.  1.
         11    1    3    3    0    0  0.40264217623E+02 -0.19617027706E+02 -0.21230882782E+03  0.21698173510E+03  0.00000000000E+00 0. -1.
          1    1    1    2  501    0 -0.21232881705E+02  0.10225080517E+02  0.38295851012E+02  0.44966206665E+02  0.00000000000E+00 0. -1.
<scales pt_clust_5="13000.00000" pt_clust_6="13000.00000" pt_clust_7="13000.00000" pt_clust_8="13000.00000" pt_clust_9="23.56666"></scales>
<clustering>
<clus scale="   23.567">  1  9  2 -1</clus>
<clus scale="   80.439">  5  6 -1 -1</clus>
<clus scale="  109.083">  7  8 -1 -1</clus>
<clus scale="  132.546">  1  5  2 -1</clus>
<clus scale="   23.567">  1  5  2 -1</clus>
</clustering>
</event>
<event>
 9    2  0.1488992E-004  0.2134952E+03  0.7546771E-02  0.1138970E+00
          2   -1    0    0  502    0 -0.00000000000E+00  0.00000000000E+00  0.17655321634E+04  0.17655321634E+04  0.00000000000E+00 0. -1.
         21   -1    0    0  501  502  0.00000000000E+00 -0.00000000000E+00 -0.89237481001E+02  0.89237481001E+02  0.00000000000E+00 0. -1.
         23    2    1    2    0    0 -0.16478185630E+03 -0.14836581318E+03  0.87337832796E+03  0.90565001579E+03  0.90811743025E+02 0.  0.
         24    2    1    2    0    0 -0.14256047194E+02  0.20659723356E+03  0.69819131452E+03  0.73368331969E+03  0.89075530459E+02 0.  0.
        -13    1    4    4    0    0 -0.29500641757E+02  0.85121159901E+02  0.18076236901E+03  0.20196765527E+03  0.00000000000E+00 0.  1.
         14    1    4    4    0    0  0.15244594563E+02  0.12147607366E+03  0.51742894551E+03  0.53171566442E+03  0.00000000000E+00 0. -1.
        -11    1    3    3    0    0 -0.32721965345E+02 -0.87892268331E+02  0.31250079558E+03  0.32627063167E+03  0.00000000000E+00 0.  1.
         11    1    3    3    0    0 -0.13205989096E+03 -0.60473544846E+02  0.56087753238E+03  0.57937938413E+03  0.00000000000E+00 0. -1.
          1    1    1    2  501    0  0.17903790350E+03 -0.58231420382E+02  0.10472503990E+03  0.21543630889E+03  0.00000000000E+00 0. -1.
<scales pt_clust_5="13000.00000" pt_clust_6="13000.00000" pt_clust_7="13000.00000" pt_clust_8="13000.00000" pt_clust_9="188.26967"></scales>
<clustering>
<clus scale="   89.076">  5  6 -1 -1</clus>
<clus scale="   90.812">  7  8 -1 -1</clus>
<clus scale="  188.270">  2  9  1 -1</clus>
<clus scale="  212.762">  2  5  1 -1</clus>
<clus scale="  188.270">  2  5  1 -1</clus>
</clustering>
</event>
<event>
 9    2  0.1488992E-004  0.1054544E+03  0.7546771E-02  0.1273453E+00
         21   -1    0    0  501  502  0.00000000000E+00  0.00000000000E+00  0.18624433449E+03  0.18624433449E+03  0.00000000000E+00 0.  1.
         -3   -1    0    0    0  501 -0.00000000000E+00 -0.00000000000E+00 -0.79630860129E+02  0.79630860129E+02  0.00000000000E+00 0.  1.
         24    2    1    2    0    0 -0.22982534027E+02  0.51745164890E+02  0.24386415083E+02  0.10100253286E+03  0.80006596253E+02 0.  0.
         23    2    1    2    0    0 -0.63947327186E+01 -0.57470276223E+02  0.42189214461E+02  0.11488436594E+03  0.89859682085E+02 0.  0.
        -11    1    3    3    0    0 -0.10308302774E+02  0.71198727133E+02  0.75782851253E+01  0.72339133648E+02  0.00000000000E+00 0.  1.
         12    1    3    3    0    0 -0.12674231254E+02 -0.19453562243E+02  0.16808129958E+02  0.28663399214E+02  0.00000000000E+00 0. -1.
        -13    1    4    4    0    0 -0.32674577964E+02 -0.70360434259E+02  0.31303318248E+02  0.83654745757E+02  0.00000000000E+00 0.  1.
         13    1    4    4    0    0  0.26279845245E+02  0.12890158036E+02  0.10885896213E+02  0.31229620181E+02  0.00000000000E+00 0. -1.
         -4    1    1    2    0  502  0.29377266746E+02  0.57251113329E+01  0.40037844813E+02  0.49988295815E+02  0.00000000000E+00 0.  1.
<scales pt_clust_5="13000.00000" pt_clust_6="13000.00000" pt_clust_7="13000.00000" pt_clust_8="13000.00000" pt_clust_9="29.92993"></scales>
<clustering>
<clus scale="   29.930">  1  9  2 -1</clus>
<clus scale="   80.007">  5  6 -1 -1</clus>
<clus scale="   89.860">  7  8 -1 -1</clus>
<clus scale="   97.195">  2  5  1 -1</clus>
<clus scale="   29.930">  1  5  2 -1</clus>
</clustering>
</event>
<event>
 9    2  0.1488992E-004  0.2795609E+03  0.7546771E-02  0.1127018E+00
         21   -1    0    0  501  502  0.00000000000E+00  0.00000000000E+00  0.20979222546E+03  0.20979222546E+03  0.00000000000E+00 0. -1.
          2   -1    0    0  502    0 -0.00000000000E+00 -0.00000000000E+00 -0.19432640075E+04  0.19432640075E+04  0.00000000000E+00 0. -1.
         23    2    1    2    0    0  0.83275583307E+02  0.17473110291E+02 -0.15245038830E+03  0.19834878550E+03  0.94132818186E+02 0.  0.
         24    2    1    2    0    0  0.25617978755E+03  0.57894321452E+02  0.56927817388E+02  0.28025595015E+03  0.79515943012E+02 0.  0.
        -11    1    4    4    0    0  0.14675074184E+03  0.44307855660E+02  0.71281786691E+02  0.16905637941E+03  0.00000000000E+00 0.  1.
         12    1    4    4    0    0  0.10942904571E+03  0.13586465792E+02 -0.14353969303E+02  0.11119957074E+03  0.00000000000E+00 0. -1.
        -13    1    3    3    0    0  0.50158455464E+01 -0.31917042989E+02 -0.25035854244E+02  0.40873589730E+02  0.00000000000E+00 0. -1.
         13    1    3    3    0    0  0.78259737761E+02  0.49390153280E+02 -0.12741453405E+03  0.15747519577E+03  0.00000000000E+00 0.  1.
          1    1    1    2  501    0 -0.33945537086E+03 -0.75367431743E+02 -0.16379492112E+04  0.16744514973E+04  0.00000000000E+00 0. -1.
<scales pt_clust_5="13000.00000" pt_clust_6="13000.00000" pt_clust_7="13000.00000" pt_clust_8="13000.00000" pt_clust_9="268.01413"></scales>
<clustering>
<clus scale="   79.516">  5  6 -1 -1</clus>
<clus scale="   94.133">  7  8 -1 -1</clus>
<clus scale="  126.890">  2  7  1 -1</clus>
<clus scale="  268.014">  1  9  2 -1</clus>
<clus scale="  268.014">  1  5  2 -1</clus>
</clustering>
</event>
<event>
 9    2  0.1488992E-004  0.1147405E+03  0.7546771E-02  0.1256025E+00
         21   -1    0    0  501  502  0.00000000000E+00  0.00000000000E+00  0.56313964453E+02  0.56313964453E+02  0.00000000000E+00 0. -1.
          2   -1    0    0  502    0 -0.00000000000E+00 -0.00000000000E+00 -0.29566873949E+03  0.29566873949E+03  0.00000000000E+00 0. -1.
         24    2    1    2    0    0 -0.66639191508E+01 -0.56793108620E+02 -0.10455853917E+03  0.14406815801E+03  0.80952338031E+02 0.  0.
         23    2    1    2    0    0  0.27814250973E+02  0.79888503832E+02 -0.11986440540E+03  0.17322026143E+03  0.92097652996E+02 0.  0.
        -13    1    3    3    0    0 -0.20055737329E+02 -0.22546936171E+02 -0.10292828589E+03  0.10726056576E+03  0.00000000000E+00 0.  1.
         14    1    3    3    0    0  0.13391818179E+02 -0.34246172449E+02 -0.16302532830E+01  0.36807592250E+02  0.00000000000E+00 0. -1.
        -13    1    4    4    0    0  0.38159742618E+02 -0.50297238748E+01 -0.27358674513E+02  0.47222464463E+02  0.00000000000E+00 0.  1.
         13    1    4    4    0    0 -0.10345491644E+02  0.84918227707E+02 -0.92505730887E+02  0.12599779697E+03  0.00000000000E+00 0. -1.
          1    1    1    2  501    0 -0.21150331823E+02 -0.23095395212E+02 -0.14931830470E+02  0.34694284507E+02  0.00000000000E+00 0. -1.
<scales pt_clust_5="13000.00000" pt_clust_6="13000.00000" pt_clust_7="13000.00000" pt_clust_8="13000.00000" pt_clust_9="31.31667"></scales>
<clustering>
<clus scale="   31.317">  1  9  2 -1</clus>
<clus scale="   80.952">  5  6 -1 -1</clus>
<clus scale="   92.098">  7  8 -1 -1</clus>
<clus scale="  106.003">  2  5  1 -1</clus>
<clus scale="   31.317">  1  5  2 -1</clus>
</clustering>
</event>
<event>
 9    2  0.1488992E-004  0.9592970E+02  0.7546771E-02  0.1296146E+00
         21   -1    0    0  501  502  0.00000000000E+00  0.00000000000E+00  0.77078115455E+02  0.77078115455E+02  0.00000000000E+00 0. -1.
          2   -1    0    0  502    0 -0.00000000000E+00 -0.00000000000E+00 -0.13282313120E+04  0.13282313120E+04  0.00000000000E+00 0. -1.
         24    2    1    2    0    0 -0.21062980802E+02 -0.30252641856E+00 -0.11953380005E+04  0.11982624280E+04  0.80970181213E+02 0.  0.
         23    2    1    2    0    0  0.47811922889E+02  0.14146756293E+02 -0.10525113394E+03  0.14915848108E+03  0.93189809513E+02 0.  0.
        -13    1    3    3    0    0 -0.44738378700E+00  0.25156697478E+02 -0.12952793132E+03  0.13194902263E+03  0.00000000000E+00 0.  1.
         14    1    3    3    0    0 -0.20615597015E+02 -0.25459223897E+02 -0.10658100692E+04  0.10663134054E+04  0.00000000000E+00 0. -1.
        -11    1    4    4    0    0  0.28446827106E+02  0.51908815369E+02 -0.80860845488E+02  0.10021089471E+03  0.00000000000E+00 0.  1.
         11    1    4    4    0    0  0.19365095784E+02 -0.37762059076E+02 -0.24390288453E+02  0.48947586367E+02  0.00000000000E+00 0. -1.
          1    1    1    2  501    0 -0.26748942088E+02 -0.13844229875E+02  0.49435937897E+02  0.57888518373E+02  0.00000000000E+00 0. -1.
<scales pt_clust_5="13000.00000" pt_clust_6="13000.00000" pt_clust_7="13000.00000" pt_clust_8="13000.00000" pt_clust_9="30.11924"></scales>
<clustering>
<clus scale="   30.119">  1  9  2 -1</clus>
<clus scale="   80.970">  5  6 -1 -1</clus>
<clus scale="   84.109">  2  5  1 -1</clus>
<clus scale="   93.190">  7  8 -1 -1</clus>
<clus scale="   30.119">  1  5  2 -1</clus>
</clustering>
</event>
<event>
 9    2  0.1488992E-004  0.1054623E+03  0.7546771E-02  0.1276374E+00
         21   -1    0    0  501  502  0.00000000000E+00  0.00000000000E+00  0.39351847672E+03  0.39351847672E+03  0.00000000000E+00 0. -1.
          2   -1    0    0  502    0 -0.00000000000E+00 -0.00000000000E+00 -0.21828291730E+03  0.21828291730E+03  0.00000000000E+00 0. -1.
         23    2    1    2    0    0  0.53830150576E+02 -0.24319411965E+02 -0.16240829566E+03  0.19666847023E+03  0.93877120609E+02 0.  0.
         24    2    1    2    0    0 -0.19189733855E+02 -0.53859722520E+02  0.39036303928E+02  0.10452319254E+03  0.78308040196E+02 0.  0.
        -11    1    4    4    0    0 -0.44480277132E+02 -0.88935752167E+01  0.18977896206E+02  0.49170634309E+02  0.00000000000E+00 0.  1.
         12    1    4    4    0    0  0.25290543278E+02 -0.44966147303E+02  0.20058407722E+02  0.55352558233E+02  0.00000000000E+00 0. -1.
        -13    1    3    3    0    0  0.38435823719E+02  0.27233489383E+02 -0.36001612455E+02  0.59288207835E+02  0.00000000000E+00 0.  1.
         13    1    3    3    0    0  0.15394326857E+02 -0.51552901348E+02 -0.12640668320E+03  0.13738026239E+03  0.00000000000E+00 0. -1.
          1    1    1    2  501    0 -0.34640416721E+02  0.78179134485E+02  0.29860755115E+03  0.31060973124E+03  0.00000000000E+00 0. -1.
<scales pt_clust_5="13000.00000" pt_clust_6="13000.00000" pt_clust_7="13000.00000" pt_clust_8="13000.00000" pt_clust_9="85.50986"></scales>
<clustering>
<clus scale="   78.308">  5  6 -1 -1</clus>
<clus scale="   85.510">  1  9  2 -1</clus>
<clus scale="   91.878">  1  5  2 -1</clus>
<clus scale="   93.877">  7  8 -1 -1</clus>
<clus scale="   85.510">  1  5  2 -1</clus>
</clustering>
</event>
<event>
 9    2  0.1488992E-004  0.1256101E+03  0.7546771E-02  0.1238913E+00
          2   -1    0    0  502    0 -0.00000000000E+00  0.00000000000E+00  0.48082718419E+03  0.48082718419E+03  0.00000000000E+00 0. -1.
         21   -1    0    0  501  502  0.00000000000E+00 -0.00000000000E+00 -0.12156176848E+03  0.12156176848E+03  0.00000000000E+00 0.  1.
         24    2    1    2    0    0  0.62249911712E+02 -0.61574854276E+02  0.12829058036E+03  0.17279355509E+03  0.75714103595E+02 0.  0.
         23    2    1    2    0    0 -0.78673977094E+02  0.23661778711E+02 -0.58781716196E+02  0.13690783314E+03  0.92406656534E+02 0.  0.
        -11    1    3    3    0    0  0.50834780205E+02 -0.12703418783E+02  0.10524730992E+03  0.11756933262E+03  0.00000000000E+00 0.  1.
         12    1    3    3    0    0  0.11415131508E+02 -0.48871435493E+02  0.23043270439E+02  0.55224222466E+02  0.00000000000E+00 0. -1.
        -13    1    4    4    0    0 -0.95226470366E+02  0.93021933148E+01 -0.63046089067E+02  0.11458368473E+03  0.00000000000E+00 0.  1.
         13    1    4    4    0    0  0.16552493273E+02  0.14359585396E+02  0.42643728708E+01  0.22324148411E+02  0.00000000000E+00 0. -1.
          1    1    1    2  501    0  0.16424065382E+02  0.37913075565E+02  0.28975655155E+03  0.29268756446E+03  0.00000000000E+00 0. -1.
<scales pt_clust_5="13000.00000" pt_clust_6="13000.00000" pt_clust_7="13000.00000" pt_clust_8="13000.00000" pt_clust_9="41.31771"></scales>
<clustering>
<clus scale="   41.318">  2  9  1 -1</clus>
<clus scale="   75.714">  5  6 -1 -1</clus>
<clus scale="   92.407">  7  8 -1 -1</clus>
<clus scale="  113.893">  1  5  2 -1</clus>
<clus scale="   41.318">  2  5  1 -1</clus>
</clustering>
</event>
<event>
 9    2  0.1488992E-004  0.5018263E+03  0.7546771E-02  0.1064776E+00
          4   -1    0    0  502    0 -0.00000000000E+00  0.00000000000E+00  0.31776785154E+03  0.31776785154E+03  0.00000000000E+00 0. -1.
         21   -1    0    0  501  502  0.00000000000E+00 -0.00000000000E+00 -0.11447884120E+04  0.11447884120E+04  0.00000000000E+00 0. -1.
         23    2    1    2    0    0  0.42993055328E+02 -0.25863710559E+02 -0.29818813992E+03  0.31846589153E+03  0.99935093698E+02 0.  0.
         24    2    1    2    0    0  0.41517236695E+03 -0.21090400664E+03 -0.12440065686E+03  0.48869769768E+03  0.80630775725E+02 0.  0.
        -11    1    4    4    0    0  0.19711355756E+03 -0.11654378649E+03 -0.22242978449E+02  0.23006729197E+03  0.00000000000E+00 0.  1.
         12    1    4    4    0    0  0.21805880939E+03 -0.94360220143E+02 -0.10215767841E+03  0.25863040570E+03  0.00000000000E+00 0. -1.
        -11    1    3    3    0    0 -0.28196806950E+02  0.83621687908E+00 -0.14175139662E+03  0.14453102652E+03  0.00000000000E+00 0. -1.
         11    1    3    3    0    0  0.71189862279E+02 -0.26699927438E+02 -0.15643674329E+03  0.17393486502E+03  0.00000000000E+00 0.  1.
          3    1    1    2  501    0 -0.45816542228E+03  0.23676771720E+03 -0.40443176366E+03  0.65539267430E+03  0.00000000000E+00 0. -1.
<scales pt_clust_5="13000.00000" pt_clust_6="13000.00000" pt_clust_7="13000.00000" pt_clust_8="13000.00000" pt_clust_9="495.30626"></scales>
<clustering>
<clus scale="   80.631">  5  6 -1 -1</clus>
<clus scale="   99.935">  7  8 -1 -1</clus>
<clus scale="  111.823">  1  7  2 -1</clus>
<clus scale="  495.306">  2  9  1 -1</clus>
<clus scale="  495.306">  2  5  1 -1</clus>
</clustering>
</event>
<event>
 9    2  0.1488992E-004  0.9946107E+02  0.7546771E-02  0.1286738E+00
         -3   -1    0    0    0  501 -0.00000000000E+00  0.00000000000E+00  0.19660442753E+03  0.19660442753E+03  0.00000000000E+00 0.  1.
         21   -1    0    0  501  502  0.00000000000E+00 -0.00000000000E+00 -0.10657328386E+03  0.10657328386E+03  0.00000000000E+00 0. -1.
         24    2    1    2    0    0 -0.11146849887E+02  0.36462862554E+02  0.72084102448E+02  0.11525009757E+03  0.81441233762E+02 0.  0.
         23    2    1    2    0    0  0.68821866881E+02 -0.40663831909E+01 -0.11744836878E+02  0.11541866894E+03  0.91817989055E+02 0.  0.
        -11    1    3    3    0    0  0.10661348049E+02  0.51120967195E+02  0.72036555743E+02  0.88973496012E+02  0.00000000000E+00 0.  1.
         12    1    3    3    0    0 -0.21808197936E+02 -0.14658104641E+02  0.47546704520E-01  0.26276601561E+02  0.00000000000E+00 0. -1.
        -13    1    4    4    0    0  0.25485126173E+01  0.32692357214E+02 -0.21197622407E+02  0.39046438154E+02  0.00000000000E+00 0.  1.
         13    1    4    4    0    0  0.66273354264E+02 -0.36758740405E+02  0.94527855296E+01  0.76372230790E+02  0.00000000000E+00 0. -1.
         -4    1    1    2    0  502 -0.57675016994E+02 -0.32396479363E+02  0.29691878101E+02  0.72508944866E+02  0.00000000000E+00 0.  1.
<scales pt_clust_5="13000.00000" pt_clust_6="13000.00000" pt_clust_7="13000.00000" pt_clust_8="13000.00000" pt_clust_9="66.15092"></scales>
<clustering>
<clus scale="   66.151">  2  9  1 -1</clus>
<clus scale="   81.441">  5  6 -1 -1</clus>
<clus scale="   89.970">  1  5  2 -1</clus>
<clus scale="   91.818">  7  8 -1 -1</clus>
<clus scale="   66.151">  2  5  1 -1</clus>
</clustering>
</event>
<event>
 9    2  0.1488992E-004  0.1154910E+03  0.7546771E-02  0.1254035E+00
         21   -1    0    0  501  502  0.00000000000E+00  0.00000000000E+00  0.85715827335E+02  0.85715827335E+02  0.00000000000E+00 0. -1.
          2   -1    0    0  502    0 -0.00000000000E+00 -0.00000000000E+00 -0.35742897513E+03  0.35742897513E+03  0.00000000000E+00 0. -1.
         23    2    1    2    0    0  0.20625632670E+02  0.74843408245E+02 -0.28167052072E+03  0.30599193067E+03  0.90916593163E+02 0.  0.
         24    2    1    2    0    0  0.96965916295E+01 -0.50179094270E+02 -0.25369362225E+01  0.96117844908E+02  0.81364849126E+02 0.  0.
        -11    1    4    4    0    0 -0.31242559010E+02 -0.19039569429E+01 -0.87939406746E+01  0.32512396684E+02  0.00000000000E+00 0.  1.
         12    1    4    4    0    0  0.40939150640E+02 -0.48275137327E+02  0.62570044521E+01  0.63605448224E+02  0.00000000000E+00 0. -1.
        -11    1    3    3    0    0  0.47660231440E+02  0.78681154878E+02 -0.20844879474E+03  0.22784451238E+03  0.00000000000E+00 0.  1.
         11    1    3    3    0    0 -0.27034598769E+02 -0.38377466330E+01 -0.73221725980E+02  0.78147418290E+02  0.00000000000E+00 0. -1.
          1    1    1    2  501    0 -0.30322224300E+02 -0.24664313975E+02  0.12494309149E+02  0.41035026885E+02  0.00000000000E+00 0. -1.
<scales pt_clust_5="13000.00000" pt_clust_6="13000.00000" pt_clust_7="13000.00000" pt_clust_8="13000.00000" pt_clust_9="39.08664"></scales>
<clustering>
<clus scale="   39.087">  1  9  2 -1</clus>
<clus scale="   81.365">  5  6 -1 -1</clus>
<clus scale="   90.917">  7  8 -1 -1</clus>
<clus scale="  108.132">  1  5  2 -1</clus>
<clus scale="   39.087">  1  5  2 -1</clus>
</clustering>
</event>
<event>
 9    2  0.1488992E-004  0.1388406E+03  0.7546771E-02  0.1218140E+00
          2   -1    0    0  502    0 -0.00000000000E+00  0.00000000000E+00  0.17066201665E+03  0.17066201665E+03  0.00000000000E+00 0. -1.
         21   -1    0    0  501  502  0.00000000000E+00 -0.00000000000E+00 -0.14230788833E+03  0.14230788833E+03  0.00000000000E+00 0. -1.
         23    2    1    2    0    0 -0.74362005619E+02  0.59423755239E+02  0.46905378329E+02  0.14075148846E+03  0.92466082551E+02 0.  0.
         24    2    1    2    0    0  0.78883373348E+02 -0.88391756251E+02 -0.13666792482E+02  0.14249560080E+03  0.77990549859E+02 0.  0.
        -11    1    4    4    0    0 -0.99836877832E+01 -0.38813265058E+02 -0.40448544807E+01  0.40280322913E+02  0.00000000000E+00 0.  1.
         12    1    4    4    0    0  0.88867061131E+02 -0.49578491193E+02 -0.96219380013E+01  0.10221527789E+03  0.00000000000E+00 0. -1.
        -13    1    3    3    0    0 -0.92265275654E+02  0.32210834090E+02  0.23137165062E+02  0.10042782150E+03  0.00000000000E+00 0. -1.
         13    1    3    3    0    0  0.17903270036E+02  0.27212921149E+02  0.23768213266E+02  0.40323666963E+02  0.00000000000E+00 0.  1.
          1    1    1    2  501    0 -0.45213677291E+01  0.28968001011E+02 -0.48844575297E+01  0.29722815716E+02  0.00000000000E+00 0. -1.
<scales pt_clust_5="13000.00000" pt_clust_6="13000.00000" pt_clust_7="13000.00000" pt_clust_8="13000.00000" pt_clust_9="29.31873"></scales>
<clustering>
<clus scale="   29.319">  2  9  1 -1</clus>
<clus scale="   77.991">  5  6 -1 -1</clus>
<clus scale="   92.466">  7  8 -1 -1</clus>
<clus scale="  129.651">  2  5  1 -1</clus>
<clus scale="   29.319">  2  5  1 -1</clus>
</clustering>
</event>
<event>
 9    2  0.1488992E-004  0.9950601E+02  0.7546771E-02  0.1291094E+00
          2   -1    0    0  502    0 -0.00000000000E+00  0.00000000000E+00  0.53080370559E+03  0.53080370559E+03  0.00000000000E+00 0. -1.
         21   -1    0    0  501  502  0.00000000000E+00 -0.00000000000E+00 -0.66815578259E+02  0.66815578259E+02  0.00000000000E+00 0.  1.
         24    2    1    2    0    0 -0.34472815718E+00  0.10691793634E+02  0.30563147788E+03  0.31651861198E+03  0.81602684836E+02 0.  0.
         23    2    1    2    0    0 -0.25335521892E+01 -0.49984630405E+02 -0.73800877249E+01  0.11074552058E+03  0.98515087528E+02 0.  0.
        -13    1    3    3    0    0 -0.36766304122E+02  0.50354251292E+01  0.22262620573E+03  0.22569790451E+03  0.00000000000E+00 0.  1.
         14    1    3    3    0    0  0.36421575964E+02  0.56563685045E+01  0.83005272154E+02  0.90820707472E+02  0.00000000000E+00 0. -1.
        -13    1    4    4    0    0 -0.30241128128E+02 -0.32439527304E+02 -0.43386566303E+02  0.62042267026E+02  0.00000000000E+00 0.  1.
         13    1    4    4    0    0  0.27707575939E+02 -0.17545103101E+02  0.36006478578E+02  0.48703253555E+02  0.00000000000E+00 0. -1.
          1    1    1    2  501    0  0.28782803464E+01  0.39292836771E+02  0.16573673718E+03  0.17035515129E+03  0.00000000000E+00 0. -1.
<scales pt_clust_5="13000.00000" pt_clust_6="13000.00000" pt_clust_7="13000.00000" pt_clust_8="13000.00000" pt_clust_9="39.39814"></scales>
<clustering>
<clus scale="   39.398">  2  9  1 -1</clus>
<clus scale="   81.603">  5  6 -1 -1</clus>
<clus scale="   82.796">  1  5  2 -1</clus>
<clus scale="   98.515">  7  8 -1 -1</clus>
<clus scale="   39.398">  2  5  1 -1</clus>
</clustering>
</event>
<event>
 9    2  0.1488992E-004  0.1381427E+03  0.7546771E-02  0.1219158E+00
         21   -1    0    0  501  502  0.00000000000E+00  0.00000000000E+00  0.10830372600E+03  0.10830372600E+03  0.00000000000E+00 0.  1.
          2   -1    0    0  502    0 -0.00000000000E+00 -0.00000000000E+00 -0.34930746075E+03  0.34930746075E+03  0.00000000000E+00 0. -1.
         24    2    1    2    0    0  0.10349538470E+02  0.97866661150E+02 -0.53274496734E+02  0.13697742037E+03  0.78991425982E+02 0.  0.
         23    2    1    2    0    0  0.19450323553E+02 -0.10783478583E+03 -0.14652029495E+02  0.14472721336E+03  0.93405718232E+02 0.  0.
        -11    1    3    3    0    0  0.20771461401E+02  0.10130799692E+03 -0.24638265325E+02  0.10630996175E+03  0.00000000000E+00 0.  1.
         12    1    3    3    0    0 -0.10421922931E+02 -0.34413357668E+01 -0.28636231408E+02  0.30667458628E+02  0.00000000000E+00 0. -1.
        -11    1    4    4    0    0 -0.38926270717E+01 -0.11670014520E+03 -0.21088978033E+01  0.11678409089E+03  0.00000000000E+00 0.  1.
         11    1    4    4    0    0  0.23342950624E+02  0.88653593752E+01 -0.12543131691E+02  0.27943122469E+02  0.00000000000E+00 0. -1.
          1    1    1    2  501    0 -0.29799862023E+02  0.99681246753E+01 -0.17307720852E+03  0.17590655302E+03  0.00000000000E+00 0. -1.
<scales pt_clust_5="13000.00000" pt_clust_6="13000.00000" pt_clust_7="13000.00000" pt_clust_8="13000.00000" pt_clust_9="31.42286"></scales>
<clustering>
<clus scale="   31.423">  1  9  2 -1</clus>
<clus scale="   78.991">  5  6 -1 -1</clus>
<clus scale="   93.406">  7  8 -1 -1</clus>
<clus scale="  128.835">  2  5  1 -1</clus>
<clus scale="   31.423">  1  5  2 -1</clus>
</clustering>
</event>
<event>
 9    2  0.1488992E-004  0.9030615E+02  0.7546771E-02  0.1308272E+00
         -3   -1    0    0    0  501 -0.00000000000E+00  0.00000000000E+00  0.59264555441E+02  0.59264555441E+02  0.00000000000E+00 0.  1.
         21   -1    0    0  501  502  0.00000000000E+00 -0.00000000000E+00 -0.29851647839E+03  0.29851647839E+03  0.00000000000E+00 0. -1.
         24    2    1    2    0    0  0.20718864945E+02  0.68572611056E+01 -0.11304284229E+02  0.83477168641E+02  0.79776923029E+02 0.  0.
         23    2    1    2    0    0  0.53186076724E+01  0.12556864818E+02 -0.73873895171E+02  0.11684410297E+03  0.89494299095E+02 0.  0.
        -13    1    3    3    0    0  0.17552922616E+01  0.42055753871E+02 -0.10951577269E+02  0.43493729769E+02  0.00000000000E+00 0.  1.
         14    1    3    3    0    0  0.18963572683E+02 -0.35198492765E+02 -0.35270696032E+00  0.39983438872E+02  0.00000000000E+00 0. -1.
        -11    1    4    4    0    0  0.57994405789E+01  0.43397474908E+02 -0.74019743701E+02  0.85999399980E+02  0.00000000000E+00 0.  1.
         11    1    4    4    0    0 -0.48083290645E+00 -0.30840610090E+02  0.14584853046E+00  0.30844702994E+02  0.00000000000E+00 0. -1.
         -4    1    1    2    0  502 -0.26037472617E+02 -0.19414125924E+02 -0.15407374355E+03  0.15745976222E+03  0.00000000000E+00 0.  1.
<scales pt_clust_5="13000.00000" pt_clust_6="13000.00000" pt_clust_7="13000.00000" pt_clust_8="13000.00000" pt_clust_9="32.47858"></scales>
<clustering>
<clus scale="   32.479">  2  9  1 -1</clus>
<clus scale="   79.777">  5  6 -1 -1</clus>
<clus scale="   80.687">  1  5  2 -1</clus>
<clus scale="   89.494">  7  8 -1 -1</clus>
<clus scale="   32.479">  2  5  1 -1</clus>
</clustering>
</event>
<event>
 9    2  0.1488992E-004  0.1722763E+03  0.7546771E-02  0.1177148E+00
         21   -1    0    0  501  502  0.00000000000E+00  0.00000000000E+00  0.49550489407E+02  0.49550489407E+02  0.00000000000E+00 0.  1.
          2   -1    0    0  502    0 -0.00000000000E+00 -0.00000000000E+00 -0.86382854903E+03  0.86382854903E+03  0.00000000000E+00 0. -1.
         23    2    1    2    0    0 -0.18177578999E+01 -0.15828498598E+03 -0.39542395839E+03  0.43606577548E+03  0.93465569304E+02 0.  0.
         24    2    1    2    0    0  0.21901377433E+02  0.12535780164E+03 -0.17802964686E+03  0.23341990703E+03  0.81216064111E+02 0.  0.
        -11    1    4    4    0    0  0.10716481619E+02  0.12824102899E+03 -0.12592078709E+03  0.18004624161E+03  0.00000000000E+00 0.  1.
         12    1    4    4    0    0  0.11184895814E+02 -0.28832273467E+01 -0.52108859766E+02  0.53373665421E+02  0.00000000000E+00 0. -1.
        -13    1    3    3    0    0  0.22306671821E+02 -0.80910827306E+02 -0.29666050652E+03  0.30830440430E+03  0.00000000000E+00 0.  1.
         13    1    3    3    0    0 -0.24124429721E+02 -0.77374158677E+02 -0.98763451871E+02  0.12776137118E+03  0.00000000000E+00 0. -1.
          1    1    1    2  501    0 -0.20083619533E+02  0.32927184340E+02 -0.24082445438E+03  0.24389335593E+03  0.00000000000E+00 0. -1.
<scales pt_clust_5="13000.00000" pt_clust_6="13000.00000" pt_clust_7="13000.00000" pt_clust_8="13000.00000" pt_clust_9="38.56881"></scales>
<clustering>
<clus scale="   38.569">  1  9  2 -1</clus>
<clus scale="   81.216">  5  6 -1 -1</clus>
<clus scale="   93.466">  7  8 -1 -1</clus>
<clus scale="  165.950">  1  5  2 -1</clus>
<clus scale="   38.569">  1  5  2 -1</clus>
</clustering>
</event>
<event>
 9    2  0.1488992E-004  0.4964102E+03  0.7546771E-02  0.1014820E+00
         -1   -1    0    0    0  501 -0.00000000000E+00  0.00000000000E+00  0.12104402768E+04  0.12104402768E+04  0.00000000000E+00 0.  1.
         21   -1    0    0  501  502  0.00000000000E+00 -0.00000000000E+00 -0.28115006010E+03  0.28115006010E+03  0.00000000000E+00 0.  1.
         24    2    1    2    0    0 -0.21468894446E+03  0.46225424312E+03  0.58886993550E+03  0.78329316605E+03  0.83726070515E+02 0.  0.
         23    2    1    2    0    0  0.12213807191E+03 -0.43584809242E+03  0.13471595722E+03  0.48119098927E+03  0.92277357723E+02 0.  0.
        -13    1    3    3    0    0 -0.19965713804E+03  0.45821222018E+03  0.56091638279E+03  0.75129794354E+03  0.00000000000E+00 0.  1.
         14    1    3    3    0    0 -0.15031806428E+02  0.40420229397E+01  0.27953552711E+02  0.31995222504E+02  0.00000000000E+00 0. -1.
        -13    1    4    4    0    0  0.89740859155E+02 -0.34407179521E+03  0.65007758147E+02  0.36147590608E+03  0.00000000000E+00 0.  1.
         13    1    4    4    0    0  0.32397212756E+02 -0.91776297210E+02  0.69708199072E+02  0.11971508318E+03  0.00000000000E+00 0. -1.
         -2    1    1    2    0  502  0.92550872553E+02 -0.26406150707E+02  0.20570432395E+03  0.22710618155E+03  0.00000000000E+00 0.  1.
<scales pt_clust_5="13000.00000" pt_clust_6="13000.00000" pt_clust_7="13000.00000" pt_clust_8="13000.00000" pt_clust_9="96.24426"></scales>
<clustering>
<clus scale="   83.726">  5  6 -1 -1</clus>
<clus scale="   92.277">  7  8 -1 -1</clus>
<clus scale="   96.244">  2  9  1 -1</clus>
<clus scale="  494.892">  1  5  2 -1</clus>
<clus scale="   96.244">  2  5  1 -1</clus>
</clustering>
</event>
<event>
 9    2  0.1488992E-004  0.9635045E+02  0.7546771E-02  0.1293076E+00
          2   -1    0    0  502    0 -0.00000000000E+00  0.00000000000E+00  0.38378111985E+03  0.38378111985E+03  0.00000000000E+00 0. -1.
         21   -1    0    0  501  502  0.00000000000E+00 -0.00000000000E+00 -0.39004565599E+02  0.39004565599E+02  0.00000000000E+00 0. -1.
         24    2    1    2    0    0  0.36292842002E+02  0.31468750677E+02  0.24992411046E+03  0.26601797087E+03  0.77434147420E+02 0.  0.
         23    2    1    2    0    0 -0.53226685357E+01 -0.30013546444E+02  0.81578446150E+02  0.12304134096E+03  0.86919416353E+02 0.  0.
        -13    1    3    3    0    0  0.79261536297E+01  0.53342264055E+02  0.12685906022E+03  0.13784571885E+03  0.00000000000E+00 0.  1.
         14    1    3    3    0    0  0.28366688372E+02 -0.21873513378E+02  0.12306505024E+03  0.12817225202E+03  0.00000000000E+00 0. -1.
        -11    1    4    4    0    0 -0.36769437177E+02  0.10464105194E+02  0.20755497038E+02  0.43500340977E+02  0.00000000000E+00 0.  1.
         11    1    4    4    0    0  0.31446768641E+02 -0.40477651639E+02  0.60822949112E+02  0.79540999986E+02  0.00000000000E+00 0. -1.
          1    1    1    2  501    0 -0.30970173466E+02 -0.14552042324E+01  0.13273997641E+02  0.33726373616E+02  0.00000000000E+00 0. -1.
<scales pt_clust_5="13000.00000" pt_clust_6="13000.00000" pt_clust_7="13000.00000" pt_clust_8="13000.00000" pt_clust_9="31.00434"></scales>
<clustering>
<clus scale="   31.004">  2  9  1 -1</clus>
<clus scale="   77.434">  5  6 -1 -1</clus>
<clus scale="   86.919">  7  8 -1 -1</clus>
<clus scale="   87.889">  1  5  2 -1</clus>
<clus scale="   31.004">  2  5  1 -1</clus>
</clustering>
</event>
<event>
 9    2  0.1488992E-004  0.1290882E+03  0.7546771E-02  0.1232692E+00
         21   -1    0    0  501  502  0.00000000000E+00  0.00000000000E+00  0.24972840949E+02  0.24972840949E+02  0.00000000000E+00 0.  1.
          2   -1    0    0  502    0 -0.00000000000E+00 -0.00000000000E+00 -0.14262821398E+04  0.14262821398E+04  0.00000000000E+00 0. -1.
         24    2    1    2    0    0 -0.46910611764E+02  0.98447277665E+02 -0.10798003399E+04  0.10879937149E+04  0.76609905975E+02 0.  0.
         23    2    1    2    0    0  0.13975609526E+02 -0.37606266912E+02 -0.19837082606E+03  0.22201912363E+03  0.91279557685E+02 0.  0.
        -11    1    3    3    0    0 -0.54631253026E+02  0.54034602759E+02 -0.44421659198E+03  0.45081336791E+03  0.00000000000E+00 0.  1.
         12    1    3    3    0    0  0.77206412619E+01  0.44412674906E+02 -0.63558374789E+03  0.63718034698E+03  0.00000000000E+00 0. -1.
        -11    1    4    4    0    0  0.30622029093E+02 -0.61384936230E+02 -0.11701661262E+03  0.13564183237E+03  0.00000000000E+00 0.  1.
         11    1    4    4    0    0 -0.16646419567E+02  0.23778669318E+02 -0.81354213445E+02  0.86377291253E+02  0.00000000000E+00 0. -1.
          1    1    1    2  501    0  0.32935002238E+02 -0.60841010753E+02 -0.12313813292E+03  0.14124214223E+03  0.00000000000E+00 0. -1.
<scales pt_clust_5="13000.00000" pt_clust_6="13000.00000" pt_clust_7="13000.00000" pt_clust_8="13000.00000" pt_clust_9="69.18340"></scales>
<clustering>
<clus scale="   69.183">  1  9  2 -1</clus>
<clus scale="   76.610">  5  6 -1 -1</clus>
<clus scale="   91.280">  7  8 -1 -1</clus>
<clus scale="  119.168">  2  5  1 -1</clus>
<clus scale="   69.183">  1  5  2 -1</clus>
</clustering>
</event>
<event>
 9    2  0.1488992E-004  0.2414573E+03  0.7546771E-02  0.1119247E+00
         21   -1    0    0  501  502  0.00000000000E+00  0.00000000000E+00  0.12556490378E+03  0.12556490378E+03  0.00000000000E+00 0. -1.
         -3   -1    0    0    0  501 -0.00000000000E+00 -0.00000000000E+00 -0.98390251457E+03  0.98390251457E+03  0.00000000000E+00 0.  1.
         24    2    1    2    0    0 -0.12151259294E+03 -0.18398209031E+03 -0.75429231695E+03  0.79025164540E+03  0.83222856529E+02 0.  0.
         23    2    1    2    0    0  0.14803998615E+03  0.18902990114E+03 -0.12471515692E+03  0.28520950553E+03  0.90235528806E+02 0.  0.
        -13    1    3    3    0    0 -0.12597904823E+03 -0.14495397148E+03 -0.55963876572E+03  0.59167383121E+03  0.00000000000E+00 0.  1.
         14    1    3    3    0    0  0.44664552892E+01 -0.39028118833E+02 -0.19465355123E+03  0.19857781419E+03  0.00000000000E+00 0. -1.
        -11    1    4    4    0    0  0.14872221302E+02  0.84261948734E+02 -0.27569358821E+02  0.89896209691E+02  0.00000000000E+00 0. -1.
         11    1    4    4    0    0  0.13316776485E+03  0.10476795240E+03 -0.97145798094E+02  0.19531329584E+03  0.00000000000E+00 0.  1.
         -4    1    1    2    0  502 -0.26527393209E+02 -0.50478108274E+01  0.20669863070E+02  0.34006267421E+02  0.00000000000E+00 0.  1.
<scales pt_clust_5="13000.00000" pt_clust_6="13000.00000" pt_clust_7="13000.00000" pt_clust_8="13000.00000" pt_clust_9="27.00339"></scales>
<clustering>
<clus scale="   27.003">  1  9  2 -1</clus>
<clus scale="   83.223">  5  6 -1 -1</clus>
<clus scale="   90.236">  7  8 -1 -1</clus>
<clus scale="  238.925">  2  5  1 -1</clus>
<clus scale="   27.003">  1  5  2 -1</clus>
</clustering>
</event>
<event>
 9    2  0.1488992E-004  0.9961045E+02  0.7546771E-02  0.1290171E+00
         -1   -1    0    0    0  501 -0.00000000000E+00  0.00000000000E+00  0.97527545321E+02  0.97527545321E+02  0.00000000000E+00 0.  1.
         21   -1    0    0  501  502  0.00000000000E+00 -0.00000000000E+00 -0.16062632107E+03  0.16062632107E+03  0.00000000000E+00 0.  1.
         23    2    1    2    0    0 -0.16862088203E+02 -0.33880405841E+02 -0.24798081084E+02  0.10671237592E+03  0.96645612575E+02 0.  0.
         24    2    1    2    0    0 -0.57502610912E+01  0.86520574771E+01 -0.68420717706E+02  0.10610934194E+03  0.80435528437E+02 0.  0.
        -13    1    4    4    0    0  0.18774016898E+02  0.33918038015E+02 -0.57303288325E+02  0.69184997406E+02  0.00000000000E+00 0.  1.
         14    1    4    4    0    0 -0.24524277989E+02 -0.25265980538E+02 -0.11117429382E+02  0.36924344537E+02  0.00000000000E+00 0. -1.
        -13    1    3    3    0    0 -0.29510702365E+02  0.14082195362E+02 -0.42873120508E+02  0.53919330878E+02  0.00000000000E+00 0. -1.
         13    1    3    3    0    0  0.12648614162E+02 -0.47962601202E+02  0.18075039424E+02  0.52793045039E+02  0.00000000000E+00 0.  1.
         -2    1    1    2    0  502  0.22612349294E+02  0.25228348364E+02  0.30120023046E+02  0.45332148526E+02  0.00000000000E+00 0.  1.
<scales pt_clust_5="13000.00000" pt_clust_6="13000.00000" pt_clust_7="13000.00000" pt_clust_8="13000.00000" pt_clust_9="33.87904"></scales>
<clustering>
<clus scale="   33.879">  2  9  1 -1</clus>
<clus scale="   80.436">  5  6 -1 -1</clus>
<clus scale="   83.975">  2  5  1 -1</clus>
<clus scale="   96.646">  7  8 -1 -1</clus>
<clus scale="   33.879">  2  5  1 -1</clus>
</clustering>
</event>
<event>
 9    2  0.1488992E-004  0.2368226E+03  0.7546771E-02  0.1122331E+00
         21   -1    0    0  501  502  0.00000000000E+00  0.00000000000E+00  0.13566521293E+03  0.13566521293E+03  0.00000000000E+00 0. -1.
          2   -1    0    0  502    0 -0.00000000000E+00 -0.00000000000E+00 -0.74763210690E+03  0.74763210690E+03  0.00000000000E+00 0. -1.
         24    2    1    2    0    0  0.14461283176E+03 -0.12501430231E+03 -0.14598774362E+03  0.25344443639E+03  0.79876242775E+02 0.  0.
         23    2    1    2    0    0 -0.16909803498E+03  0.20246641669E+03 -0.17602197293E+03  0.32873244252E+03  0.86570713850E+02 0.  0.
        -13    1    3    3    0    0  0.46406135315E+02 -0.92388237252E+02 -0.79809818688E+02  0.13060904615E+03  0.00000000000E+00 0.  1.
         14    1    3    3    0    0  0.98206696445E+02 -0.32626065060E+02 -0.66177924928E+02  0.12283539024E+03  0.00000000000E+00 0. -1.
        -11    1    4    4    0    0 -0.70517147235E+02  0.53069676934E+02 -0.18227243885E+02  0.90118206172E+02  0.00000000000E+00 0.  1.
         11    1    4    4    0    0 -0.98580887741E+02  0.14939673975E+03 -0.15779472904E+03  0.23861423635E+03  0.00000000000E+00 0. -1.
          1    1    1    2  501    0  0.24485203214E+02 -0.77452114373E+02 -0.28995717743E+03  0.30112044092E+03  0.00000000000E+00 0. -1.
<scales pt_clust_5="13000.00000" pt_clust_6="13000.00000" pt_clust_7="13000.00000" pt_clust_8="13000.00000" pt_clust_9="81.23030"></scales>
<clustering>
<clus scale="   79.876">  5  6 -1 -1</clus>
<clus scale="   81.230">  1  9  2 -1</clus>
<clus scale="   86.571">  7  8 -1 -1</clus>
<clus scale="  234.458">  2  5  1 -1</clus>
<clus scale="   81.230">  1  5  2 -1</clus>
</clustering>
</event>
<event>
 9    2  0.1488992E-004  0.1224924E+03  0.7546771E-02  0.1242775E+00
         21   -1    0    0  501  502  0.00000000000E+00  0.00000000000E+00  0.77868684437E+02  0.77868684437E+02  0.00000000000E+00 0. -1.
          2   -1    0    0  502    0 -0.00000000000E+00 -0.00000000000E+00 -0.33182152082E+03  0.33182152082E+03  0.00000000000E+00 0. -1.
         23    2    1    2    0    0  0.35187230593E+01  0.87383774844E+02 -0.22425506470E+03  0.25801640323E+03  0.92918376947E+02 0.  0.
         24    2    1    2    0    0 -0.14088993968E+02 -0.54416336961E+02  0.10095531215E+02  0.98928285220E+02  0.80779009567E+02 0.  0.
        -11    1    4    4    0    0 -0.10799246253E+02 -0.41103178167E+02 -0.32934438007E+02  0.53765901665E+02  0.00000000000E+00 0.  1.
         12    1    4    4    0    0 -0.32897477146E+01 -0.13313158794E+02  0.43029969222E+02  0.45162383554E+02  0.00000000000E+00 0. -1.
        -13    1    3    3    0    0  0.23567423228E+02  0.22649669179E+02 -0.16434427114E+03  0.16756333253E+03  0.00000000000E+00 0. -1.
         13    1    3    3    0    0 -0.20048700168E+02  0.64734105665E+02 -0.59910793566E+02  0.90453070708E+02  0.00000000000E+00 0.  1.
          1    1    1    2  501    0  0.10570270908E+02 -0.32967437883E+02 -0.39793302899E+02  0.52745516807E+02  0.00000000000E+00 0. -1.
<scales pt_clust_5="13000.00000" pt_clust_6="13000.00000" pt_clust_7="13000.00000" pt_clust_8="13000.00000" pt_clust_9="34.62057"></scales>
<clustering>
<clus scale="   34.621">  1  9  2 -1</clus>
<clus scale="   80.779">  5  6 -1 -1</clus>
<clus scale="   92.918">  7  8 -1 -1</clus>
<clus scale="  113.560">  1  5  2 -1</clus>
<clus scale="   34.621">  1  5  2 -1</clus>
</clustering>
</event>
<event>
 9    2  0.1488992E-004  0.1332760E+03  0.7546771E-02  0.1235287E+00
         21   -1    0    0  501  502  0.00000000000E+00  0.00000000000E+00  0.16938344485E+02  0.16938344485E+02  0.00000000000E+00 0. -1.
          2   -1    0    0  502    0 -0.00000000000E+00 -0.00000000000E+00 -0.18519655387E+04  0.18519655387E+04  0.00000000000E+00 0. -1.
         23    2    1    2    0    0 -0.37969470132E+02 -0.22814137535E+02 -0.40141090201E+03  0.41433346344E+03  0.92624732897E+02 0.  0.
         24    2    1    2    0    0 -0.12370836521E+02 -0.91106069228E+02 -0.78260034401E+03  0.79174787578E+03  0.77123582028E+02 0.  0.
        -11    1    4    4    0    0 -0.63021143941E+01 -0.51562360550E+02 -0.16801949474E+03  0.17586626818E+03  0.00000000000E+00 0.  1.
         12    1    4    4    0    0 -0.60687221266E+01 -0.39543708679E+02 -0.61458084927E+03  0.61588160759E+03  0.00000000000E+00 0. -1.
        -11    1    3    3    0    0  0.27817973421E+02 -0.12669651855E+02 -0.71265489186E+02  0.77544372280E+02  0.00000000000E+00 0.  1.
         11    1    3    3    0    0 -0.65787443553E+02 -0.10144485679E+02 -0.33014541282E+03  0.33678909116E+03  0.00000000000E+00 0. -1.
          1    1    1    2  501    0  0.50340306653E+02  0.11392020676E+03 -0.65101594820E+03  0.66282254396E+03  0.00000000000E+00 0. -1.
<scales pt_clust_5="13000.00000" pt_clust_6="13000.00000" pt_clust_7="13000.00000" pt_clust_8="13000.00000" pt_clust_9="108.69432"></scales>
<clustering>
<clus scale="   77.124">  5  6 -1 -1</clus>
<clus scale="   92.625">  7  8 -1 -1</clus>
<clus scale="  102.672">  2  7  1 -1</clus>
<clus scale="  108.694">  1  9  2 -1</clus>
<clus scale="  108.694">  1  5  2 -1</clus>
</clustering>
</event>
<event>
 9    2  0.1488992E-004  0.1417682E+03  0.7546771E-02  0.1226427E+00
          2   -1    0    0  502    0 -0.00000000000E+00  0.00000000000E+00  0.12361207043E+03  0.12361207043E+03  0.00000000000E+00 0. -1.
         21   -1    0    0  501  502  0.00000000000E+00 -0.00000000000E+00 -0.33250320401E+03  0.33250320401E+03  0.00000000000E+00 0. -1.
         24    2    1    2    0    0  0.42929660855E+02 -0.46593458952E+02  0.25287993370E+02  0.10547912052E+03  0.80451575860E+02 0.  0.
         23    2    1    2    0    0  0.85502974597E+02  0.38493674431E+02 -0.12843528149E+03  0.18407592694E+03  0.92713557322E+02 0.  0.
        -13    1    3    3    0    0  0.17314245178E+02  0.22080363548E+02  0.36377395097E+00  0.28061679778E+02  0.00000000000E+00 0.  1.
         14    1    3    3    0    0  0.25615415677E+02 -0.68673822500E+02  0.24924219419E+02  0.77417440740E+02  0.00000000000E+00 0. -1.
        -11    1    4    4    0    0  0.93532809206E+02  0.57139239662E+02 -0.95434309713E+02  0.14533061129E+03  0.00000000000E+00 0. -1.
         11    1    4    4    0    0 -0.80298346098E+01 -0.18645565230E+02 -0.33000971781E+02  0.38745315654E+02  0.00000000000E+00 0.  1.
          1    1    1    2  501    0 -0.12843263545E+03  0.80997845209E+01 -0.10574384546E+03  0.16656022698E+03  0.00000000000E+00 0. -1.
<scales pt_clust_5="13000.00000" pt_clust_6="13000.00000" pt_clust_7="13000.00000" pt_clust_8="13000.00000" pt_clust_9="107.24940"></scales>
<clustering>
<clus scale="   80.452">  5  6 -1 -1</clus>
<clus scale="   92.714">  7  8 -1 -1</clus>
<clus scale="  102.403">  1  5  2 -1</clus>
<clus scale="  107.249">  2  9  1 -1</clus>
<clus scale="  107.249">  2  5  1 -1</clus>
</clustering>
</event>
<event>
 9    2  0.1488992E-004  0.2304822E+03  0.7546771E-02  0.1148306E+00
         21   -1    0    0  501  502  0.00000000000E+00  0.00000000000E+00  0.10404991151E+04  0.10404991151E+04  0.00000000000E+00 0. -1.
          2   -1    0    0  502    0 -0.00000000000E+00 -0.00000000000E+00 -0.25578024532E+03  0.25578024532E+03  0.00000000000E+00 0. -1.
         24    2    1    2    0    0 -0.26860570160E+02 -0.10556538431E+03 -0.15795114782E+03  0.20791240482E+03  0.80084095718E+02 0.  0.
         23    2    1    2    0    0  0.21617976355E+03 -0.86161441836E+01  0.77870668902E+03  0.81311588555E+03  0.89249132713E+02 0.  0.
        -11    1    3    3    0    0  0.17378804847E+02 -0.82292120014E+02 -0.11157788376E+03  0.13972701965E+03  0.00000000000E+00 0.  1.
         12    1    3    3    0    0 -0.44239375007E+02 -0.23273264293E+02 -0.46373264055E+02  0.68185385171E+02  0.00000000000E+00 0. -1.
        -11    1    4    4    0    0  0.11461350738E+02  0.23311555525E+02  0.66865173367E+02  0.71733831566E+02  0.00000000000E+00 0.  1.
         11    1    4    4    0    0  0.20471841282E+03 -0.31927699709E+02  0.71184151566E+03  0.74138205398E+03  0.00000000000E+00 0. -1.
          1    1    1    2  501    0 -0.18931919339E+03  0.11418152849E+03  0.16396332854E+03  0.27525107001E+03  0.00000000000E+00 0. -1.
<scales pt_clust_5="13000.00000" pt_clust_6="13000.00000" pt_clust_7="13000.00000" pt_clust_8="13000.00000" pt_clust_9="212.50099"></scales>
<clustering>
<clus scale="   80.084">  5  6 -1 -1</clus>
<clus scale="   89.249">  7  8 -1 -1</clus>
<clus scale="  135.200">  2  5  1 -1</clus>
<clus scale="  212.501">  1  9  2 -1</clus>
<clus scale="  212.501">  1  5  2 -1</clus>
</clustering>
</event>
<event>
 9    2  0.1488992E-004  0.9565554E+02  0.7546771E-02  0.1293934E+00
         21   -1    0    0  501  502  0.00000000000E+00  0.00000000000E+00  0.77632751187E+03  0.77632751187E+03  0.00000000000E+00 0.  1.
          4   -1    0    0  502    0 -0.00000000000E+00 -0.00000000000E+00 -0.34524804134E+02  0.34524804134E+02  0.00000000000E+00 0. -1.
         24    2    1    2    0    0 -0.28817062816E+02  0.29806682915E+02  0.47292039927E+02  0.10242156250E+03  0.80837973558E+02 0.  0.
         23    2    1    2    0    0  0.14957224885E+02  0.16312861171E+02  0.47026710616E+03  0.47907451881E+03  0.88720997598E+02 0.  0.
        -11    1    3    3    0    0  0.27877621191E+02  0.28631712366E+01  0.12977177076E+02  0.30883112499E+02  0.00000000000E+00 0.  1.
         12    1    3    3    0    0 -0.56694684007E+02  0.26943511679E+02  0.34314862851E+02  0.71538450002E+02  0.00000000000E+00 0. -1.
        -13    1    4    4    0    0  0.46379208219E+02  0.31970917961E+02  0.28827565574E+03  0.29372780639E+03  0.00000000000E+00 0.  1.
         13    1    4    4    0    0 -0.31421983334E+02 -0.15658056790E+02  0.18199145042E+03  0.18534671242E+03  0.00000000000E+00 0. -1.
          3    1    1    2  501    0  0.13859837931E+02 -0.46119544086E+02  0.22424356165E+03  0.22935623470E+03  0.00000000000E+00 0. -1.
<scales pt_clust_5="13000.00000" pt_clust_6="13000.00000" pt_clust_7="13000.00000" pt_clust_8="13000.00000" pt_clust_9="48.15711"></scales>
<clustering>
<clus scale="   48.157">  1  9  2 -1</clus>
<clus scale="   80.838">  5  6 -1 -1</clus>
<clus scale="   88.393">  2  5  1 -1</clus>
<clus scale="   88.721">  7  8 -1 -1</clus>
<clus scale="   48.157">  1  5  2 -1</clus>
</clustering>
</event>
<event>
 9    2  0.1488992E-004  0.1169998E+03  0.7546771E-02  0.1256321E+00
         21   -1    0    0  501  502  0.00000000000E+00  0.00000000000E+00  0.15744660420E+03  0.15744660420E+03  0.00000000000E+00 0.  1.
          2   -1    0    0  502    0 -0.00000000000E+00 -0.00000000000E+00 -0.27018130420E+03  0.27018130420E+03  0.00000000000E+00 0. -1.
         24    2    1    2    0    0  0.65442439065E+02  0.30696980204E+02  0.81743934805E+02  0.12869275224E+03  0.68225626986E+02 0.  0.
         23    2    1    2    0    0  0.39727183583E+02 -0.51446572882E+02 -0.56547557332E+02  0.12424635497E+03  0.89523915837E+02 0.  0.
        -13    1    3    3    0    0  0.69579395014E+02  0.24508004239E+02  0.90787120700E+02  0.11697963826E+03  0.00000000000E+00 0.  1.
         14    1    3    3    0    0 -0.41369559487E+01  0.61889759645E+01 -0.90431858955E+01  0.11713113982E+02  0.00000000000E+00 0. -1.
        -13    1    4    4    0    0  0.23505463863E+02  0.11590632961E+02 -0.52920449530E+02  0.59054412048E+02  0.00000000000E+00 0.  1.
         13    1    4    4    0    0  0.16221719719E+02 -0.63037205843E+02 -0.36271078021E+01  0.65191942924E+02  0.00000000000E+00 0. -1.
          1    1    1    2  501    0 -0.10516962265E+03  0.20749592678E+02 -0.13793107748E+03  0.17468880118E+03  0.00000000000E+00 0. -1.
<scales pt_clust_5="13000.00000" pt_clust_6="13000.00000" pt_clust_7="13000.00000" pt_clust_8="13000.00000" pt_clust_9="75.32881"></scales>
<clustering>
<clus scale="   68.226">  5  6 -1 -1</clus>
<clus scale="   89.524">  7  8 -1 -1</clus>
<clus scale="   99.397">  2  5  1 -1</clus>
<clus scale="   75.329">  1  9  2 -1</clus>
<clus scale="   75.329">  1  5  2 -1</clus>
</clustering>
</event>
<event>
 9    2  0.1488992E-004  0.1362569E+03  0.7546771E-02  0.1243809E+00
         -1   -1    0    0    0  501 -0.00000000000E+00  0.00000000000E+00  0.29887643909E+03  0.29887643909E+03  0.00000000000E+00 0.  1.
         21   -1    0    0  501  502  0.00000000000E+00 -0.00000000000E+00 -0.86063496150E+02  0.86063496150E+02  0.00000000000E+00 0.  1.
         24    2    1    2    0    0 -0.48714829011E+01  0.27315004563E+02  0.45795781414E+02  0.92874102879E+02  0.75884811196E+02 0.  0.
         23    2    1    2    0    0  0.10443655432E+03 -0.20026213353E+02  0.94992728986E+02  0.16896486240E+03  0.90650223751E+02 0.  0.
        -13    1    3    3    0    0  0.33613721992E+02  0.22182996944E+02  0.13829222249E+02  0.42581862894E+02  0.00000000000E+00 0.  1.
         14    1    3    3    0    0 -0.38485204893E+02  0.51320076194E+01  0.31966559165E+02  0.50292239985E+02  0.00000000000E+00 0. -1.
        -11    1    4    4    0    0  0.18451296334E+02  0.13972336086E+02  0.69206001948E+02  0.72973606309E+02  0.00000000000E+00 0. -1.
         11    1    4    4    0    0  0.85985257981E+02 -0.33998549439E+02  0.25786727038E+02  0.95991256088E+02  0.00000000000E+00 0.  1.
         -2    1    1    2    0  502 -0.99565071414E+02 -0.72887912098E+01  0.72024432536E+02  0.12310096996E+03  0.00000000000E+00 0.  1.
<scales pt_clust_5="13000.00000" pt_clust_6="13000.00000" pt_clust_7="13000.00000" pt_clust_8="13000.00000" pt_clust_9="101.72742"></scales>
<clustering>
<clus scale="   75.885">  5  6 -1 -1</clus>
<clus scale="   80.798">  1  5  2 -1</clus>
<clus scale="   90.650">  7  8 -1 -1</clus>
<clus scale="  101.727">  2  9  1 -1</clus>
<clus scale="  101.727">  2  5  1 -1</clus>
</clustering>
</event>
<event>
 9    2  0.1488992E-004  0.1073328E+03  0.7546771E-02  0.1267758E+00
         21   -1    0    0  501  502  0.00000000000E+00  0.00000000000E+00  0.13276582977E+03  0.13276582977E+03  0.00000000000E+00 0.  1.
          4   -1    0    0  502    0 -0.00000000000E+00 -0.00000000000E+00 -0.21847264586E+03  0.21847264586E+03  0.00000000000E+00 0. -1.
         23    2    1    2    0    0 -0.55092716986E+02 -0.77534834644E+01 -0.67626087954E+02  0.12710083230E+03  0.92119540965E+02 0.  0.
         24    2    1    2    0    0  0.50302536561E+02 -0.66953790879E+02  0.42368335657E+02  0.12791804044E+03  0.86918317434E+02 0.  0.
        -13    1    4    4    0    0  0.23536059386E+02 -0.33326898617E+01  0.52995354335E+02  0.58082359579E+02  0.00000000000E+00 0.  1.
         14    1    4    4    0    0  0.26766477175E+02 -0.63621101017E+02 -0.10627018678E+02  0.69835680859E+02  0.00000000000E+00 0. -1.
        -11    1    3    3    0    0  0.71265038326E+01 -0.37805423508E+02 -0.22362681223E+02  0.44498613630E+02  0.00000000000E+00 0.  1.
         11    1    3    3    0    0 -0.62219220819E+02  0.30051940044E+02 -0.45263406731E+02  0.82602218666E+02  0.00000000000E+00 0. -1.
          3    1    1    2  501    0  0.47901804249E+01  0.74707274343E+02 -0.60449063796E+02  0.96219602899E+02  0.00000000000E+00 0. -1.
<scales pt_clust_5="13000.00000" pt_clust_6="13000.00000" pt_clust_7="13000.00000" pt_clust_8="13000.00000" pt_clust_9="74.86073"></scales>
<clustering>
<clus scale="   74.861">  1  9  2 -1</clus>
<clus scale="   86.918">  5  6 -1 -1</clus>
<clus scale="   92.120">  7  8 -1 -1</clus>
<clus scale="  102.903">  1  5  2 -1</clus>
<clus scale="   74.861">  1  5  2 -1</clus>
</clustering>
</event>
<event>
 9    2  0.1488992E-004  0.1702757E+03  0.7546771E-02  0.1179100E+00
          4   -1    0    0  502    0 -0.00000000000E+00  0.00000000000E+00  0.90178950866E+03  0.90178950866E+03  0.00000000000E+00 0. -1.
         21   -1    0    0  501  502  0.00000000000E+00 -0.00000000000E+00 -0.19293290073E+03  0.19293290073E+03  0.00000000000E+00 0. -1.
         23    2    1    2    0    0 -0.10118402104E+03  0.11027798685E+03  0.64287477229E+03  0.66624466590E+03  0.90523706813E+02 0.  0.
         24    2    1    2    0    0  0.10348486929E+03 -0.84728365638E+02  0.22166702991E+03  0.27069321713E+03  0.79060303168E+02 0.  0.
        -11    1    4    4    0    0  0.67849323930E+02 -0.94940247266E+02  0.15039436782E+03  0.19035663157E+03  0.00000000000E+00 0.  1.
         12    1    4    4    0    0  0.35635545358E+02  0.10211881628E+02  0.71272662082E+02  0.80336585561E+02  0.00000000000E+00 0. -1.
        -11    1    3    3    0    0 -0.41485961170E+02  0.15918656122E+02  0.72425202421E+02  0.84969986070E+02  0.00000000000E+00 0.  1.
         11    1    3    3    0    0 -0.59698059869E+02  0.94359330732E+02  0.57044956987E+03  0.58127467983E+03  0.00000000000E+00 0. -1.
          3    1    1    2  501    0 -0.23008482485E+01 -0.25549621216E+02 -0.15568519426E+03  0.15778452636E+03  0.00000000000E+00 0. -1.
<scales pt_clust_5="13000.00000" pt_clust_6="13000.00000" pt_clust_7="13000.00000" pt_clust_8="13000.00000" pt_clust_9="25.65301"></scales>
<clustering>
<clus scale="   25.653">  2  9  1 -1</clus>
<clus scale="   79.060">  5  6 -1 -1</clus>
<clus scale="   90.524">  7  8 -1 -1</clus>
<clus scale="  164.468">  2  5  1 -1</clus>
<clus scale="   25.653">  2  5  1 -1</clus>
</clustering>
</event>
<event>
 9    2  0.1488992E-004  0.1428684E+03  0.7546771E-02  0.1213593E+00
         21   -1    0    0  501  502  0.00000000000E+00  0.00000000000E+00  0.16070047881E+03  0.16070047881E+03  0.00000000000E+00 0.  1.
          2   -1    0    0  502    0 -0.00000000000E+00 -0.00000000000E+00 -0.16756795036E+03  0.16756795036E+03  0.00000000000E+00 0. -1.
         23    2    1    2    0    0 -0.11354422235E+03  0.49068212888E+02 -0.10838454220E+02  0.15857718598E+03  0.98637071531E+02 0.  0.
         24    2    1    2    0    0  0.79967290556E+02 -0.22784669390E+02  0.30236920996E+02  0.11960996402E+03  0.80488281028E+02 0.  0.
        -11    1    4    4    0    0  0.66115099505E+02  0.16602404470E+02  0.36606510255E+02  0.77374949497E+02  0.00000000000E+00 0.  1.
         12    1    4    4    0    0  0.13852191051E+02 -0.39387073860E+02 -0.63695892590E+01  0.42235014520E+02  0.00000000000E+00 0. -1.
        -11    1    3    3    0    0 -0.60982438862E+02  0.58917869873E+02 -0.44123440260E+02  0.95587924030E+02  0.00000000000E+00 0. -1.
         11    1    3    3    0    0 -0.52561783483E+02 -0.98496569852E+01  0.33284986040E+02  0.62989261953E+02  0.00000000000E+00 0.  1.
          1    1    1    2  501    0  0.33576931790E+02 -0.26283543498E+02 -0.26265938330E+02  0.50081279173E+02  0.00000000000E+00 0. -1.
<scales pt_clust_5="13000.00000" pt_clust_6="13000.00000" pt_clust_7="13000.00000" pt_clust_8="13000.00000" pt_clust_9="42.64079"></scales>
<clustering>
<clus scale="   42.641">  1  9  2 -1</clus>
<clus scale="   80.488">  5  6 -1 -1</clus>
<clus scale="   98.637">  7  8 -1 -1</clus>
<clus scale="  130.998">  1  5  2 -1</clus>
<clus scale="   42.641">  1  5  2 -1</clus>
</clustering>
</event>
<event>
 9    2  0.1488992E-004  0.9413052E+02  0.7546771E-02  0.1298432E+00
          2   -1    0    0  502    0 -0.00000000000E+00  0.00000000000E+00  0.10017309390E+03  0.10017309390E+03  0.00000000000E+00 0. -1.
         21   -1    0    0  501  502  0.00000000000E+00 -0.00000000000E+00 -0.21928935100E+03  0.21928935100E+03  0.00000000000E+00 0. -1.
         23    2    1    2    0    0 -0.20512340414E+02 -0.17223335982E+01  0.34381062099E+02  0.10042242896E+03  0.92080857217E+02 0.  0.
         24    2    1    2    0    0  0.11581729074E+02  0.22182351695E+02 -0.27397067094E+02  0.90978929967E+02  0.83068485224E+02 0.  0.
        -13    1    4    4    0    0  0.35034017496E+02 -0.18559879576E+02 -0.14704232931E+02  0.42285529179E+02  0.00000000000E+00 0.  1.
         14    1    4    4    0    0 -0.23452288422E+02  0.40742231272E+02 -0.12692834163E+02  0.48693400788E+02  0.00000000000E+00 0. -1.
        -13    1    3    3    0    0 -0.23255249812E+02  0.31324552862E+02 -0.14273331059E+02  0.41542294537E+02  0.00000000000E+00 0. -1.
         13    1    3    3    0    0  0.27429093984E+01 -0.33046886460E+02  0.48654393158E+02  0.58880134428E+02  0.00000000000E+00 0.  1.
          1    1    1    2  501    0  0.89306113393E+01 -0.20460018097E+02 -0.12610025210E+03  0.12806108597E+03  0.00000000000E+00 0. -1.
<scales pt_clust_5="13000.00000" pt_clust_6="13000.00000" pt_clust_7="13000.00000" pt_clust_8="13000.00000" pt_clust_9="22.32416"></scales>
<clustering>
<clus scale="   22.324">  2  9  1 -1</clus>
<clus scale="   83.068">  5  6 -1 -1</clus>
<clus scale="   85.335">  2  5  1 -1</clus>
<clus scale="   92.081">  7  8 -1 -1</clus>
<clus scale="   22.324">  2  5  1 -1</clus>
</clustering>
</event>
<event>
 9    2  0.1488992E-004  0.1406247E+03  0.7546771E-02  0.1250343E+00
          2   -1    0    0  502    0 -0.00000000000E+00  0.00000000000E+00  0.15859153091E+03  0.15859153091E+03  0.00000000000E+00 0. -1.
         21   -1    0    0  501  502  0.00000000000E+00 -0.00000000000E+00 -0.40542244338E+03  0.40542244338E+03  0.00000000000E+00 0. -1.
         24    2    1    2    0    0 -0.28009519880E+01 -0.15926803649E+02  0.10618698783E+02  0.65335006607E+02  0.62405111313E+02 0.  0.
         23    2    1    2    0    0 -0.90250648345E+02 -0.40585419512E+02  0.71880564573E+02  0.15182078860E+03  0.89946542365E+02 0.  0.
        -11    1    3    3    0    0  0.28970719299E+02 -0.35682886632E+00  0.66953464770E+01  0.29736468654E+02  0.00000000000E+00 0.  1.
         12    1    3    3    0    0 -0.31771671287E+02 -0.15569974782E+02  0.39233523064E+01  0.35598537953E+02  0.00000000000E+00 0. -1.
        -11    1    4    4    0    0 -0.63808239127E+02 -0.87681154328E+01 -0.49103140521E+01  0.64594755304E+02  0.00000000000E+00 0.  1.
         11    1    4    4    0    0 -0.26442409218E+02 -0.31817304079E+02  0.76790878625E+02  0.87226033293E+02  0.00000000000E+00 0. -1.
          1    1    1    2  501    0  0.93051600333E+02  0.56512223160E+02 -0.32933017583E+03  0.34685817909E+03  0.00000000000E+00 0. -1.
<scales pt_clust_5="13000.00000" pt_clust_6="13000.00000" pt_clust_7="13000.00000" pt_clust_8="13000.00000" pt_clust_9="108.09689"></scales>
<clustering>
<clus scale="   62.405">  5  6 -1 -1</clus>
<clus scale="   64.466">  1  5  2 -1</clus>
<clus scale="   89.947">  7  8 -1 -1</clus>
<clus scale="  108.097">  2  9  1 -1</clus>
<clus scale="  108.097">  2  5  1 -1</clus>
</clustering>
</event>
<event>
 9    2  0.1488992E-004  0.1449230E+03  0.7546771E-02  0.1209565E+00
         21   -1    0    0  501  502  0.00000000000E+00  0.00000000000E+00  0.64385837288E+02  0.64385837288E+02  0.00000000000E+00 0.  1.
          2   -1    0    0  502    0 -0.00000000000E+00 -0.00000000000E+00 -0.39229965425E+03  0.39229965425E+03  0.00000000000E+00 0. -1.
         24    2    1    2    0    0  0.67764105344E+02  0.98544044659E+02 -0.16043319463E+03  0.21592667169E+03  0.81133315575E+02 0.  0.
         23    2    1    2    0    0 -0.77750574405E+02 -0.65924357221E+02 -0.13356201017E+03  0.19265221091E+03  0.94259700359E+02 0.  0.
        -11    1    3    3    0    0  0.32527778284E+01  0.62187543974E+02 -0.10976965749E+03  0.12620320477E+03  0.00000000000E+00 0.  1.
         12    1    3    3    0    0  0.64511327516E+02  0.36356500685E+02 -0.50663537140E+02  0.89723466916E+02  0.00000000000E+00 0. -1.
        -11    1    4    4    0    0 -0.36428391036E+02 -0.58711835418E+02 -0.13393091990E+03  0.15070367812E+03  0.00000000000E+00 0. -1.
         11    1    4    4    0    0 -0.41322183369E+02 -0.72125218030E+01  0.36890973072E+00  0.41948532793E+02  0.00000000000E+00 0.  1.
          1    1    1    2  501    0  0.99864690601E+01 -0.32619687438E+02 -0.33918612151E+02  0.48106608934E+02  0.00000000000E+00 0. -1.
<scales pt_clust_5="13000.00000" pt_clust_6="13000.00000" pt_clust_7="13000.00000" pt_clust_8="13000.00000" pt_clust_9="34.11413"></scales>
<clustering>
<clus scale="   34.114">  1  9  2 -1</clus>
<clus scale="   81.133">  5  6 -1 -1</clus>
<clus scale="   94.260">  7  8 -1 -1</clus>
<clus scale="  136.749">  2  5  1 -1</clus>
<clus scale="   34.114">  1  5  2 -1</clus>
</clustering>
</event>
<event>
 9    2  0.1488992E-004  0.1066453E+03  0.7546771E-02  0.1273562E+00
         21   -1    0    0  501  502  0.00000000000E+00  0.00000000000E+00  0.14610308183E+03  0.14610308183E+03  0.00000000000E+00 0. -1.
          2   -1    0    0  502    0 -0.00000000000E+00 -0.00000000000E+00 -0.94684493446E+02  0.94684493446E+02  0.00000000000E+00 0. -1.
         23    2    1    2    0    0  0.28734998828E+02  0.16269168725E+02  0.25345708026E+02  0.10325809151E+03  0.94495727621E+02 0.  0.
         24    2    1    2    0    0 -0.55584306152E+02 -0.33830741750E+02  0.17982146613E+02  0.10444241494E+03  0.79691444113E+02 0.  0.
        -13    1    4    4    0    0  0.18776776301E+02 -0.18316209958E+02 -0.61049332290E+00  0.26237827227E+02  0.00000000000E+00 0.  1.
         14    1    4    4    0    0 -0.74361082453E+02 -0.15514531792E+02  0.18592639936E+02  0.78204587717E+02  0.00000000000E+00 0. -1.
        -13    1    3    3    0    0  0.16141747830E+02  0.54455506450E+02  0.21504822706E+01  0.56838215839E+02  0.00000000000E+00 0.  1.
         13    1    3    3    0    0  0.12593250998E+02 -0.38186337725E+02  0.23195225756E+02  0.46419875672E+02  0.00000000000E+00 0. -1.
          1    1    1    2  501    0  0.26849307324E+02  0.17561573025E+02  0.80907337498E+01  0.33087068826E+02  0.00000000000E+00 0. -1.
<scales pt_clust_5="13000.00000" pt_clust_6="13000.00000" pt_clust_7="13000.00000" pt_clust_8="13000.00000" pt_clust_9="32.08261"></scales>
<clustering>
<clus scale="   32.083">  1  9  2 -1</clus>
<clus scale="   79.691">  5  6 -1 -1</clus>
<clus scale="   93.779">  1  5  2 -1</clus>
<clus scale="   94.496">  7  8 -1 -1</clus>
<clus scale="   32.083">  1  5  2 -1</clus>
</clustering>
</event>
<event>
 9    2  0.1488992E-004  0.1481227E+03  0.7546771E-02  0.1222221E+00
         -1   -1    0    0    0  501 -0.00000000000E+00  0.00000000000E+00  0.11726956755E+03  0.11726956755E+03  0.00000000000E+00 0.  1.
         21   -1    0    0  501  502  0.00000000000E+00 -0.00000000000E+00 -0.10648604617E+04  0.10648604617E+04  0.00000000000E+00 0.  1.
         23    2    1    2    0    0  0.22907611176E+02  0.28334996958E+02  0.54132841969E+02  0.11196347018E+03  0.90982544325E+02 0.  0.
         24    2    1    2    0    0  0.91974901462E+02 -0.79137513932E+02 -0.14915027946E+03  0.20838910148E+03  0.80362199692E+02 0.  0.
        -11    1    4    4    0    0  0.50341174887E+02 -0.89434518502E+02 -0.10374138506E+03  0.14592820825E+03  0.00000000000E+00 0.  1.
         12    1    4    4    0    0  0.41633726575E+02  0.10297004570E+02 -0.45408894402E+02  0.62460893225E+02  0.00000000000E+00 0. -1.
        -13    1    3    3    0    0  0.37832833184E+02  0.51256071030E+02  0.17167595590E+02  0.65979045329E+02  0.00000000000E+00 0.  1.
         13    1    3    3    0    0 -0.14925222008E+02 -0.22921074073E+02  0.36965246379E+02  0.45984424847E+02  0.00000000000E+00 0. -1.
         -2    1    1    2    0  502 -0.11488251264E+03  0.50802516975E+02 -0.85257345664E+03  0.86177745759E+03  0.00000000000E+00 0.  1.
<scales pt_clust_5="13000.00000" pt_clust_6="13000.00000" pt_clust_7="13000.00000" pt_clust_8="13000.00000" pt_clust_9="124.42769"></scales>
<clustering>
<clus scale="   80.362">  5  6 -1 -1</clus>
<clus scale="   90.983">  7  8 -1 -1</clus>
<clus scale="   98.007">  1  7  2 -1</clus>
<clus scale="  124.428">  2  9  1 -1</clus>
<clus scale="  124.428">  2  5  1 -1</clus>
</clustering>
</event>
<event>
 9    2  0.1488992E-004  0.1608304E+03  0.7546771E-02  0.1198559E+00
         21   -1    0    0  501  502  0.00000000000E+00  0.00000000000E+00  0.11121198405E+03  0.11121198405E+03  0.00000000000E+00 0.  1.
          2   -1    0    0  502    0 -0.00000000000E+00 -0.00000000000E+00 -0.45962307242E+03  0.45962307242E+03  0.00000000000E+00 0. -1.
         24    2    1    2    0    0  0.16450181657E+02 -0.95381812472E+02 -0.64569430969E+02  0.14234905323E+03  0.82010626819E+02 0.  0.
         23    2    1    2    0    0 -0.85020251155E+02 -0.45545872119E+02 -0.22523193716E+03  0.26116127100E+03  0.90404172370E+02 0.  0.
        -11    1    3    3    0    0 -0.32158089953E+02 -0.54678788825E+02 -0.33800759867E+02  0.71877702136E+02  0.00000000000E+00 0.  1.
         12    1    3    3    0    0  0.48608271610E+02 -0.40703023648E+02 -0.30768671102E+02  0.70471351089E+02  0.00000000000E+00 0. -1.
        -13    1    4    4    0    0 -0.64341428530E+02  0.97410809097E+01 -0.72509858733E+02  0.97428885327E+02  0.00000000000E+00 0. -1.
         13    1    4    4    0    0 -0.20678822624E+02 -0.55286953029E+02 -0.15272207842E+03  0.16373238567E+03  0.00000000000E+00 0.  1.
          1    1    1    2  501    0  0.68570069497E+02  0.14092768459E+03 -0.58609720239E+02  0.16732473225E+03  0.00000000000E+00 0. -1.
<scales pt_clust_5="13000.00000" pt_clust_6="13000.00000" pt_clust_7="13000.00000" pt_clust_8="13000.00000" pt_clust_9="133.01697"></scales>
<clustering>
<clus scale="   82.011">  5  6 -1 -1</clus>
<clus scale="   90.404">  7  8 -1 -1</clus>
<clus scale="  126.862">  2  5  1 -1</clus>
<clus scale="  133.017">  1  9  2 -1</clus>
<clus scale="  133.017">  1  5  2 -1</clus>
</clustering>
</event>
<event>
 9    2  0.1488992E-004  0.2904027E+03  0.7546771E-02  0.1090432E+00
         21   -1    0    0  501  502  0.00000000000E+00  0.00000000000E+00  0.39747244767E+02  0.39747244767E+02  0.00000000000E+00 0. -1.
          2   -1    0    0  502    0 -0.00000000000E+00 -0.00000000000E+00 -0.36818080600E+04  0.36818080600E+04  0.00000000000E+00 0. -1.
         24    2    1    2    0    0  0.76475550022E+02 -0.32632722355E+03 -0.19183823004E+04  0.19492804828E+04  0.84650950963E+02 0.  0.
         23    2    1    2    0    0  0.49249673535E+02  0.22160949819E+03 -0.91568232028E+03  0.94787777913E+03  0.91988436615E+02 0.  0.
        -13    1    3    3    0    0  0.63434238750E+02 -0.12655350217E+03 -0.65387250823E+03  0.66902088800E+03  0.00000000000E+00 0.  1.
         14    1    3    3    0    0  0.13041311272E+02 -0.19977372138E+03 -0.12645097922E+04  0.12802595948E+04  0.00000000000E+00 0. -1.
        -11    1    4    4    0    0  0.53093459048E+02  0.14819263013E+03 -0.75412829156E+03  0.77038266540E+03  0.00000000000E+00 0.  1.
         11    1    4    4    0    0 -0.38437855124E+01  0.73416868069E+02 -0.16155402872E+03  0.17749511373E+03  0.00000000000E+00 0. -1.
          1    1    1    2  501    0 -0.12572522356E+03  0.10471772535E+03 -0.80799619450E+03  0.82439704280E+03  0.00000000000E+00 0. -1.
<scales pt_clust_5="13000.00000" pt_clust_6="13000.00000" pt_clust_7="13000.00000" pt_clust_8="13000.00000" pt_clust_9="163.62353"></scales>
<clustering>
<clus scale="   84.651">  5  6 -1 -1</clus>
<clus scale="   91.988">  7  8 -1 -1</clus>
<clus scale="  163.624">  1  9  2 -1</clus>
<clus scale="  288.163">  2  5  1 -1</clus>
<clus scale="  163.624">  1  5  2 -1</clus>
</clustering>
</event>
<event>
 9    2  0.1488992E-004  0.1663410E+03  0.7546771E-02  0.1201894E+00
          2   -1    0    0  502    0 -0.00000000000E+00  0.00000000000E+00  0.66496068303E+03  0.66496068303E+03  0.00000000000E+00 0. -1.
         21   -1    0    0  501  502  0.00000000000E+00 -0.00000000000E+00 -0.99915214059E+02  0.99915214059E+02  0.00000000000E+00 0.  1.
         24    2    1    2    0    0 -0.69518062741E+02 -0.16560431447E+02  0.99570578077E+00  0.10666180824E+03  0.79175381085E+02 0.  0.
         23    2    1    2    0    0 -0.57469053375E+02 -0.10513843960E+03  0.17969708857E+03  0.23552824646E+03  0.93945344012E+02 0.  0.
        -13    1    3    3    0    0 -0.77523650527E+02  0.10562127578E+02 -0.16648146516E+01  0.78257565372E+02  0.00000000000E+00 0.  1.
         14    1    3    3    0    0  0.80055877870E+01 -0.27122559026E+02  0.26605204324E+01  0.28404242868E+02  0.00000000000E+00 0. -1.
        -13    1    4    4    0    0 -0.61104641380E+02 -0.18279495776E+02  0.59795538780E+02  0.87426675689E+02  0.00000000000E+00 0.  1.
         13    1    4    4    0    0  0.36355880040E+01 -0.86858943821E+02  0.11990154979E+03  0.14810157077E+03  0.00000000000E+00 0. -1.
          1    1    1    2  501    0  0.12698711612E+03  0.12169887104E+03  0.38435267461E+03  0.42268584239E+03  0.00000000000E+00 0. -1.
<scales pt_clust_5="13000.00000" pt_clust_6="13000.00000" pt_clust_7="13000.00000" pt_clust_8="13000.00000" pt_clust_9="137.27210"></scales>
<clustering>
<clus scale="   79.175">  5  6 -1 -1</clus>
<clus scale="   93.945">  7  8 -1 -1</clus>
<clus scale="  106.657">  1  5  2 -1</clus>
<clus scale="  137.272">  2  9  1 -1</clus>
<clus scale="  137.272">  2  5  1 -1</clus>
</clustering>
</event>
<event>
 9    2  0.1488992E-004  0.3390310E+03  0.7546771E-02  0.1082858E+00
         21   -1    0    0  501  502  0.00000000000E+00  0.00000000000E+00  0.23124090209E+03  0.23124090209E+03  0.00000000000E+00 0. -1.
          2   -1    0    0  502    0 -0.00000000000E+00 -0.00000000000E+00 -0.11206767493E+04  0.11206767493E+04  0.00000000000E+00 0. -1.
         23    2    1    2    0    0 -0.57211119050E+02  0.19285267097E+03 -0.17941882457E+02  0.22225107342E+03  0.92781267775E+02 0.  0.
         24    2    1    2    0    0  0.86720399102E+02  0.24918272904E+03 -0.33316078476E+03  0.43248030074E+03  0.80191283533E+02 0.  0.
        -13    1    4    4    0    0  0.95105835047E+01  0.23660835164E+02 -0.83453541148E+02  0.87262705949E+02  0.00000000000E+00 0.  1.
         14    1    4    4    0    0  0.77209815598E+02  0.22552189388E+03 -0.24970724361E+03  0.34521759479E+03  0.00000000000E+00 0. -1.
        -11    1    3    3    0    0 -0.25950283277E+02  0.18779746147E+03 -0.11462985250E+02  0.18992815423E+03  0.00000000000E+00 0. -1.
         11    1    3    3    0    0 -0.31260835773E+02  0.50552094932E+01 -0.64788972072E+01  0.32322919194E+02  0.00000000000E+00 0.  1.
          1    1    1    2  501    0 -0.29509280053E+02 -0.44203540001E+03 -0.53833317998E+03  0.69718627722E+03  0.00000000000E+00 0. -1.
<scales pt_clust_5="13000.00000" pt_clust_6="13000.00000" pt_clust_7="13000.00000" pt_clust_8="13000.00000" pt_clust_9="329.41081"></scales>
<clustering>
<clus scale="   80.191">  5  6 -1 -1</clus>
<clus scale="   92.781">  7  8 -1 -1</clus>
<clus scale="  221.526">  2  7  1 -1</clus>
<clus scale="  329.411">  1  9  2 -1</clus>
<clus scale="  329.411">  1  5  2 -1</clus>
</clustering>
</event>
<event>
 9    2  0.1488992E-004  0.9416185E+02  0.7546771E-02  0.1300263E+00
          2   -1    0    0  502    0 -0.00000000000E+00  0.00000000000E+00  0.37357738323E+03  0.37357738323E+03  0.00000000000E+00 0. -1.
         21   -1    0    0  501  502  0.00000000000E+00 -0.00000000000E+00 -0.49967461075E+02  0.49967461075E+02  0.00000000000E+00 0. -1.
         24    2    1    2    0    0 -0.81505948453E+01  0.19396796208E+01  0.26157433194E+03  0.27410057969E+03  0.81484980843E+02 0.  0.
         23    2    1    2    0    0  0.36917158234E+02  0.12183211543E+02  0.33467832265E+02  0.10651306363E+03  0.93346824858E+02 0.  0.
        -11    1    3    3    0    0 -0.31506869175E+02 -0.16458639032E+02  0.55603469200E+02  0.65994813365E+02  0.00000000000E+00 0.  1.
         12    1    3    3    0    0  0.23356274329E+02  0.18398318653E+02  0.20597086274E+03  0.20810576633E+03  0.00000000000E+00 0. -1.
        -11    1    4    4    0    0 -0.16709631307E+02 -0.28986199681E+02  0.12715591120E+02  0.35792426684E+02  0.00000000000E+00 0.  1.
         11    1    4    4    0    0  0.53626789541E+02  0.41169411224E+02  0.20752241145E+02  0.70720636943E+02  0.00000000000E+00 0. -1.
          1    1    1    2  501    0 -0.28766563389E+02 -0.14122891163E+02  0.28567757948E+02  0.42931200987E+02  0.00000000000E+00 0. -1.
<scales pt_clust_5="13000.00000" pt_clust_6="13000.00000" pt_clust_7="13000.00000" pt_clust_8="13000.00000" pt_clust_9="32.04639"></scales>
<clustering>
<clus scale="   32.046">  2  9  1 -1</clus>
<clus scale="   81.485">  5  6 -1 -1</clus>
<clus scale="   82.417">  1  5  2 -1</clus>
<clus scale="   93.347">  7  8 -1 -1</clus>
<clus scale="   32.046">  2  5  1 -1</clus>
</clustering>
</event>
<event>
 9    2  0.1488992E-004  0.9484912E+02  0.7546771E-02  0.1295158E+00
         21   -1    0    0  501  502  0.00000000000E+00  0.00000000000E+00  0.39404980403E+02  0.39404980403E+02  0.00000000000E+00 0.  1.
          2   -1    0    0  502    0 -0.00000000000E+00 -0.00000000000E+00 -0.58432778145E+03  0.58432778145E+03  0.00000000000E+00 0. -1.
         24    2    1    2    0    0 -0.24457967471E+02 -0.29257827571E+02 -0.37734604219E+03  0.38759781480E+03  0.79923825199E+02 0.  0.
         23    2    1    2    0    0  0.54650889416E+02 -0.38793673802E+01 -0.16085835344E+03  0.19080478936E+03  0.86771473235E+02 0.  0.
        -13    1    3    3    0    0  0.18173106810E+02 -0.15099932664E+02 -0.34462849187E+02  0.41784659286E+02  0.00000000000E+00 0.  1.
         14    1    3    3    0    0 -0.42631074281E+02 -0.14157894907E+02 -0.34288319301E+03  0.34581315552E+03  0.00000000000E+00 0. -1.
        -11    1    4    4    0    0  0.23206806439E+02  0.69618993587E+01  0.22564872517E+01  0.24333426444E+02  0.00000000000E+00 0.  1.
         11    1    4    4    0    0  0.31444082977E+02 -0.10841266739E+02 -0.16311484069E+03  0.16647136292E+03  0.00000000000E+00 0. -1.
          1    1    1    2  501    0 -0.30192921945E+02  0.33137194952E+02 -0.67184054189E+01  0.45330157690E+02  0.00000000000E+00 0. -1.
<scales pt_clust_5="13000.00000" pt_clust_6="13000.00000" pt_clust_7="13000.00000" pt_clust_8="13000.00000" pt_clust_9="44.82952"></scales>
<clustering>
<clus scale="   44.830">  1  9  2 -1</clus>
<clus scale="   79.924">  5  6 -1 -1</clus>
<clus scale="   86.771">  7  8 -1 -1</clus>
<clus scale="   88.628">  2  5  1 -1</clus>
<clus scale="   44.830">  1  5  2 -1</clus>
</clustering>
</event>
<event>
 9    2  0.1488992E-004  0.1200433E+03  0.7546771E-02  0.1246917E+00
          2   -1    0    0  502    0 -0.00000000000E+00  0.00000000000E+00  0.17984925870E+03  0.17984925870E+03  0.00000000000E+00 0. -1.
         21   -1    0    0  501  502  0.00000000000E+00 -0.00000000000E+00 -0.13708000191E+03  0.13708000191E+03  0.00000000000E+00 0. -1.
         24    2    1    2    0    0 -0.52682164817E+02  0.54394378712E+02  0.94794710772E+02  0.14534737816E+03  0.80035393561E+02 0.  0.
         23    2    1    2    0    0  0.72026020272E+02 -0.43397515064E+02 -0.69921784661E+02  0.14302677073E+03  0.92176511455E+02 0.  0.
        -13    1    3    3    0    0  0.14990700810E+02  0.37081855780E+02  0.40013658010E+02  0.56576302161E+02  0.00000000000E+00 0.  1.
         14    1    3    3    0    0 -0.67672865626E+02  0.17312522932E+02  0.54781052762E+02  0.88771075999E+02  0.00000000000E+00 0. -1.
        -11    1    4    4    0    0 -0.15874538433E+02 -0.31123216018E+02 -0.11545602608E+02  0.36796147697E+02  0.00000000000E+00 0.  1.
         11    1    4    4    0    0  0.87900558706E+02 -0.12274299047E+02 -0.58376182053E+02  0.10623062303E+03  0.00000000000E+00 0. -1.
          1    1    1    2  501    0 -0.19343855456E+02 -0.10996863647E+02  0.17896330682E+02  0.28555111729E+02  0.00000000000E+00 0. -1.
<scales pt_clust_5="13000.00000" pt_clust_6="13000.00000" pt_clust_7="13000.00000" pt_clust_8="13000.00000" pt_clust_9="22.25121"></scales>
<clustering>
<clus scale="   22.251">  2  9  1 -1</clus>
<clus scale="   80.035">  5  6 -1 -1</clus>
<clus scale="   92.177">  7  8 -1 -1</clus>
<clus scale="  110.993">  1  5  2 -1</clus>
<clus scale="   22.251">  2  5  1 -1</clus>
</clustering>
</event>
<event>
 9    2  0.1488992E-004  0.8293120E+02  0.7546771E-02  0.1322522E+00
          2   -1    0    0  502    0 -0.00000000000E+00  0.00000000000E+00  0.17842316067E+03  0.17842316067E+03  0.00000000000E+00 0. -1.
         21   -1    0    0  501  502  0.00000000000E+00 -0.00000000000E+00 -0.24263065302E+03  0.24263065302E+03  0.00000000000E+00 0. -1.
         23    2    1    2    0    0  0.22633803761E+02  0.25575793180E+02  0.13871903529E+03  0.16059373906E+03  0.73355081642E+02 0.  0.
         24    2    1    2    0    0 -0.32472513720E+02  0.40301022430E+01 -0.21235345696E+03  0.22786902903E+03  0.75892014313E+02 0.  0.
        -13    1    4    4    0    0 -0.12935038140E+02 -0.33841215840E+02 -0.13241169787E+03  0.13727855199E+03  0.00000000000E+00 0.  1.
         14    1    4    4    0    0 -0.19537475580E+02  0.37871318083E+02 -0.79941759084E+02  0.90590477043E+02  0.00000000000E+00 0. -1.
        -11    1    3    3    0    0 -0.19049580213E+02  0.33405722533E+02  0.63209991156E+02  0.73988727427E+02  0.00000000000E+00 0.  1.
         11    1    3    3    0    0  0.41683383974E+02 -0.78299293537E+01  0.75509044137E+02  0.86605011632E+02  0.00000000000E+00 0. -1.
          1    1    1    2  501    0  0.98387099592E+01 -0.29605895423E+02  0.94269293142E+01  0.32591045607E+02  0.00000000000E+00 0. -1.
<scales pt_clust_5="13000.00000" pt_clust_6="13000.00000" pt_clust_7="13000.00000" pt_clust_8="13000.00000" pt_clust_9="31.19792"></scales>
<clustering>
<clus scale="   31.198">  2  9  1 -1</clus>
<clus scale="   73.355">  7  8 -1 -1</clus>
<clus scale="   75.892">  5  6 -1 -1</clus>
<clus scale="   80.616">  1  7  2 -1</clus>
<clus scale="   31.198">  2  5  1 -1</clus>
</clustering>
</event>
<event>
 9    2  0.1488992E-004  0.1233043E+03  0.7546771E-02  0.1240509E+00
         21   -1    0    0  501  502  0.00000000000E+00  0.00000000000E+00  0.39281202798E+03  0.39281202798E+03  0.00000000000E+00 0.  1.
          2   -1    0    0  502    0 -0.00000000000E+00 -0.00000000000E+00 -0.17519658827E+03  0.17519658827E+03  0.00000000000E+00 0. -1.
         23    2    1    2    0    0  0.48762663038E+02 -0.81572828448E+02 -0.12047105869E+03  0.17833013849E+03  0.90864947398E+02 0.  0.
         24    2    1    2    0    0 -0.42257491557E+02  0.24139373048E+02  0.76838556198E+02  0.12211277300E+03  0.81479817663E+02 0.  0.
        -13    1    4    4    0    0 -0.41104901042E+02  0.49882238760E+02  0.70359277132E+02  0.95542024848E+02  0.00000000000E+00 0.  1.
         14    1    4    4    0    0 -0.11525905144E+01 -0.25742865712E+02  0.64792790659E+01  0.26570748149E+02  0.00000000000E+00 0. -1.
        -13    1    3    3    0    0  0.42577340596E+02 -0.31325108503E+02 -0.11603679434E+03  0.12750933297E+03  0.00000000000E+00 0. -1.
         13    1    3    3    0    0  0.61853224421E+01 -0.50247719945E+02 -0.44342643516E+01  0.50820805520E+02  0.00000000000E+00 0.  1.
          1    1    1    2  501    0 -0.65051714817E+01  0.57433455399E+02  0.26124794221E+03  0.26756570476E+03  0.00000000000E+00 0. -1.
<scales pt_clust_5="13000.00000" pt_clust_6="13000.00000" pt_clust_7="13000.00000" pt_clust_8="13000.00000" pt_clust_9="57.80068"></scales>
<clustering>
<clus scale="   57.801">  1  9  2 -1</clus>
<clus scale="   81.480">  5  6 -1 -1</clus>
<clus scale="   90.865">  7  8 -1 -1</clus>
<clus scale="  116.561">  1  5  2 -1</clus>
<clus scale="   57.801">  1  5  2 -1</clus>
</clustering>
</event>
<event>
 9    2  0.1488992E-004  0.1009453E+03  0.7546771E-02  0.1282315E+00
         21   -1    0    0  501  502  0.00000000000E+00  0.00000000000E+00  0.16225524360E+03  0.16225524360E+03  0.00000000000E+00 0.  1.
         -1   -1    0    0    0  501 -0.00000000000E+00 -0.00000000000E+00 -0.12527522362E+03  0.12527522362E+03  0.00000000000E+00 0.  1.
         23    2    1    2    0    0 -0.50475616060E+02  0.89538248199E+01 -0.40790545988E+02  0.11001839148E+03  0.88386758202E+02 0.  0.
         24    2    1    2    0    0  0.34392736037E+02 -0.39000869997E+02  0.29926450064E+01  0.95334089542E+02  0.79848009067E+02 0.  0.
        -11    1    4    4    0    0  0.20224689634E+01 -0.55621820772E+02 -0.10281952711E+02  0.56600316945E+02  0.00000000000E+00 0.  1.
         12    1    4    4    0    0  0.32370267074E+02  0.16620950774E+02  0.13274597717E+02  0.38733772597E+02  0.00000000000E+00 0. -1.
        -13    1    3    3    0    0  0.11602189027E+02 -0.27585868088E+02 -0.15276261747E+02  0.33599926806E+02  0.00000000000E+00 0.  1.
         13    1    3    3    0    0 -0.62077805087E+02  0.36539692908E+02 -0.25514284242E+02  0.76418464670E+02  0.00000000000E+00 0. -1.
         -2    1    1    2    0  502  0.16082880023E+02  0.30047045178E+02  0.74777920962E+02  0.82177986207E+02  0.00000000000E+00 0.  1.
<scales pt_clust_5="13000.00000" pt_clust_6="13000.00000" pt_clust_7="13000.00000" pt_clust_8="13000.00000" pt_clust_9="34.08055"></scales>
<clustering>
<clus scale="   34.081">  1  9  2 -1</clus>
<clus scale="   79.848">  5  6 -1 -1</clus>
<clus scale="   88.387">  7  8 -1 -1</clus>
<clus scale="   93.560">  1  5  2 -1</clus>
<clus scale="   34.081">  1  5  2 -1</clus>
</clustering>
</event>
<event>
 9    2  0.1488992E-004  0.1306285E+03  0.7546771E-02  0.1229332E+00
          2   -1    0    0  502    0 -0.00000000000E+00  0.00000000000E+00  0.10109159351E+04  0.10109159351E+04  0.00000000000E+00 0. -1.
         21   -1    0    0  501  502  0.00000000000E+00 -0.00000000000E+00 -0.34426132367E+02  0.34426132367E+02  0.00000000000E+00 0.  1.
         23    2    1    2    0    0  0.89142531149E+02  0.29213919421E+02  0.67684611295E+03  0.68921806354E+03  0.90005747297E+02 0.  0.
         24    2    1    2    0    0 -0.10285530650E+03  0.15252077268E+01  0.13158411252E+03  0.18472693378E+03  0.78918445630E+02 0.  0.
        -11    1    4    4    0    0 -0.10926865038E+03  0.18412144862E+02  0.11963851965E+03  0.16307059950E+03  0.00000000000E+00 0.  1.
         12    1    4    4    0    0  0.64133438807E+01 -0.16886937136E+02  0.11945592866E+02  0.21656334281E+02  0.00000000000E+00 0. -1.
        -11    1    3    3    0    0  0.76740412710E+02  0.57336344770E+02  0.57176309503E+03  0.57973233843E+03  0.00000000000E+00 0. -1.
         11    1    3    3    0    0  0.12402118439E+02 -0.28122425349E+02  0.10508301792E+03  0.10948572512E+03  0.00000000000E+00 0.  1.
          1    1    1    2  501    0  0.13712775355E+02 -0.30739127148E+02  0.16805957727E+03  0.17139707015E+03  0.00000000000E+00 0. -1.
<scales pt_clust_5="13000.00000" pt_clust_6="13000.00000" pt_clust_7="13000.00000" pt_clust_8="13000.00000" pt_clust_9="33.65910"></scales>
<clustering>
<clus scale="   33.659">  2  9  1 -1</clus>
<clus scale="   78.918">  5  6 -1 -1</clus>
<clus scale="   90.006">  7  8 -1 -1</clus>
<clus scale="  123.251">  2  5  1 -1</clus>
<clus scale="   33.659">  2  5  1 -1</clus>
</clustering>
</event>
<event>
 9    2  0.1488992E-004  0.9337928E+02  0.7546771E-02  0.1301877E+00
         21   -1    0    0  501  502  0.00000000000E+00  0.00000000000E+00  0.48350297456E+03  0.48350297456E+03  0.00000000000E+00 0.  1.
         -1   -1    0    0    0  501 -0.00000000000E+00 -0.00000000000E+00 -0.24991183161E+03  0.24991183161E+03  0.00000000000E+00 0.  1.
         24    2    1    2    0    0  0.79843507545E+01 -0.11636338864E+02 -0.22858253089E+03  0.24278422051E+03  0.80591873422E+02 0.  0.
         23    2    1    2    0    0 -0.37118001456E+02  0.52013607246E+02  0.27564511253E+03  0.29757101560E+03  0.92114710508E+02 0.  0.
        -11    1    3    3    0    0  0.12989034218E+02  0.31827539467E+02 -0.65973644442E+02  0.74392399070E+02  0.00000000000E+00 0.  1.
         12    1    3    3    0    0 -0.50046834637E+01 -0.43463878331E+02 -0.16260888645E+03  0.16839182144E+03  0.00000000000E+00 0. -1.
        -11    1    4    4    0    0 -0.65584033499E+02  0.20317269851E+02  0.18736702508E+03  0.19955064268E+03  0.00000000000E+00 0.  1.
         11    1    4    4    0    0  0.28466032043E+02  0.31696337394E+02  0.88278087448E+02  0.98020372923E+02  0.00000000000E+00 0. -1.
         -2    1    1    2    0  502  0.29133650702E+02 -0.40377268382E+02  0.18652856131E+03  0.19305957006E+03  0.00000000000E+00 0.  1.
<scales pt_clust_5="13000.00000" pt_clust_6="13000.00000" pt_clust_7="13000.00000" pt_clust_8="13000.00000" pt_clust_9="49.79050"></scales>
<clustering>
<clus scale="   49.790">  1  9  2 -1</clus>
<clus scale="   80.592">  5  6 -1 -1</clus>
<clus scale="   82.034">  2  5  1 -1</clus>
<clus scale="   92.115">  7  8 -1 -1</clus>
<clus scale="   49.790">  1  5  2 -1</clus>
</clustering>
</event>
<event>
 9    2  0.1488992E-004  0.3706752E+03  0.7546771E-02  0.1086775E+00
         21   -1    0    0  501  502  0.00000000000E+00  0.00000000000E+00  0.37327846298E+03  0.37327846298E+03  0.00000000000E+00 0. -1.
          2   -1    0    0  502    0 -0.00000000000E+00 -0.00000000000E+00 -0.69734411505E+03  0.69734411505E+03  0.00000000000E+00 0. -1.
         24    2    1    2    0    0  0.45606938734E+02 -0.12083887607E+03 -0.25618829300E+03  0.29822905237E+03  0.81400856145E+02 0.  0.
         23    2    1    2    0    0 -0.35058036809E+03  0.16409545914E+03  0.11039805192E+03  0.41649740773E+03  0.10699741388E+03 0.  0.
        -13    1    3    3    0    0 -0.13313888695E+02 -0.22300193993E+02 -0.12446099103E+02  0.28800410886E+02  0.00000000000E+00 0.  1.
         14    1    3    3    0    0  0.58920827429E+02 -0.98538682078E+02 -0.24374219389E+03  0.26942864149E+03  0.00000000000E+00 0. -1.
        -11    1    4    4    0    0 -0.16142100980E+03  0.49568055650E+02  0.97513538853E+02  0.19499390966E+03  0.00000000000E+00 0.  1.
         11    1    4    4    0    0 -0.18915935829E+03  0.11452740349E+03  0.12884513062E+02  0.22150349806E+03  0.00000000000E+00 0. -1.
          1    1    1    2  501    0  0.30497342935E+03 -0.43256583065E+02 -0.17827541099E+03  0.35589611793E+03  0.00000000000E+00 0. -1.
<scales pt_clust_5="13000.00000" pt_clust_6="13000.00000" pt_clust_7="13000.00000" pt_clust_8="13000.00000" pt_clust_9="354.89687"></scales>
<clustering>
<clus scale="   81.401">  5  6 -1 -1</clus>
<clus scale="  106.997">  7  8 -1 -1</clus>
<clus scale="  152.670">  2  5  1 -1</clus>
<clus scale="  354.897">  1  9  2 -1</clus>
<clus scale="  354.897">  1  5  2 -1</clus>
</clustering>
</event>
<event>
 9    2  0.1488992E-004  0.1516535E+03  0.7546771E-02  0.1213731E+00
         21   -1    0    0  501  502  0.00000000000E+00  0.00000000000E+00  0.12414972956E+03  0.12414972956E+03  0.00000000000E+00 0.  1.
          4   -1    0    0  502    0 -0.00000000000E+00 -0.00000000000E+00 -0.45024469753E+03  0.45024469753E+03  0.00000000000E+00 0. -1.
         23    2    1    2    0    0  0.74975853704E+02 -0.12008298476E+02  0.22093701651E+02  0.11141888964E+03  0.78488594363E+02 0.  0.
         24    2    1    2    0    0 -0.11690731508E+03 -0.91843460651E+02 -0.11175218720E+03  0.20135435033E+03  0.77152326414E+02 0.  0.
        -11    1    4    4    0    0 -0.10667830310E+03 -0.81281871772E+02 -0.58871963119E+02  0.14646812306E+03  0.00000000000E+00 0.  1.
         12    1    4    4    0    0 -0.10229011977E+02 -0.10561588879E+02 -0.52880224076E+02  0.54886227271E+02  0.00000000000E+00 0. -1.
        -13    1    3    3    0    0  0.18702300457E+02  0.31893816226E+02  0.97000795836E+00  0.36985571123E+02  0.00000000000E+00 0. -1.
         13    1    3    3    0    0  0.56273553247E+02 -0.43902114702E+02  0.21123693693E+02  0.74433318517E+02  0.00000000000E+00 0.  1.
          3    1    1    2  501    0  0.41931461374E+02  0.10385175913E+03 -0.23643648243E+03  0.26162118712E+03  0.00000000000E+00 0. -1.
<scales pt_clust_5="13000.00000" pt_clust_6="13000.00000" pt_clust_7="13000.00000" pt_clust_8="13000.00000" pt_clust_9="130.56154"></scales>
<clustering>
<clus scale="   77.152">  5  6 -1 -1</clus>
<clus scale="   78.489">  7  8 -1 -1</clus>
<clus scale="  109.206">  2  7  1 -1</clus>
<clus scale="  130.562">  1  9  2 -1</clus>
<clus scale="  130.562">  1  5  2 -1</clus>
</clustering>
</event>
<event>
 9    2  0.1488992E-004  0.1538618E+03  0.7546771E-02  0.1224419E+00
         21   -1    0    0  501  502  0.00000000000E+00  0.00000000000E+00  0.17924932832E+03  0.17924932832E+03  0.00000000000E+00 0. -1.
          2   -1    0    0  502    0 -0.00000000000E+00 -0.00000000000E+00 -0.47389300493E+03  0.47389300493E+03  0.00000000000E+00 0. -1.
         24    2    1    2    0    0 -0.67488727656E+01  0.17542467657E+02 -0.10469845385E+02  0.84174695851E+02  0.81378598563E+02 0.  0.
         23    2    1    2    0    0 -0.51426111269E+02  0.92554905636E+02 -0.38433321182E+03  0.40916256272E+03  0.92146239990E+02 0.  0.
        -11    1    3    3    0    0 -0.25237928970E+01 -0.32758234214E+02 -0.68907412221E+01  0.33570131874E+02  0.00000000000E+00 0.  1.
         12    1    3    3    0    0 -0.42250798686E+01  0.50300701872E+02 -0.35791041627E+01  0.50604563977E+02  0.00000000000E+00 0. -1.
        -13    1    4    4    0    0  0.23753505629E+02  0.14857248249E+02 -0.44874147326E+02  0.52902324651E+02  0.00000000000E+00 0.  1.
         13    1    4    4    0    0 -0.75179616898E+02  0.77697657387E+02 -0.33945906450E+03  0.35626023807E+03  0.00000000000E+00 0. -1.
          1    1    1    2  501    0  0.58174984034E+02 -0.11009737329E+03  0.10015938060E+03  0.15980507469E+03  0.00000000000E+00 0. -1.
<scales pt_clust_5="13000.00000" pt_clust_6="13000.00000" pt_clust_7="13000.00000" pt_clust_8="13000.00000" pt_clust_9="123.21742"></scales>
<clustering>
<clus scale="   81.379">  5  6 -1 -1</clus>
<clus scale="   83.521">  2  5  1 -1</clus>
<clus scale="   92.146">  7  8 -1 -1</clus>
<clus scale="  123.217">  1  9  2 -1</clus>
<clus scale="  123.217">  1  5  2 -1</clus>
</clustering>
</event>
<event>
 9    2  0.1488992E-004  0.1404923E+03  0.7546771E-02  0.1214919E+00
         -1   -1    0    0    0  501 -0.00000000000E+00  0.00000000000E+00  0.40092229711E+03  0.40092229711E+03  0.00000000000E+00 0.  1.
         21   -1    0    0  501  502  0.00000000000E+00 -0.00000000000E+00 -0.13854999889E+03  0.13854999889E+03  0.00000000000E+00 0.  1.
         23    2    1    2    0    0 -0.80887424442E+02 -0.65002537983E+02  0.25809467826E+03  0.29210986909E+03  0.89147110429E+02 0.  0.
         24    2    1    2    0    0  0.13901151845E+03  0.20853689883E+02  0.40357784318E+02  0.16594185608E+03  0.78414732037E+02 0.  0.
        -13    1    4    4    0    0  0.14268784778E+03  0.44533443675E+01  0.29045480034E+02  0.14568216806E+03  0.00000000000E+00 0.  1.
         14    1    4    4    0    0 -0.36763293314E+01  0.16400345516E+02  0.11312304283E+02  0.20259688018E+02  0.00000000000E+00 0. -1.
        -11    1    3    3    0    0 -0.64252068318E+02 -0.86931992100E+02  0.18893346572E+03  0.21767258441E+03  0.00000000000E+00 0.  1.
         11    1    3    3    0    0 -0.16635356124E+02  0.21929454117E+02  0.69161212538E+02  0.74437284683E+02  0.00000000000E+00 0. -1.
         -2    1    1    2    0  502 -0.58124094008E+02  0.44148848100E+02 -0.36080164356E+02  0.81420570821E+02  0.00000000000E+00 0.  1.
<scales pt_clust_5="13000.00000" pt_clust_6="13000.00000" pt_clust_7="13000.00000" pt_clust_8="13000.00000" pt_clust_9="72.98994"></scales>
<clustering>
<clus scale="   72.990">  2  9  1 -1</clus>
<clus scale="   78.415">  5  6 -1 -1</clus>
<clus scale="   89.147">  7  8 -1 -1</clus>
<clus scale="  133.939">  2  5  1 -1</clus>
<clus scale="   72.990">  2  5  1 -1</clus>
</clustering>
</event>
<event>
 9    2  0.1488992E-004  0.1113067E+03  0.7546771E-02  0.1261644E+00
         21   -1    0    0  501  502  0.00000000000E+00  0.00000000000E+00  0.15496973894E+03  0.15496973894E+03  0.00000000000E+00 0.  1.
          2   -1    0    0  502    0 -0.00000000000E+00 -0.00000000000E+00 -0.14830483905E+03  0.14830483905E+03  0.00000000000E+00 0. -1.
         23    2    1    2    0    0 -0.51888925600E+02 -0.23817054065E+02 -0.76081282762E+02  0.13206006131E+03  0.91606689390E+02 0.  0.
         24    2    1    2    0    0  0.82535890763E+02  0.21458636091E+02  0.59992394171E+02  0.13297143235E+03  0.82520713372E+02 0.  0.
        -11    1    4    4    0    0  0.90679478270E+02  0.82319346234E+01  0.24594438876E+02  0.94315528682E+02  0.00000000000E+00 0.  1.
         12    1    4    4    0    0 -0.81435875067E+01  0.13226701467E+02  0.35397955295E+02  0.38655903666E+02  0.00000000000E+00 0. -1.
        -11    1    3    3    0    0 -0.47401772234E+02 -0.56909948044E+02 -0.46541262397E+02  0.87474335109E+02  0.00000000000E+00 0. -1.
         11    1    3    3    0    0 -0.44871533661E+01  0.33092893980E+02 -0.29540020365E+02  0.44585726196E+02  0.00000000000E+00 0.  1.
          1    1    1    2  501    0 -0.30646965163E+02  0.23584179739E+01  0.22753788486E+02  0.38243084336E+02  0.00000000000E+00 0. -1.
<scales pt_clust_5="13000.00000" pt_clust_6="13000.00000" pt_clust_7="13000.00000" pt_clust_8="13000.00000" pt_clust_9="30.73758"></scales>
<clustering>
<clus scale="   30.738">  1  9  2 -1</clus>
<clus scale="   82.521">  5  6 -1 -1</clus>
<clus scale="   91.607">  7  8 -1 -1</clus>
<clus scale="  103.957">  1  5  2 -1</clus>
<clus scale="   30.738">  1  5  2 -1</clus>
</clustering>
</event>
<event>
 9    2  0.1488992E-004  0.1430672E+03  0.7546771E-02  0.1211350E+00
         21   -1    0    0  501  502  0.00000000000E+00  0.00000000000E+00  0.93755850173E+02  0.93755850173E+02  0.00000000000E+00 0. -1.
          4   -1    0    0  502    0 -0.00000000000E+00 -0.00000000000E+00 -0.47730728801E+03  0.47730728801E+03  0.00000000000E+00 0. -1.
         24    2    1    2    0    0  0.39458396453E+02  0.12081435614E+03 -0.27404996846E+03  0.31263956758E+03  0.80542164715E+02 0.  0.
         23    2    1    2    0    0  0.32026653672E+02 -0.93406157548E+02 -0.12146413018E+03  0.18093533282E+03  0.90739423239E+02 0.  0.
        -13    1    3    3    0    0 -0.11723518917E+02  0.77054993665E+02 -0.10576236883E+03  0.13137957073E+03  0.00000000000E+00 0.  1.
         14    1    3    3    0    0  0.51181915371E+02  0.43759362479E+02 -0.16828759964E+03  0.18125999685E+03  0.00000000000E+00 0. -1.
        -11    1    4    4    0    0 -0.25089131684E+02 -0.68069294952E+00 -0.25556593095E+02  0.35819929120E+02  0.00000000000E+00 0.  1.
         11    1    4    4    0    0  0.57115785356E+02 -0.92725464599E+02 -0.95907537087E+02  0.14511540370E+03  0.00000000000E+00 0. -1.
          3    1    1    2  501    0 -0.71485050125E+02 -0.27408198596E+02  0.11962660807E+02  0.77488237787E+02  0.00000000000E+00 0. -1.
<scales pt_clust_5="13000.00000" pt_clust_6="13000.00000" pt_clust_7="13000.00000" pt_clust_8="13000.00000" pt_clust_9="76.55927"></scales>
<clustering>
<clus scale="   76.559">  1  9  2 -1</clus>
<clus scale="   80.542">  5  6 -1 -1</clus>
<clus scale="   90.739">  7  8 -1 -1</clus>
<clus scale="  136.827">  2  5  1 -1</clus>
<clus scale="   76.559">  1  5  2 -1</clus>
</clustering>
</event>
<event>
 9    2  0.1488992E-004  0.2300985E+03  0.7546771E-02  0.1167554E+00
          2   -1    0    0  502    0 -0.00000000000E+00  0.00000000000E+00  0.14488512947E+04  0.14488512947E+04  0.00000000000E+00 0. -1.
         21   -1    0    0  501  502  0.00000000000E+00 -0.00000000000E+00 -0.53208820304E+02  0.53208820304E+02  0.00000000000E+00 0. -1.
         24    2    1    2    0    0  0.38533517986E+02 -0.18605848249E+02  0.22016912920E+03  0.23661162141E+03  0.75363149733E+02 0.  0.
         23    2    1    2    0    0 -0.21200644944E+03  0.77625528138E+02  0.39949407851E+03  0.46812797906E+03  0.92605770854E+02 0.  0.
        -13    1    3    3    0    0  0.17388044405E+02 -0.21483226488E+02  0.17263444790E+02  0.32586801540E+02  0.00000000000E+00 0.  1.
         14    1    3    3    0    0  0.21145473580E+02  0.28773782393E+01  0.20290568441E+03  0.20402481987E+03  0.00000000000E+00 0. -1.
        -13    1    4    4    0    0 -0.20113658988E+03  0.45875175641E+02  0.30832233363E+03  0.37097590346E+03  0.00000000000E+00 0. -1.
         13    1    4    4    0    0 -0.10869859553E+02  0.31750352497E+02  0.91171744875E+02  0.97152075603E+02  0.00000000000E+00 0.  1.
          1    1    1    2  501    0  0.17347293145E+03 -0.59019679889E+02  0.77597926664E+03  0.79732051449E+03  0.00000000000E+00 0. -1.
<scales pt_clust_5="13000.00000" pt_clust_6="13000.00000" pt_clust_7="13000.00000" pt_clust_8="13000.00000" pt_clust_9="210.64075"></scales>
<clustering>
<clus scale="   75.363">  5  6 -1 -1</clus>
<clus scale="   86.664">  1  5  2 -1</clus>
<clus scale="   92.606">  7  8 -1 -1</clus>
<clus scale="  210.641">  2  9  1 -1</clus>
<clus scale="  210.641">  2  5  1 -1</clus>
</clustering>
</event>
<event>
 9    2  0.1488992E-004  0.1385881E+03  0.7546771E-02  0.1218361E+00
          2   -1    0    0  502    0 -0.00000000000E+00  0.00000000000E+00  0.54171126784E+03  0.54171126784E+03  0.00000000000E+00 0. -1.
         21   -1    0    0  501  502  0.00000000000E+00 -0.00000000000E+00 -0.59664391110E+02  0.59664391110E+02  0.00000000000E+00 0.  1.
         23    2    1    2    0    0 -0.46840765373E+02 -0.79198631509E+02  0.24794739187E+03  0.28009141881E+03  0.92232387063E+02 0.  0.
         24    2    1    2    0    0  0.64731881746E+02  0.96756077445E+02  0.25339500040E+03  0.28965082627E+03  0.78336580788E+02 0.  0.
        -11    1    4    4    0    0  0.25688491380E+02  0.74715835337E+02  0.87897065613E+02  0.11818734612E+03  0.00000000000E+00 0.  1.
         12    1    4    4    0    0  0.39043390366E+02  0.22040242108E+02  0.16549793479E+03  0.17146348015E+03  0.00000000000E+00 0. -1.
        -13    1    3    3    0    0 -0.13974619891E+02 -0.67485047561E+02  0.68087219197E+02  0.96878228015E+02  0.00000000000E+00 0. -1.
         13    1    3    3    0    0 -0.32866145482E+02 -0.11713583948E+02  0.17986017268E+03  0.18321319080E+03  0.00000000000E+00 0.  1.
          1    1    1    2  501    0 -0.17891116373E+02 -0.17557445936E+02 -0.19295515548E+02  0.31633413871E+02  0.00000000000E+00 0. -1.
<scales pt_clust_5="13000.00000" pt_clust_6="13000.00000" pt_clust_7="13000.00000" pt_clust_8="13000.00000" pt_clust_9="25.06703"></scales>
<clustering>
<clus scale="   25.067">  2  9  1 -1</clus>
<clus scale="   78.337">  5  6 -1 -1</clus>
<clus scale="   92.232">  7  8 -1 -1</clus>
<clus scale="  129.755">  2  5  1 -1</clus>
<clus scale="   25.067">  2  5  1 -1</clus>
</clustering>
</event>
<event>
 9    2  0.1488992E-004  0.1396088E+03  0.7546771E-02  0.1216355E+00
          2   -1    0    0  502    0 -0.00000000000E+00  0.00000000000E+00  0.57935128565E+03  0.57935128565E+03  0.00000000000E+00 0. -1.
         21   -1    0    0  501  502  0.00000000000E+00 -0.00000000000E+00 -0.64338030687E+02  0.64338030687E+02  0.00000000000E+00 0. -1.
         24    2    1    2    0    0 -0.99638790657E+02  0.68900479913E+02  0.40317631028E+03  0.42851108940E+03  0.79971568883E+02 0.  0.
         23    2    1    2    0    0  0.42909985874E+02 -0.62813492103E+02  0.10325459707E+03  0.15748190640E+03  0.91390575836E+02 0.  0.
        -11    1    3    3    0    0 -0.41006309821E+02  0.47952661500E+02  0.94564306071E+02  0.11368105899E+03  0.00000000000E+00 0.  1.
         12    1    3    3    0    0 -0.58632480836E+02  0.20947818413E+02  0.30861200421E+03  0.31483003041E+03  0.00000000000E+00 0. -1.
        -13    1    4    4    0    0  0.27912190835E+02  0.20204441399E+02  0.27218359994E+02  0.43910693119E+02  0.00000000000E+00 0.  1.
         13    1    4    4    0    0  0.14997795039E+02 -0.83017933503E+02  0.76036237072E+02  0.11357121329E+03  0.00000000000E+00 0. -1.
          1    1    1    2  501    0  0.56728804783E+02 -0.60869878099E+01  0.85823476177E+01  0.57696320535E+02  0.00000000000E+00 0. -1.
<scales pt_clust_5="13000.00000" pt_clust_6="13000.00000" pt_clust_7="13000.00000" pt_clust_8="13000.00000" pt_clust_9="57.05444"></scales>
<clustering>
<clus scale="   57.054">  2  9  1 -1</clus>
<clus scale="   79.972">  5  6 -1 -1</clus>
<clus scale="   91.391">  7  8 -1 -1</clus>
<clus scale="  132.415">  1  5  2 -1</clus>
<clus scale="   57.054">  2  5  1 -1</clus>
</clustering>
</event>
<event>
 9    2  0.1488992E-004  0.1232626E+03  0.7546771E-02  0.1240917E+00
          4   -1    0    0  502    0 -0.00000000000E+00  0.00000000000E+00  0.25158970733E+03  0.25158970733E+03  0.00000000000E+00 0. -1.
         21   -1    0    0  501  502  0.00000000000E+00 -0.00000000000E+00 -0.26690733678E+03  0.26690733678E+03  0.00000000000E+00 0. -1.
         24    2    1    2    0    0 -0.18447120855E+02  0.96915936450E+02  0.19382697488E+03  0.23190037758E+03  0.80472939077E+02 0.  0.
         23    2    1    2    0    0 -0.93875942209E+01 -0.24321318831E+02 -0.44648167527E+02  0.10465209368E+03  0.90988726622E+02 0.  0.
        -11    1    3    3    0    0 -0.35713533588E+02  0.80448178021E+01  0.50449887716E+02  0.62332710076E+02  0.00000000000E+00 0.  1.
         12    1    3    3    0    0  0.17266412733E+02  0.88871118648E+02  0.14337708717E+03  0.16956766750E+03  0.00000000000E+00 0. -1.
        -11    1    4    4    0    0  0.33660894424E+02 -0.18587877907E+02  0.49025811563E+01  0.38763388919E+02  0.00000000000E+00 0.  1.
         11    1    4    4    0    0 -0.43048488645E+02 -0.57334409238E+01 -0.49550748683E+02  0.65888704756E+02  0.00000000000E+00 0. -1.
          3    1    1    2  501    0  0.27834715076E+02 -0.72594617619E+02 -0.16449643681E+03  0.18194457286E+03  0.00000000000E+00 0. -1.
<scales pt_clust_5="13000.00000" pt_clust_6="13000.00000" pt_clust_7="13000.00000" pt_clust_8="13000.00000" pt_clust_9="77.74799"></scales>
<clustering>
<clus scale="   77.748">  2  9  1 -1</clus>
<clus scale="   80.473">  5  6 -1 -1</clus>
<clus scale="   90.989">  7  8 -1 -1</clus>
<clus scale="  115.718">  1  5  2 -1</clus>
<clus scale="   77.748">  2  5  1 -1</clus>
</clustering>
</event>
<event>
 9    2  0.1488992E-004  0.1935083E+03  0.7546771E-02  0.1195512E+00
         21   -1    0    0  501  502  0.00000000000E+00  0.00000000000E+00  0.66233533090E+02  0.66233533090E+02  0.00000000000E+00 0. -1.
          2   -1    0    0  502    0 -0.00000000000E+00 -0.00000000000E+00 -0.10210911187E+04  0.10210911187E+04  0.00000000000E+00 0. -1.
         24    2    1    2    0    0 -0.77753163147E+01  0.53783288910E+02 -0.46279743813E+03  0.46929844485E+03  0.55735660807E+02 0.  0.
         23    2    1    2    0    0  0.11097975137E+03  0.99775580246E+02 -0.32264150777E+03  0.36715939526E+03  0.91852095073E+02 0.  0.
        -11    1    3    3    0    0 -0.28441931336E+02  0.25980848557E+02 -0.16221298159E+03  0.16672432140E+03  0.00000000000E+00 0.  1.
         12    1    3    3    0    0  0.20666615022E+02  0.27802440353E+02 -0.30058445654E+03  0.30257412344E+03  0.00000000000E+00 0. -1.
        -11    1    4    4    0    0  0.93145846792E+02  0.46816918412E+02 -0.27368152935E+03  0.29286439205E+03  0.00000000000E+00 0.  1.
         11    1    4    4    0    0  0.17833904580E+02  0.52958661835E+02 -0.48959978415E+02  0.74295003212E+02  0.00000000000E+00 0. -1.
          1    1    1    2  501    0 -0.10320443506E+03 -0.15355886916E+03 -0.16941863967E+03  0.25086681163E+03  0.00000000000E+00 0. -1.
<scales pt_clust_5="13000.00000" pt_clust_6="13000.00000" pt_clust_7="13000.00000" pt_clust_8="13000.00000" pt_clust_9="170.31931"></scales>
<clustering>
<clus scale="   55.736">  5  6 -1 -1</clus>
<clus scale="   77.843">  2  5  1 -1</clus>
<clus scale="   91.852">  7  8 -1 -1</clus>
<clus scale="  170.319">  1  9  2 -1</clus>
<clus scale="  170.319">  1  5  2 -1</clus>
</clustering>
</event>
<event>
 9    2  0.1488992E-004  0.9725846E+02  0.7546771E-02  0.1292988E+00
          2   -1    0    0  502    0 -0.00000000000E+00  0.00000000000E+00  0.12537340285E+03  0.12537340285E+03  0.00000000000E+00 0. -1.
         21   -1    0    0  501  502  0.00000000000E+00 -0.00000000000E+00 -0.18451320099E+03  0.18451320099E+03  0.00000000000E+00 0. -1.
         23    2    1    2    0    0  0.32625966182E+02 -0.40089093847E+01  0.71768530591E+02  0.12162503308E+03  0.92527842651E+02 0.  0.
         24    2    1    2    0    0 -0.86050713163E+01  0.40353932967E+02 -0.74342742551E+02  0.11686388403E+03  0.80173791622E+02 0.  0.
        -11    1    4    4    0    0 -0.29077879495E+02  0.35753721441E+02 -0.73573401939E+01  0.46668856077E+02  0.00000000000E+00 0.  1.
         12    1    4    4    0    0  0.20472808179E+02  0.46002115264E+01 -0.66985402357E+02  0.70195027956E+02  0.00000000000E+00 0. -1.
        -13    1    3    3    0    0  0.48434102169E+02  0.21704058068E+02  0.74328880789E+02  0.91332967262E+02  0.00000000000E+00 0. -1.
         13    1    3    3    0    0 -0.15808135987E+02 -0.25712967453E+02 -0.25603501983E+01  0.30292065822E+02  0.00000000000E+00 0.  1.
          1    1    1    2  501    0 -0.24020894865E+02 -0.36345023583E+02 -0.56565586177E+02  0.71397686720E+02  0.00000000000E+00 0. -1.
<scales pt_clust_5="13000.00000" pt_clust_6="13000.00000" pt_clust_7="13000.00000" pt_clust_8="13000.00000" pt_clust_9="43.56563"></scales>
<clustering>
<clus scale="   43.566">  2  9  1 -1</clus>
<clus scale="   80.174">  5  6 -1 -1</clus>
<clus scale="   85.590">  2  5  1 -1</clus>
<clus scale="   92.528">  7  8 -1 -1</clus>
<clus scale="   43.566">  2  5  1 -1</clus>
</clustering>
</event>
<event>
 9    2  0.1488992E-004  0.1120818E+03  0.7546771E-02  0.1258126E+00
         21   -1    0    0  501  502  0.00000000000E+00  0.00000000000E+00  0.56549928796E+02  0.56549928796E+02  0.00000000000E+00 0. -1.
         -1   -1    0    0    0  501 -0.00000000000E+00 -0.00000000000E+00 -0.36665444370E+03  0.36665444370E+03  0.00000000000E+00 0.  1.
         23    2    1    2    0    0 -0.57054931481E+02 -0.42024644528E+02 -0.25727014517E+03  0.28156100381E+03  0.89818346209E+02 0.  0.
         24    2    1    2    0    0  0.55434644641E+02  0.20569399474E+02 -0.58086435877E+02  0.11949529725E+03  0.86075501800E+02 0.  0.
        -11    1    4    4    0    0 -0.19385262581E+02  0.85784538298E+01  0.39520836343E+01  0.21563794668E+02  0.00000000000E+00 0.  1.
         12    1    4    4    0    0  0.74819907222E+02  0.11990945644E+02 -0.62038519512E+02  0.97931502579E+02  0.00000000000E+00 0. -1.
        -13    1    3    3    0    0 -0.49563127991E+02  0.12153097155E+02 -0.17859504628E+03  0.18574281139E+03  0.00000000000E+00 0.  1.
         13    1    3    3    0    0 -0.74918034900E+01 -0.54177741683E+02 -0.78675098895E+02  0.95818192425E+02  0.00000000000E+00 0. -1.
         -2    1    1    2    0  502  0.16202868394E+01  0.21455245054E+02  0.52520661433E+01  0.22148071441E+02  0.00000000000E+00 0.  1.
<scales pt_clust_5="13000.00000" pt_clust_6="13000.00000" pt_clust_7="13000.00000" pt_clust_8="13000.00000" pt_clust_9="21.51634"></scales>
<clustering>
<clus scale="   21.516">  1  9  2 -1</clus>
<clus scale="   86.076">  5  6 -1 -1</clus>
<clus scale="   89.818">  7  8 -1 -1</clus>
<clus scale="  109.105">  1  5  2 -1</clus>
<clus scale="   21.516">  1  5  2 -1</clus>
</clustering>
</event>
<event>
 9    2  0.1488992E-004  0.1059440E+03  0.7546771E-02  0.1272124E+00
         21   -1    0    0  501  502  0.00000000000E+00  0.00000000000E+00  0.60328510789E+02  0.60328510789E+02  0.00000000000E+00 0. -1.
          2   -1    0    0  502    0 -0.00000000000E+00 -0.00000000000E+00 -0.42772093151E+03  0.42772093151E+03  0.00000000000E+00 0. -1.
         24    2    1    2    0    0  0.45206450488E+02 -0.91374069021E+01 -0.20136834853E+03  0.22179366967E+03  0.80722393080E+02 0.  0.
         23    2    1    2    0    0 -0.99607590908E+02 -0.19965706089E+02 -0.71301960349E+02  0.15321262274E+03  0.89832269437E+02 0.  0.
        -11    1    3    3    0    0  0.34992864749E+02  0.14668194589E+02 -0.29706990080E+02  0.48188813801E+02  0.00000000000E+00 0.  1.
         12    1    3    3    0    0  0.10213585739E+02 -0.23805601491E+02 -0.17166135845E+03  0.17360485587E+03  0.00000000000E+00 0. -1.
        -11    1    4    4    0    0 -0.15686293290E+02  0.32850601544E+02 -0.20974435756E+02  0.42013673658E+02  0.00000000000E+00 0.  1.
         11    1    4    4    0    0 -0.83921297618E+02 -0.52816307634E+02 -0.50327524593E+02  0.11119894909E+03  0.00000000000E+00 0. -1.
          1    1    1    2  501    0  0.54401140420E+02  0.29103112991E+02 -0.94722111847E+02  0.11304314989E+03  0.00000000000E+00 0. -1.
<scales pt_clust_5="13000.00000" pt_clust_6="13000.00000" pt_clust_7="13000.00000" pt_clust_8="13000.00000" pt_clust_9="61.69667"></scales>
<clustering>
<clus scale="   61.697">  1  9  2 -1</clus>
<clus scale="   80.722">  5  6 -1 -1</clus>
<clus scale="   89.832">  7  8 -1 -1</clus>
<clus scale="   98.338">  2  5  1 -1</clus>
<clus scale="   61.697">  1  5  2 -1</clus>
</clustering>
</event>
<event>
 9    2  0.1488992E-004  0.1047472E+03  0.7546771E-02  0.1272348E+00
          2   -1    0    0  502    0 -0.00000000000E+00  0.00000000000E+00  0.20493941025E+04  0.20493941025E+04  0.00000000000E+00 0. -1.
         21   -1    0    0  501  502  0.00000000000E+00 -0.00000000000E+00 -0.18464969285E+02  0.18464969285E+02  0.00000000000E+00 0.  1.
         24    2    1    2    0    0  0.24929087024E+02 -0.29680706533E+02  0.17239335885E+04  0.17270723774E+04  0.96589728005E+02 0.  0.
         23    2    1    2    0    0 -0.15000426196E+02  0.60424454180E+02  0.20124042927E+03  0.23020685548E+03  0.92851270807E+02 0.  0.
        -13    1    3    3    0    0  0.17546410672E+02  0.13532019238E+02  0.95037230880E+02  0.97586204585E+02  0.00000000000E+00 0.  1.
         14    1    3    3    0    0  0.73826763519E+01 -0.43212725770E+02  0.16288963576E+04  0.16294861728E+04  0.00000000000E+00 0. -1.
        -11    1    4    4    0    0 -0.23660873550E+02 -0.19917180752E+02  0.59045089739E+02  0.66654734630E+02  0.00000000000E+00 0. -1.
         11    1    4    4    0    0  0.86604473540E+01  0.80341634932E+02  0.14219533953E+03  0.16355212085E+03  0.00000000000E+00 0.  1.
          1    1    1    2  501    0 -0.99286608275E+01 -0.30743747647E+02  0.10575511551E+03  0.11057983895E+03  0.00000000000E+00 0. -1.
<scales pt_clust_5="13000.00000" pt_clust_6="13000.00000" pt_clust_7="13000.00000" pt_clust_8="13000.00000" pt_clust_9="32.30722"></scales>
<clustering>
<clus scale="   32.307">  2  9  1 -1</clus>
<clus scale="   92.851">  7  8 -1 -1</clus>
<clus scale="   96.590">  5  6 -1 -1</clus>
<clus scale="  101.310">  2  7  1 -1</clus>
<clus scale="   32.307">  2  5  1 -1</clus>
</clustering>
</event>
<event>
 9    2  0.1488992E-004  0.9938655E+02  0.7546771E-02  0.1285728E+00
          2   -1    0    0  502    0 -0.00000000000E+00  0.00000000000E+00  0.84478272829E+02  0.84478272829E+02  0.00000000000E+00 0. -1.
         21   -1    0    0  501  502  0.00000000000E+00 -0.00000000000E+00 -0.38809927659E+03  0.38809927659E+03  0.00000000000E+00 0.  1.
         23    2    1    2    0    0 -0.32464858414E+02 -0.31505591998E+02  0.34796171362E+02  0.10689555885E+03  0.90384277402E+02 0.  0.
         24    2    1    2    0    0  0.29131181471E+01  0.31052939370E+02 -0.14131168912E+03  0.16637297707E+03  0.82086556253E+02 0.  0.
        -13    1    4    4    0    0  0.88930584687E+01  0.50474339914E+02 -0.45834436290E+02  0.68757116204E+02  0.00000000000E+00 0.  1.
         14    1    4    4    0    0 -0.59799403216E+01 -0.19421400544E+02 -0.95477252826E+02  0.97615860866E+02  0.00000000000E+00 0. -1.
        -13    1    3    3    0    0  0.13188525822E+02 -0.38327702902E+02 -0.10867878352E+02  0.41964994971E+02  0.00000000000E+00 0.  1.
         13    1    3    3    0    0 -0.45653384236E+02  0.68221109040E+01  0.45664049714E+02  0.64930563879E+02  0.00000000000E+00 0. -1.
          1    1    1    2  501    0  0.29551740267E+02  0.45265262780E+00 -0.19710548601E+03  0.19930901350E+03  0.00000000000E+00 0. -1.
<scales pt_clust_5="13000.00000" pt_clust_6="13000.00000" pt_clust_7="13000.00000" pt_clust_8="13000.00000" pt_clust_9="29.55521"></scales>
<clustering>
<clus scale="   29.555">  2  9  1 -1</clus>
<clus scale="   82.087">  5  6 -1 -1</clus>
<clus scale="   90.384">  7  8 -1 -1</clus>
<clus scale="   91.905">  2  5  1 -1</clus>
<clus scale="   29.555">  2  5  1 -1</clus>
</clustering>
</event>
<event>
 9    2  0.1488992E-004  0.9489701E+02  0.7546771E-02  0.1297598E+00
         21   -1    0    0  501  502  0.00000000000E+00  0.00000000000E+00  0.52604309506E+02  0.52604309506E+02  0.00000000000E+00 0. -1.
         -1   -1    0    0    0  501 -0.00000000000E+00 -0.00000000000E+00 -0.42378718500E+03  0.42378718500E+03  0.00000000000E+00 0.  1.
         23    2    1    2    0    0  0.31382819697E+02  0.79138443004E+01 -0.34857833551E+03  0.36167401177E+03  0.90850011013E+02 0.  0.
         24    2    1    2    0    0  0.50061800788E+00 -0.79655897556E+01 -0.13279369133E+02  0.81498285135E+02  0.80012046574E+02 0.  0.
        -13    1    4    4    0    0 -0.28025816966E+02 -0.58985656078E+01 -0.35260429786E+02  0.45426175291E+02  0.00000000000E+00 0.  1.
         14    1    4    4    0    0  0.28526434974E+02 -0.20670241477E+01  0.21981060654E+02  0.36072109844E+02  0.00000000000E+00 0. -1.
        -13    1    3    3    0    0  0.59969640700E+02 -0.10713796091E+02 -0.19248683701E+03  0.20189681932E+03  0.00000000000E+00 0. -1.
         13    1    3    3    0    0 -0.28586821004E+02  0.18627640392E+02 -0.15609149851E+03  0.15977719245E+03  0.00000000000E+00 0.  1.
         -2    1    1    2    0  502 -0.31883437705E+02  0.51745455193E-01 -0.93251708463E+01  0.33219197594E+02  0.00000000000E+00 0.  1.
<scales pt_clust_5="13000.00000" pt_clust_6="13000.00000" pt_clust_7="13000.00000" pt_clust_8="13000.00000" pt_clust_9="31.88348"></scales>
<clustering>
<clus scale="   31.883">  1  9  2 -1</clus>
<clus scale="   80.012">  5  6 -1 -1</clus>
<clus scale="   84.579">  1  5  2 -1</clus>
<clus scale="   90.850">  7  8 -1 -1</clus>
<clus scale="   31.883">  1  5  2 -1</clus>
</clustering>
</event>
<event>
 9    2  0.1488992E-004  0.1283219E+03  0.7546771E-02  0.1232107E+00
         -1   -1    0    0    0  501 -0.00000000000E+00  0.00000000000E+00  0.39731852214E+02  0.39731852214E+02  0.00000000000E+00 0.  1.
         21   -1    0    0  501  502  0.00000000000E+00 -0.00000000000E+00 -0.67362583234E+03  0.67362583234E+03  0.00000000000E+00 0.  1.
         23    2    1    2    0    0 -0.19668349671E+02 -0.70931226632E+02 -0.17215524901E+03  0.20784775865E+03  0.90250640577E+02 0.  0.
         24    2    1    2    0    0  0.20866742794E+02  0.12477679419E+03 -0.36153759211E+03  0.39175119195E+03  0.82188177789E+02 0.  0.
        -13    1    4    4    0    0  0.17407451873E+02  0.13676713663E+03 -0.33947891485E+03  0.36640715423E+03  0.00000000000E+00 0.  1.
         14    1    4    4    0    0  0.34592909212E+01 -0.11990342449E+02 -0.22058677252E+02  0.25344037717E+02  0.00000000000E+00 0. -1.
        -11    1    3    3    0    0 -0.35854387984E+02 -0.86726187202E+02 -0.13854013101E+03  0.16733301104E+03  0.00000000000E+00 0.  1.
         11    1    3    3    0    0  0.16186038314E+02  0.15794960570E+02 -0.33615118003E+02  0.40514747612E+02  0.00000000000E+00 0. -1.
         -2    1    1    2    0  502 -0.11983931231E+01 -0.53845567554E+02 -0.10020113901E+03  0.11375873395E+03  0.00000000000E+00 0.  1.
<scales pt_clust_5="13000.00000" pt_clust_6="13000.00000" pt_clust_7="13000.00000" pt_clust_8="13000.00000" pt_clust_9="53.85893"></scales>
<clustering>
<clus scale="   53.859">  2  9  1 -1</clus>
<clus scale="   82.188">  5  6 -1 -1</clus>
<clus scale="   90.251">  7  8 -1 -1</clus>
<clus scale="  122.785">  2  5  1 -1</clus>
<clus scale="   53.859">  2  5  1 -1</clus>
</clustering>
</event>
<event>
 9    2  0.1488992E-004  0.1792242E+03  0.7546771E-02  0.1200845E+00
         21   -1    0    0  501  502  0.00000000000E+00  0.00000000000E+00  0.77057315810E+03  0.77057315810E+03  0.00000000000E+00 0. -1.
          2   -1    0    0  502    0 -0.00000000000E+00 -0.00000000000E+00 -0.60922356839E+02  0.60922356839E+02  0.00000000000E+00 0. -1.
         24    2    1    2    0    0  0.15414409432E+02 -0.30863833231E+02  0.81715849385E+02  0.11952666815E+03  0.80118438196E+02 0.  0.
         23    2    1    2    0    0  0.45137460383E+01  0.17090113838E+03  0.38040426331E+03  0.42687409062E+03  0.91030284497E+02 0.  0.
        -13    1    3    3    0    0 -0.11225099757E+02 -0.36286018004E+02  0.84057110556E+02  0.92240315492E+02  0.00000000000E+00 0.  1.
         14    1    3    3    0    0  0.26639509190E+02  0.54221847736E+01 -0.23412611708E+01  0.27286352659E+02  0.00000000000E+00 0. -1.
        -11    1    4    4    0    0  0.47182396697E+02  0.74525472819E+02  0.16716747102E+03  0.18901107911E+03  0.00000000000E+00 0. -1.
         11    1    4    4    0    0 -0.42668650659E+02  0.96375665557E+02  0.21323679229E+03  0.23786301151E+03  0.00000000000E+00 0.  1.
          1    1    1    2  501    0 -0.19928155471E+02 -0.14003730515E+03  0.24753068856E+03  0.28509475617E+03  0.00000000000E+00 0. -1.
<scales pt_clust_5="13000.00000" pt_clust_6="13000.00000" pt_clust_7="13000.00000" pt_clust_8="13000.00000" pt_clust_9="154.38528"></scales>
<clustering>
<clus scale="   80.118">  5  6 -1 -1</clus>
<clus scale="   87.230">  2  5  1 -1</clus>
<clus scale="   91.030">  7  8 -1 -1</clus>
<clus scale="  154.385">  1  9  2 -1</clus>
<clus scale="  154.385">  1  5  2 -1</clus>
</clustering>
</event>
<event>
 9    2  0.1488992E-004  0.4108817E+03  0.7546771E-02  0.1082848E+00
          2   -1    0    0  502    0 -0.00000000000E+00  0.00000000000E+00  0.92872612129E+03  0.92872612129E+03  0.00000000000E+00 0. -1.
         21   -1    0    0  501  502  0.00000000000E+00 -0.00000000000E+00 -0.33583165374E+03  0.33583165374E+03  0.00000000000E+00 0. -1.
         23    2    1    2    0    0 -0.53577741888E+02  0.67958721108E+02  0.39658048974E+03  0.41565932783E+03  0.89485360625E+02 0.  0.
         24    2    1    2    0    0 -0.37096348760E+03 -0.72129168940E+02  0.17415414841E+03  0.42375881577E+03  0.80158220948E+02 0.  0.
        -11    1    4    4    0    0 -0.22772027055E+03 -0.47066195137E+02  0.63562142007E+02  0.24106408742E+03  0.00000000000E+00 0.  1.
         12    1    4    4    0    0 -0.14324321705E+03 -0.25062973803E+02  0.11059200641E+03  0.18269472835E+03  0.00000000000E+00 0. -1.
        -11    1    3    3    0    0 -0.47463698856E+02  0.45427647099E+02  0.38311678927E+03  0.38870933620E+03  0.00000000000E+00 0.  1.
         11    1    3    3    0    0 -0.61140430317E+01  0.22531074009E+02  0.13463700469E+02  0.26949991624E+02  0.00000000000E+00 0. -1.
          1    1    1    2  501    0  0.42454122949E+03  0.41704478328E+01  0.22159829400E+02  0.42513963143E+03  0.00000000000E+00 0. -1.
<scales pt_clust_5="13000.00000" pt_clust_6="13000.00000" pt_clust_7="13000.00000" pt_clust_8="13000.00000" pt_clust_9="402.98693"></scales>
<clustering>
<clus scale="   80.158">  5  6 -1 -1</clus>
<clus scale="   89.485">  7  8 -1 -1</clus>
<clus scale="  124.485">  1  7  2 -1</clus>
<clus scale="  402.987">  2  9  1 -1</clus>
<clus scale="  402.987">  2  5  1 -1</clus>
</clustering>
</event>
<event>
 9    2  0.1488992E-004  0.1067280E+03  0.7546771E-02  0.1273218E+00
         21   -1    0    0  501  502  0.00000000000E+00  0.00000000000E+00  0.63511010837E+02  0.63511010837E+02  0.00000000000E+00 0. -1.
          2   -1    0    0  502    0 -0.00000000000E+00 -0.00000000000E+00 -0.27106527049E+03  0.27106527049E+03  0.00000000000E+00 0. -1.
         24    2    1    2    0    0  0.59698786402E+02 -0.12873558186E+02 -0.12063773347E+03  0.15579300652E+03  0.77384265500E+02 0.  0.
         23    2    1    2    0    0 -0.27338402886E+02  0.46079415728E+02 -0.76476618279E+02  0.13125628170E+03  0.92243360278E+02 0.  0.
        -11    1    3    3    0    0 -0.55200537669E+01 -0.30459192646E+02 -0.35098414737E+02  0.46798847499E+02  0.00000000000E+00 0.  1.
         12    1    3    3    0    0  0.65218840169E+02  0.17585634460E+02 -0.85539318731E+02  0.10899415902E+03  0.00000000000E+00 0. -1.
        -13    1    4    4    0    0 -0.22341140441E+02  0.10583071500E+01  0.16525758246E+02  0.27809121810E+02  0.00000000000E+00 0. -1.
         13    1    4    4    0    0 -0.49972624450E+01  0.45021108578E+02 -0.93002376525E+02  0.10344715989E+03  0.00000000000E+00 0.  1.
          1    1    1    2  501    0 -0.32360383516E+02 -0.33205857542E+02 -0.10439907902E+02  0.47526993103E+02  0.00000000000E+00 0. -1.
<scales pt_clust_5="13000.00000" pt_clust_6="13000.00000" pt_clust_7="13000.00000" pt_clust_8="13000.00000" pt_clust_9="46.36619"></scales>
<clustering>
<clus scale="   46.366">  1  9  2 -1</clus>
<clus scale="   77.384">  5  6 -1 -1</clus>
<clus scale="   92.243">  7  8 -1 -1</clus>
<clus scale="   94.183">  2  5  1 -1</clus>
<clus scale="   46.366">  1  5  2 -1</clus>
</clustering>
</event>
<event>
 9    2  0.1488992E-004  0.1187368E+03  0.7546771E-02  0.1249599E+00
         21   -1    0    0  501  502  0.00000000000E+00  0.00000000000E+00  0.14276618927E+03  0.14276618927E+03  0.00000000000E+00 0. -1.
          2   -1    0    0  502    0 -0.00000000000E+00 -0.00000000000E+00 -0.20945141079E+03  0.20945141079E+03  0.00000000000E+00 0. -1.
         23    2    1    2    0    0  0.16629315412E+02  0.64737301658E+02 -0.58979564783E+02  0.12893484793E+03  0.93156607885E+02 0.  0.
         24    2    1    2    0    0 -0.88066099791E+02 -0.43312274336E+02 -0.51640810949E+02  0.13672327122E+03  0.79968046730E+02 0.  0.
        -11    1    4    4    0    0 -0.44657886783E+02  0.14787696370E+02  0.10895146197E+01  0.47055178864E+02  0.00000000000E+00 0.  1.
         12    1    4    4    0    0 -0.43408213008E+02 -0.58099970707E+02 -0.52730325569E+02  0.89668092359E+02  0.00000000000E+00 0. -1.
        -11    1    3    3    0    0  0.10795070287E+02 -0.23690296414E+02 -0.13558135864E+02  0.29352797734E+02  0.00000000000E+00 0.  1.
         11    1    3    3    0    0  0.58342451250E+01  0.88427598072E+02 -0.45421428918E+02  0.99582050200E+02  0.00000000000E+00 0. -1.
          1    1    1    2  501    0  0.71436784379E+02 -0.21425027322E+02  0.43935154212E+02  0.86559480901E+02  0.00000000000E+00 0. -1.
<scales pt_clust_5="13000.00000" pt_clust_6="13000.00000" pt_clust_7="13000.00000" pt_clust_8="13000.00000" pt_clust_9="74.58047"></scales>
<clustering>
<clus scale="   74.580">  1  9  2 -1</clus>
<clus scale="   79.968">  5  6 -1 -1</clus>
<clus scale="   93.157">  7  8 -1 -1</clus>
<clus scale="  108.698">  1  5  2 -1</clus>
<clus scale="   74.580">  1  5  2 -1</clus>
</clustering>
</event>
<event>
 9    2  0.1488992E-004  0.1388192E+03  0.7546771E-02  0.1217003E+00
         21   -1    0    0  501  502  0.00000000000E+00  0.00000000000E+00  0.23939551862E+03  0.23939551862E+03  0.00000000000E+00 0.  1.
          2   -1    0    0  502    0 -0.00000000000E+00 -0.00000000000E+00 -0.16298717133E+03  0.16298717133E+03  0.00000000000E+00 0. -1.
         24    2    1    2    0    0 -0.99283051426E+02  0.80485642082E+02 -0.14252800704E+02  0.15232362459E+03  0.81635050055E+02 0.  0.
         23    2    1    2    0    0  0.85156742703E+02  0.14598389887E+02  0.89118367899E+02  0.15391903258E+03  0.91017587747E+02 0.  0.
        -13    1    3    3    0    0 -0.50095991001E+02 -0.24986147352E+01 -0.23547365182E+02  0.55410556729E+02  0.00000000000E+00 0.  1.
         14    1    3    3    0    0 -0.49187060425E+02  0.82984256817E+02  0.92945644781E+01  0.96913067858E+02  0.00000000000E+00 0. -1.
        -11    1    4    4    0    0  0.59919334167E+02 -0.25386677116E+02  0.84147592597E+02  0.10637493747E+03  0.00000000000E+00 0.  1.
         11    1    4    4    0    0  0.25237408536E+02  0.39985067004E+02  0.49707753012E+01  0.47544095112E+02  0.00000000000E+00 0. -1.
          1    1    1    2  501    0  0.14126308723E+02 -0.95084031969E+02  0.15427801003E+01  0.96140032786E+02  0.00000000000E+00 0. -1.
<scales pt_clust_5="13000.00000" pt_clust_6="13000.00000" pt_clust_7="13000.00000" pt_clust_8="13000.00000" pt_clust_9="96.12770"></scales>
<clustering>
<clus scale="   81.635">  5  6 -1 -1</clus>
<clus scale="   91.018">  7  8 -1 -1</clus>
<clus scale="   96.128">  1  9  2 -1</clus>
<clus scale="  132.857">  2  5  1 -1</clus>
<clus scale="   96.128">  1  5  2 -1</clus>
</clustering>
</event>
<event>
 9    2  0.1488992E-004  0.1354878E+03  0.7546771E-02  0.1231127E+00
         21   -1    0    0  501  502  0.00000000000E+00  0.00000000000E+00  0.12862898552E+03  0.12862898552E+03  0.00000000000E+00 0. -1.
          2   -1    0    0  502    0 -0.00000000000E+00 -0.00000000000E+00 -0.47317958868E+03  0.47317958868E+03  0.00000000000E+00 0. -1.
         23    2    1    2    0    0 -0.17281464292E+02  0.51530954570E+02 -0.13319246401E+03  0.17049934047E+03  0.91518874255E+02 0.  0.
         24    2    1    2    0    0  0.64537752509E+02  0.50786430193E+02 -0.27762708143E+03  0.30056682778E+03  0.80741802231E+02 0.  0.
        -13    1    4    4    0    0  0.27986195543E+02 -0.15279531147E+00 -0.17537959366E+02  0.33027723296E+02  0.00000000000E+00 0.  1.
         14    1    4    4    0    0  0.36551556965E+02  0.50939225505E+02 -0.26008912207E+03  0.26753910449E+03  0.00000000000E+00 0. -1.
        -13    1    3    3    0    0 -0.39966835540E+02  0.42062829912E+02 -0.31791678830E+02  0.66161472521E+02  0.00000000000E+00 0. -1.
         13    1    3    3    0    0  0.22685371249E+02  0.94681246579E+01 -0.10140078518E+03  0.10433786795E+03  0.00000000000E+00 0.  1.
          1    1    1    2  501    0 -0.47256288217E+02 -0.10231738476E+03  0.66268942278E+02  0.13074240594E+03  0.00000000000E+00 0. -1.
<scales pt_clust_5="13000.00000" pt_clust_6="13000.00000" pt_clust_7="13000.00000" pt_clust_8="13000.00000" pt_clust_9="108.80118"></scales>
<clustering>
<clus scale="   80.742">  5  6 -1 -1</clus>
<clus scale="   91.519">  7  8 -1 -1</clus>
<clus scale="  106.441">  2  7  1 -1</clus>
<clus scale="  108.801">  1  9  2 -1</clus>
<clus scale="  108.801">  1  5  2 -1</clus>
</clustering>
</event>
<event>
 9    2  0.1488992E-004  0.3034090E+03  0.7546771E-02  0.1083549E+00
         21   -1    0    0  501  502  0.00000000000E+00  0.00000000000E+00  0.44518682099E+03  0.44518682099E+03  0.00000000000E+00 0. -1.
          2   -1    0    0  502    0 -0.00000000000E+00 -0.00000000000E+00 -0.31236780428E+03  0.31236780428E+03  0.00000000000E+00 0. -1.
         24    2    1    2    0    0 -0.47321458339E+02  0.64861180057E+02 -0.89809816293E+02  0.14643610786E+03  0.83255254998E+02 0.  0.
         23    2    1    2    0    0 -0.84614344823E+02  0.12871893857E+03 -0.10071257575E+03  0.21183167177E+03  0.10488794856E+03 0.  0.
        -13    1    3    3    0    0  0.16827396594E+02  0.24644884353E+02 -0.56131053778E+02  0.63570644162E+02  0.00000000000E+00 0.  1.
         14    1    3    3    0    0 -0.64148854933E+02  0.40216295704E+02 -0.33678762515E+02  0.82865463698E+02  0.00000000000E+00 0. -1.
        -11    1    4    4    0    0 -0.73153165212E+00  0.87341806978E+02 -0.74218180567E+02  0.11461877992E+03  0.00000000000E+00 0. -1.
         11    1    4    4    0    0 -0.83882813171E+02  0.41377131596E+02 -0.26494395184E+02  0.97212891844E+02  0.00000000000E+00 0.  1.
          1    1    1    2  501    0  0.13193580316E+03 -0.19358011863E+03  0.32334140876E+03  0.39928684564E+03  0.00000000000E+00 0. -1.
<scales pt_clust_5="13000.00000" pt_clust_6="13000.00000" pt_clust_7="13000.00000" pt_clust_8="13000.00000" pt_clust_9="234.26549"></scales>
<clustering>
<clus scale="   83.255">  5  6 -1 -1</clus>
<clus scale="  104.888">  7  8 -1 -1</clus>
<clus scale="  108.853">  5  7 -1 -1</clus>
<clus scale="  234.265">  1  9  2 -1</clus>
<clus scale="  234.265">  1  5  2 -1</clus>
</clustering>
</event>
<event>
 9    2  0.1488992E-004  0.2151407E+03  0.7546771E-02  0.1178186E+00
          2   -1    0    0  502    0 -0.00000000000E+00  0.00000000000E+00  0.12408578773E+04  0.12408578773E+04  0.00000000000E+00 0. -1.
         21   -1    0    0  501  502  0.00000000000E+00 -0.00000000000E+00 -0.94381097040E+02  0.94381097040E+02  0.00000000000E+00 0. -1.
         24    2    1    2    0    0 -0.32691898765E+01 -0.20232570778E+02  0.11213122161E+03  0.13964884949E+03  0.80674319218E+02 0.  0.
         23    2    1    2    0    0  0.19368281522E+03 -0.19214423969E+02  0.96561400309E+03  0.98934405618E+03  0.92244411922E+02 0.  0.
        -11    1    3    3    0    0 -0.15629735280E+02  0.12865779064E+02  0.10040076789E+03  0.10242134099E+03  0.00000000000E+00 0.  1.
         12    1    3    3    0    0  0.12360545403E+02 -0.33098349842E+02  0.11730453715E+02  0.37227508502E+02  0.00000000000E+00 0. -1.
        -13    1    4    4    0    0  0.29240576413E+02 -0.16391738419E+02  0.58350310294E+02  0.67293826677E+02  0.00000000000E+00 0.  1.
         13    1    4    4    0    0  0.16444223881E+03 -0.28226855500E+01  0.90726369280E+03  0.92205022950E+03  0.00000000000E+00 0. -1.
          1    1    1    2  501    0 -0.19041362535E+03  0.39446994747E+02  0.68731555558E+02  0.20624606867E+03  0.00000000000E+00 0. -1.
<scales pt_clust_5="13000.00000" pt_clust_6="13000.00000" pt_clust_7="13000.00000" pt_clust_8="13000.00000" pt_clust_9="194.36175"></scales>
<clustering>
<clus scale="   80.674">  5  6 -1 -1</clus>
<clus scale="   83.237">  1  5  2 -1</clus>
<clus scale="   92.244">  7  8 -1 -1</clus>
<clus scale="  194.362">  2  9  1 -1</clus>
<clus scale="  194.362">  2  5  1 -1</clus>
</clustering>
</event>
<event>
 9    2  0.1488992E-004  0.1431824E+03  0.7546771E-02  0.1212514E+00
          2   -1    0    0  502    0 -0.00000000000E+00  0.00000000000E+00  0.65640670069E+03  0.65640670069E+03  0.00000000000E+00 0. -1.
         21   -1    0    0  501  502  0.00000000000E+00 -0.00000000000E+00 -0.36349245756E+02  0.36349245756E+02  0.00000000000E+00 0. -1.
         24    2    1    2    0    0  0.95589147105E+02  0.17311114837E+02  0.30313274003E+03  0.33538260054E+03  0.10561756923E+03 0.  0.
         23    2    1    2    0    0 -0.89420865615E+02 -0.38945195247E+02  0.21681061822E+03  0.25476285187E+03  0.91566626434E+02 0.  0.
        -13    1    3    3    0    0 -0.87277012852E+01  0.35749975996E+02  0.63778229643E+02  0.73633525855E+02  0.00000000000E+00 0.  1.
         14    1    3    3    0    0  0.10431684839E+03 -0.18438861159E+02  0.23935451038E+03  0.26174907469E+03  0.00000000000E+00 0. -1.
        -13    1    4    4    0    0 -0.34181013001E+02  0.18395971744E+02  0.13554299004E+03  0.14099168619E+03  0.00000000000E+00 0.  1.
         13    1    4    4    0    0 -0.55239852614E+02 -0.57341166991E+02  0.81267628187E+02  0.11377116568E+03  0.00000000000E+00 0. -1.
          1    1    1    2  501    0 -0.61682814907E+01  0.21634080409E+02  0.10011409668E+03  0.10261049403E+03  0.00000000000E+00 0. -1.
<scales pt_clust_5="13000.00000" pt_clust_6="13000.00000" pt_clust_7="13000.00000" pt_clust_8="13000.00000" pt_clust_9="22.49626"></scales>
<clustering>
<clus scale="   22.496">  2  9  1 -1</clus>
<clus scale="   91.567">  7  8 -1 -1</clus>
<clus scale="  105.618">  5  6 -1 -1</clus>
<clus scale="  133.156">  2  7  1 -1</clus>
<clus scale="   22.496">  2  5  1 -1</clus>
</clustering>
</event>
<event>
 9    2  0.1488992E-004  0.1490015E+03  0.7546771E-02  0.1202713E+00
         21   -1    0    0  501  502  0.00000000000E+00  0.00000000000E+00  0.10411125056E+03  0.10411125056E+03  0.00000000000E+00 0. -1.
         -1   -1    0    0    0  501 -0.00000000000E+00 -0.00000000000E+00 -0.34988506454E+03  0.34988506454E+03  0.00000000000E+00 0.  1.
         23    2    1    2    0    0 -0.15360171559E+02 -0.12361144177E+03 -0.18339335364E+03  0.23950189335E+03  0.90621803953E+02 0.  0.
         24    2    1    2    0    0  0.25442273942E+02  0.85209863702E+02  0.10954113184E+02  0.13110203803E+03  0.95706434505E+02 0.  0.
        -13    1    4    4    0    0  0.17743257136E+01  0.79885903738E+02 -0.28458139573E+02  0.84821999244E+02  0.00000000000E+00 0.  1.
         14    1    4    4    0    0  0.23667948228E+02  0.53239599639E+01  0.39412252757E+02  0.46280038791E+02  0.00000000000E+00 0. -1.
        -13    1    3    3    0    0 -0.36554937788E+02 -0.83514525577E+02 -0.16882310789E+03  0.19186500780E+03  0.00000000000E+00 0.  1.
         13    1    3    3    0    0  0.21194766229E+02 -0.40096916196E+02 -0.14570245748E+02  0.47636885552E+02  0.00000000000E+00 0. -1.
         -2    1    1    2    0  502 -0.10082102384E+02  0.38401578071E+02 -0.73334573526E+02  0.83392383711E+02  0.00000000000E+00 0.  1.
<scales pt_clust_5="13000.00000" pt_clust_6="13000.00000" pt_clust_7="13000.00000" pt_clust_8="13000.00000" pt_clust_9="39.70304"></scales>
<clustering>
<clus scale="   39.703">  1  9  2 -1</clus>
<clus scale="   90.622">  7  8 -1 -1</clus>
<clus scale="   95.706">  5  6 -1 -1</clus>
<clus scale="  145.788">  2  7  1 -1</clus>
<clus scale="   39.703">  1  5  2 -1</clus>
</clustering>
</event>
<event>
 9    2  0.1488992E-004  0.1333375E+03  0.7546771E-02  0.1245097E+00
         21   -1    0    0  501  502  0.00000000000E+00  0.00000000000E+00  0.61605343465E+02  0.61605343465E+02  0.00000000000E+00 0. -1.
          2   -1    0    0  502    0 -0.00000000000E+00 -0.00000000000E+00 -0.89893689707E+03  0.89893689707E+03  0.00000000000E+00 0. -1.
         24    2    1    2    0    0 -0.10899060176E+02 -0.16710657098E+02 -0.66913563485E+03  0.67438901659E+03  0.81608898365E+02 0.  0.
         23    2    1    2    0    0 -0.78213770112E+02 -0.21224978383E+02 -0.13247929902E+03  0.18292587347E+03  0.96660317463E+02 0.  0.
        -13    1    3    3    0    0  0.32452599181E+02  0.53446826091E+01 -0.19377165832E+03  0.19654310569E+03  0.00000000000E+00 0.  1.
         14    1    3    3    0    0 -0.43351659357E+02 -0.22055339707E+02 -0.47536397653E+03  0.47784591090E+03  0.00000000000E+00 0. -1.
        -13    1    4    4    0    0 -0.29746036168E+02 -0.78408261655E+01 -0.12889667011E+03  0.13251662834E+03  0.00000000000E+00 0.  1.
         13    1    4    4    0    0 -0.48467733944E+02 -0.13384152217E+02 -0.35826289165E+01  0.50409245126E+02  0.00000000000E+00 0. -1.
          1    1    1    2  501    0  0.89112830288E+02  0.37935635481E+02 -0.35716619726E+02  0.10322735047E+03  0.00000000000E+00 0. -1.
<scales pt_clust_5="13000.00000" pt_clust_6="13000.00000" pt_clust_7="13000.00000" pt_clust_8="13000.00000" pt_clust_9="91.84595"></scales>
<clustering>
<clus scale="   81.609">  5  6 -1 -1</clus>
<clus scale="   84.012">  2  5  1 -1</clus>
<clus scale="   91.846">  1  9  2 -1</clus>
<clus scale="   96.660">  7  8 -1 -1</clus>
<clus scale="   91.846">  1  5  2 -1</clus>
</clustering>
</event>
<event>
 9    2  0.1488992E-004  0.1720237E+03  0.7546771E-02  0.1201243E+00
          2   -1    0    0  502    0 -0.00000000000E+00  0.00000000000E+00  0.81191694499E+02  0.81191694499E+02  0.00000000000E+00 0. -1.
         21   -1    0    0  501  502  0.00000000000E+00 -0.00000000000E+00 -0.71426894400E+03  0.71426894400E+03  0.00000000000E+00 0. -1.
         24    2    1    2    0    0  0.51253640805E+02 -0.21861912327E+02 -0.17404702206E+02  0.99339250562E+02  0.80377136904E+02 0.  0.
         23    2    1    2    0    0 -0.36159520721E+02 -0.13495425390E+03 -0.33730115057E+03  0.37626239250E+03  0.91000880462E+02 0.  0.
        -13    1    3    3    0    0  0.37518505825E+02  0.76515623543E+01 -0.43256795367E+02  0.57769672244E+02  0.00000000000E+00 0.  1.
         14    1    3    3    0    0  0.13735134981E+02 -0.29513474681E+02  0.25852093161E+02  0.41569578318E+02  0.00000000000E+00 0. -1.
        -11    1    4    4    0    0 -0.63787476749E+02 -0.95059436682E+02 -0.19750993927E+03  0.22828778943E+03  0.00000000000E+00 0. -1.
         11    1    4    4    0    0  0.27627956028E+02 -0.39894817218E+02 -0.13979121131E+03  0.14797460307E+03  0.00000000000E+00 0.  1.
          1    1    1    2  501    0 -0.15094120084E+02  0.15681616623E+03 -0.27837139672E+03  0.31985899544E+03  0.00000000000E+00 0. -1.
<scales pt_clust_5="13000.00000" pt_clust_6="13000.00000" pt_clust_7="13000.00000" pt_clust_8="13000.00000" pt_clust_9="145.98293"></scales>
<clustering>
<clus scale="   80.377">  5  6 -1 -1</clus>
<clus scale="   91.001">  7  8 -1 -1</clus>
<clus scale="   97.803">  1  5  2 -1</clus>
<clus scale="  145.983">  2  9  1 -1</clus>
<clus scale="  145.983">  2  5  1 -1</clus>
</clustering>
</event>
<event>
 9    2  0.1488992E-004  0.1520790E+03  0.7546771E-02  0.1199781E+00
          2   -1    0    0  502    0 -0.00000000000E+00  0.00000000000E+00  0.61599665985E+03  0.61599665985E+03  0.00000000000E+00 0. -1.
         21   -1    0    0  501  502  0.00000000000E+00 -0.00000000000E+00 -0.91118673416E+02  0.91118673416E+02  0.00000000000E+00 0.  1.
         23    2    1    2    0    0  0.38458527397E+02 -0.12046947775E+03  0.52886001866E+03  0.55115552204E+03  0.89930732982E+02 0.  0.
         24    2    1    2    0    0 -0.31858782508E+02  0.96449350925E+02  0.61040064875E+01  0.12908507770E+03  0.79424423650E+02 0.  0.
        -13    1    4    4    0    0 -0.38680321767E+02  0.53627171599E+02 -0.30048725972E+02  0.72628966386E+02  0.00000000000E+00 0.  1.
         14    1    4    4    0    0  0.68215392590E+01  0.42822179327E+02  0.36152732460E+02  0.56456111312E+02  0.00000000000E+00 0. -1.
        -13    1    3    3    0    0  0.60797548038E+02 -0.55174866172E+02  0.22371957382E+03  0.23830873970E+03  0.00000000000E+00 0. -1.
         13    1    3    3    0    0 -0.22339020641E+02 -0.65294611580E+02  0.30514044484E+03  0.31284678234E+03  0.00000000000E+00 0.  1.
          1    1    1    2  501    0 -0.65997448887E+01  0.24020126826E+02 -0.10086038716E+02  0.26874733530E+02  0.00000000000E+00 0. -1.
<scales pt_clust_5="13000.00000" pt_clust_6="13000.00000" pt_clust_7="13000.00000" pt_clust_8="13000.00000" pt_clust_9="24.91030"></scales>
<clustering>
<clus scale="   24.910">  2  9  1 -1</clus>
<clus scale="   79.424">  5  6 -1 -1</clus>
<clus scale="   89.931">  7  8 -1 -1</clus>
<clus scale="  146.112">  2  5  1 -1</clus>
<clus scale="   24.910">  2  5  1 -1</clus>
</clustering>
</event>
<event>
 9    2  0.1488992E-004  0.1223529E+03  0.7546771E-02  0.1247897E+00
         -3   -1    0    0    0  501 -0.00000000000E+00  0.00000000000E+00  0.33077795812E+03  0.33077795812E+03  0.00000000000E+00 0.  1.
         21   -1    0    0  501  502  0.00000000000E+00 -0.00000000000E+00 -0.83600116880E+02  0.83600116880E+02  0.00000000000E+00 0.  1.
         23    2    1    2    0    0  0.38620225058E+02  0.84248022535E+02  0.23676995517E+03  0.26901509821E+03  0.87862735618E+02 0.  0.
         24    2    1    2    0    0 -0.50202241260E+02 -0.40672097373E+02 -0.22650434332E+02  0.89453613524E+02  0.57571019313E+02 0.  0.
        -11    1    4    4    0    0 -0.45138309156E+02 -0.50242681665E+02 -0.32375488286E+02  0.74899707985E+02  0.00000000000E+00 0.  1.
         12    1    4    4    0    0 -0.50639321042E+01  0.95705842921E+01  0.97250539538E+01  0.14553905539E+02  0.00000000000E+00 0. -1.
        -13    1    3    3    0    0  0.63790706340E+02  0.79491034050E+02  0.19457661321E+03  0.21965458592E+03  0.00000000000E+00 0.  1.
         13    1    3    3    0    0 -0.25170481283E+02  0.47569884846E+01  0.42193341959E+02  0.49360512286E+02  0.00000000000E+00 0. -1.
         -4    1    1    2    0  502  0.11582016202E+02 -0.43575925162E+02  0.33058320410E+02  0.55909363271E+02  0.00000000000E+00 0.  1.
<scales pt_clust_5="13000.00000" pt_clust_6="13000.00000" pt_clust_7="13000.00000" pt_clust_8="13000.00000" pt_clust_9="45.08885"></scales>
<clustering>
<clus scale="   45.089">  2  9  1 -1</clus>
<clus scale="   57.571">  5  6 -1 -1</clus>
<clus scale="   87.863">  7  8 -1 -1</clus>
<clus scale="  102.785">  2  5  1 -1</clus>
<clus scale="   45.089">  2  5  1 -1</clus>
</clustering>
</event>
<event>
 9    2  0.1488992E-004  0.1171298E+03  0.7546771E-02  0.1252828E+00
         21   -1    0    0  501  502  0.00000000000E+00  0.00000000000E+00  0.33663858565E+03  0.33663858565E+03  0.00000000000E+00 0.  1.
          2   -1    0    0  502    0 -0.00000000000E+00 -0.00000000000E+00 -0.95828940325E+02  0.95828940325E+02  0.00000000000E+00 0. -1.
         24    2    1    2    0    0  0.63666067385E+02  0.25300779436E+02 -0.25635875450E+02  0.10586645246E+03  0.76531105241E+02 0.  0.
         23    2    1    2    0    0 -0.10231945063E+03 -0.70817458135E+00  0.15959409332E+03  0.21034227686E+03  0.91125338543E+02 0.  0.
        -11    1    3    3    0    0  0.37649746179E+02  0.22534052069E+02  0.23812540902E+02  0.49923180930E+02  0.00000000000E+00 0.  1.
         12    1    3    3    0    0  0.26016321206E+02  0.27667273667E+01 -0.49448416352E+02  0.55943271527E+02  0.00000000000E+00 0. -1.
        -13    1    4    4    0    0 -0.51229975989E+02  0.38863729368E+02  0.11522768087E+03  0.13195574387E+03  0.00000000000E+00 0.  1.
         13    1    4    4    0    0 -0.51089474644E+02 -0.39571903949E+02  0.44366412441E+02  0.78386532991E+02  0.00000000000E+00 0. -1.
          1    1    1    2  501    0  0.38653383248E+02 -0.24592604855E+02  0.10685142746E+03  0.11625879666E+03  0.00000000000E+00 0. -1.
<scales pt_clust_5="13000.00000" pt_clust_6="13000.00000" pt_clust_7="13000.00000" pt_clust_8="13000.00000" pt_clust_9="45.81354"></scales>
<clustering>
<clus scale="   45.814">  1  9  2 -1</clus>
<clus scale="   76.531">  5  6 -1 -1</clus>
<clus scale="   91.125">  7  8 -1 -1</clus>
<clus scale="  106.172">  2  5  1 -1</clus>
<clus scale="   45.814">  1  5  2 -1</clus>
</clustering>
</event>
<event>
 9    2  0.1488992E-004  0.2790599E+03  0.7546771E-02  0.1135714E+00
          2   -1    0    0  502    0 -0.00000000000E+00  0.00000000000E+00  0.72353245739E+03  0.72353245739E+03  0.00000000000E+00 0. -1.
         21   -1    0    0  501  502  0.00000000000E+00 -0.00000000000E+00 -0.15876711274E+03  0.15876711274E+03  0.00000000000E+00 0.  1.
         24    2    1    2    0    0 -0.59448753464E+02  0.25813298177E+02  0.14089740513E+03  0.17458759184E+03  0.80176479114E+02 0.  0.
         23    2    1    2    0    0 -0.40813165289E+02  0.24601170520E+03  0.13286076049E+03  0.29707045206E+03  0.91713675372E+02 0.  0.
        -13    1    3    3    0    0 -0.84944531400E+01  0.44319348626E+02  0.87733157389E+02  0.98658336202E+02  0.00000000000E+00 0.  1.
         14    1    3    3    0    0 -0.50954300324E+02 -0.18506050448E+02  0.53164247738E+02  0.75929255641E+02  0.00000000000E+00 0. -1.
        -11    1    4    4    0    0  0.47405787095E+01  0.12089913539E+03  0.10682286778E+03  0.16140074072E+03  0.00000000000E+00 0. -1.
         11    1    4    4    0    0 -0.45553743999E+02  0.12511256981E+03  0.26037892708E+02  0.13566971133E+03  0.00000000000E+00 0.  1.
          1    1    1    2  501    0  0.10026191875E+03 -0.27182500338E+03  0.29100717904E+03  0.41064152623E+03  0.00000000000E+00 0. -1.
<scales pt_clust_5="13000.00000" pt_clust_6="13000.00000" pt_clust_7="13000.00000" pt_clust_8="13000.00000" pt_clust_9="263.55851"></scales>
<clustering>
<clus scale="   80.176">  5  6 -1 -1</clus>
<clus scale="   91.714">  7  8 -1 -1</clus>
<clus scale="  103.096">  1  5  2 -1</clus>
<clus scale="  263.559">  2  9  1 -1</clus>
<clus scale="  263.559">  2  5  1 -1</clus>
</clustering>
</event>
<event>
 9    2  0.1488992E-004  0.1084686E+03  0.7546771E-02  0.1266982E+00
          2   -1    0    0  502    0 -0.00000000000E+00  0.00000000000E+00  0.30680526589E+03  0.30680526589E+03  0.00000000000E+00 0. -1.
         21   -1    0    0  501  502  0.00000000000E+00 -0.00000000000E+00 -0.10437445999E+03  0.10437445999E+03  0.00000000000E+00 0. -1.
         24    2    1    2    0    0 -0.19332506076E+02  0.57328283167E+02  0.53539446420E+02  0.11631056126E+03  0.83674347900E+02 0.  0.
         23    2    1    2    0    0 -0.71330460660E+01 -0.52364619665E+02 -0.32706871734E+02  0.11128544805E+03  0.92313475451E+02 0.  0.
        -11    1    3    3    0    0  0.32866541258E+02  0.23350134414E+02  0.14720494779E+02  0.42920056826E+02  0.00000000000E+00 0.  1.
         12    1    3    3    0    0 -0.52199047333E+02  0.33978148753E+02  0.38818951641E+02  0.73390504438E+02  0.00000000000E+00 0. -1.
        -13    1    4    4    0    0  0.41048186208E+02 -0.12619878158E+02 -0.20742043943E+02  0.47691165876E+02  0.00000000000E+00 0. -1.
         13    1    4    4    0    0 -0.48181232274E+02 -0.39744741507E+02 -0.11964827791E+02  0.63594282172E+02  0.00000000000E+00 0.  1.
          1    1    1    2  501    0  0.26465552142E+02 -0.49636635022E+01  0.18159823121E+03  0.18358371656E+03  0.00000000000E+00 0. -1.
<scales pt_clust_5="13000.00000" pt_clust_6="13000.00000" pt_clust_7="13000.00000" pt_clust_8="13000.00000" pt_clust_9="26.92701"></scales>
<clustering>
<clus scale="   26.927">  2  9  1 -1</clus>
<clus scale="   83.674">  5  6 -1 -1</clus>
<clus scale="   92.313">  7  8 -1 -1</clus>
<clus scale="  101.218">  1  5  2 -1</clus>
<clus scale="   26.927">  2  5  1 -1</clus>
</clustering>
</event>
<event>
 9    2  0.1488992E-004  0.9290872E+02  0.7546771E-02  0.1303607E+00
         -1   -1    0    0    0  501 -0.00000000000E+00  0.00000000000E+00  0.14708709475E+03  0.14708709475E+03  0.00000000000E+00 0.  1.
         21   -1    0    0  501  502  0.00000000000E+00 -0.00000000000E+00 -0.16801307771E+03  0.16801307771E+03  0.00000000000E+00 0. -1.
         23    2    1    2    0    0  0.14274262150E+02  0.23890599713E+02  0.67114668731E+02  0.11634966208E+03  0.90875463096E+02 0.  0.
         24    2    1    2    0    0  0.13879011171E+02  0.20311603157E+02 -0.11382240370E+03  0.14034554249E+03  0.78333540328E+02 0.  0.
        -11    1    4    4    0    0 -0.17528611145E+02 -0.22791427218E+02 -0.38359538561E+02  0.47939081780E+02  0.00000000000E+00 0.  1.
         12    1    4    4    0    0  0.31407622316E+02  0.43103030374E+02 -0.75462865136E+02  0.92406460713E+02  0.00000000000E+00 0. -1.
        -13    1    3    3    0    0 -0.66677706475E+01  0.53477813145E+02  0.57584729501E+02  0.78869111418E+02  0.00000000000E+00 0.  1.
         13    1    3    3    0    0  0.20942032797E+02 -0.29587213431E+02  0.95299392300E+01  0.37480550663E+02  0.00000000000E+00 0. -1.
         -2    1    1    2    0  502 -0.28153273320E+02 -0.44202202870E+02  0.25781752009E+02  0.58404967887E+02  0.00000000000E+00 0.  1.
<scales pt_clust_5="13000.00000" pt_clust_6="13000.00000" pt_clust_7="13000.00000" pt_clust_8="13000.00000" pt_clust_9="52.40653"></scales>
<clustering>
<clus scale="   52.407">  2  9  1 -1</clus>
<clus scale="   78.334">  5  6 -1 -1</clus>
<clus scale="   80.683">  2  5  1 -1</clus>
<clus scale="   90.875">  7  8 -1 -1</clus>
<clus scale="   52.407">  2  5  1 -1</clus>
</clustering>
</event>
<event>
 9    2  0.1488992E-004  0.1621106E+03  0.7546771E-02  0.1188388E+00
          2   -1    0    0  502    0 -0.00000000000E+00  0.00000000000E+00  0.57815062014E+03  0.57815062014E+03  0.00000000000E+00 0. -1.
         21   -1    0    0  501  502  0.00000000000E+00 -0.00000000000E+00 -0.11945331315E+03  0.11945331315E+03  0.00000000000E+00 0. -1.
         24    2    1    2    0    0 -0.94856394513E+02 -0.78997289825E+02  0.27826402301E+03  0.31495291070E+03  0.80784664879E+02 0.  0.
         23    2    1    2    0    0  0.16973253109E+03  0.68263005056E+02  0.21648120265E+02  0.20676927562E+03  0.93893142781E+02 0.  0.
        -11    1    3    3    0    0 -0.18795188922E+00 -0.47348043884E+02  0.79483562694E+02  0.92517616291E+02  0.00000000000E+00 0.  1.
         12    1    3    3    0    0 -0.94668442624E+02 -0.31649245941E+02  0.19878046031E+03  0.22243529441E+03  0.00000000000E+00 0. -1.
        -11    1    4    4    0    0  0.11163358411E+03  0.34390978476E+02 -0.31577086154E+02  0.12100375561E+03  0.00000000000E+00 0. -1.
         11    1    4    4    0    0  0.58098946983E+02  0.33872026580E+02  0.53225206420E+02  0.85765520016E+02  0.00000000000E+00 0.  1.
          1    1    1    2  501    0 -0.74876136578E+02  0.10734284769E+02  0.15878516371E+03  0.17588174696E+03  0.00000000000E+00 0. -1.
<scales pt_clust_5="13000.00000" pt_clust_6="13000.00000" pt_clust_7="13000.00000" pt_clust_8="13000.00000" pt_clust_9="75.64170"></scales>
<clustering>
<clus scale="   75.642">  2  9  1 -1</clus>
<clus scale="   80.785">  5  6 -1 -1</clus>
<clus scale="   93.893">  7  8 -1 -1</clus>
<clus scale="  154.887">  1  5  2 -1</clus>
<clus scale="   75.642">  2  5  1 -1</clus>
</clustering>
</event>
<event>
 9    2  0.1488992E-004  0.3629035E+03  0.7546771E-02  0.1086023E+00
         -1   -1    0    0    0  501 -0.00000000000E+00  0.00000000000E+00  0.11579874833E+04  0.11579874833E+04  0.00000000000E+00 0.  1.
         21   -1    0    0  501  502  0.00000000000E+00 -0.00000000000E+00 -0.18036784002E+03  0.18036784002E+03  0.00000000000E+00 0.  1.
         23    2    1    2    0    0  0.39121579272E+02  0.13278333479E+03  0.27151991340E+03  0.31823361628E+03  0.91584164535E+02 0.  0.
         24    2    1    2    0    0  0.10268669595E+03 -0.40695200340E+03  0.40255830793E+03  0.58720665694E+03  0.81264851380E+02 0.  0.
        -13    1    4    4    0    0  0.98966820952E+02 -0.31865627093E+03  0.35359726543E+03  0.48617617874E+03  0.00000000000E+00 0.  1.
         14    1    4    4    0    0  0.37198749991E+01 -0.88295732466E+02  0.48961042499E+02  0.10103047819E+03  0.00000000000E+00 0. -1.
        -13    1    3    3    0    0 -0.24895319482E+02  0.76794002531E+02  0.12432447322E+03  0.14823518610E+03  0.00000000000E+00 0. -1.
         13    1    3    3    0    0  0.64016898753E+02  0.55989332260E+02  0.14719544019E+03  0.16999843018E+03  0.00000000000E+00 0.  1.
         -2    1    1    2    0  502 -0.14180827522E+03  0.27416866861E+03  0.30354142196E+03  0.43291505011E+03  0.00000000000E+00 0.  1.
<scales pt_clust_5="13000.00000" pt_clust_6="13000.00000" pt_clust_7="13000.00000" pt_clust_8="13000.00000" pt_clust_9="353.68768"></scales>
<clustering>
<clus scale="   81.265">  5  6 -1 -1</clus>
<clus scale="   91.584">  7  8 -1 -1</clus>
<clus scale="  165.981">  1  7  2 -1</clus>
<clus scale="  353.688">  2  9  1 -1</clus>
<clus scale="  353.688">  2  5  1 -1</clus>
</clustering>
</event>
<event>
 9    2  0.1488992E-004  0.1229165E+03  0.7546771E-02  0.1241442E+00
         21   -1    0    0  501  502  0.00000000000E+00  0.00000000000E+00  0.27779449947E+02  0.27779449947E+02  0.00000000000E+00 0.  1.
          2   -1    0    0  502    0 -0.00000000000E+00 -0.00000000000E+00 -0.13406578225E+04  0.13406578225E+04  0.00000000000E+00 0. -1.
         24    2    1    2    0    0 -0.51239301432E+02 -0.63746814873E+02 -0.36461357354E+03  0.38245841354E+03  0.81500047006E+02 0.  0.
         23    2    1    2    0    0  0.45497117143E+02 -0.59944802267E+02 -0.24369695456E+03  0.27061291321E+03  0.90442114879E+02 0.  0.
        -11    1    3    3    0    0 -0.47578839803E+02 -0.79340852595E+02 -0.34471745393E+03  0.35691573225E+03  0.00000000000E+00 0.  1.
         12    1    3    3    0    0 -0.36604616291E+01  0.15594037722E+02 -0.19896119615E+02  0.25542681292E+02  0.00000000000E+00 0. -1.
        -13    1    4    4    0    0  0.59956622180E+02 -0.54975629421E+01 -0.10725497765E+03  0.12299857712E+03  0.00000000000E+00 0.  1.
         13    1    4    4    0    0 -0.14459505037E+02 -0.54447239325E+02 -0.13644197691E+03  0.14761433609E+03  0.00000000000E+00 0. -1.
          1    1    1    2  501    0  0.57421842893E+01  0.12369161714E+03 -0.70456784442E+03  0.71536594567E+03  0.00000000000E+00 0. -1.
<scales pt_clust_5="13000.00000" pt_clust_6="13000.00000" pt_clust_7="13000.00000" pt_clust_8="13000.00000" pt_clust_9="83.23883"></scales>
<clustering>
<clus scale="   81.500">  5  6 -1 -1</clus>
<clus scale="   90.442">  7  8 -1 -1</clus>
<clus scale="  115.462">  2  5  1 -1</clus>
<clus scale="   83.239">  1  9  2 -1</clus>
<clus scale="   83.239">  1  5  2 -1</clus>
</clustering>
</event>
<event>
 9    2  0.1488992E-004  0.9757986E+02  0.7546771E-02  0.1292138E+00
         -1   -1    0    0    0  501 -0.00000000000E+00  0.00000000000E+00  0.14983098635E+03  0.14983098635E+03  0.00000000000E+00 0.  1.
         21   -1    0    0  501  502  0.00000000000E+00 -0.00000000000E+00 -0.10537737312E+03  0.10537737312E+03  0.00000000000E+00 0. -1.
         24    2    1    2    0    0 -0.16043763444E+02  0.26712591390E+02  0.55294136500E+02  0.10045132738E+03  0.77859249655E+02 0.  0.
         23    2    1    2    0    0  0.31030437206E+02 -0.46899302099E+02 -0.42241733394E+02  0.11453092517E+03  0.90391018418E+02 0.  0.
        -11    1    3    3    0    0  0.27763937120E+01 -0.26678297698E+02  0.22625182500E+02  0.35090437633E+02  0.00000000000E+00 0.  1.
         12    1    3    3    0    0 -0.18820157156E+02  0.53390889088E+02  0.32668954000E+02  0.65360889746E+02  0.00000000000E+00 0. -1.
        -11    1    4    4    0    0  0.16711949876E+02 -0.20620747567E+02  0.27755917984E+02  0.38404368007E+02  0.00000000000E+00 0.  1.
         11    1    4    4    0    0  0.14318487330E+02 -0.26278554532E+02 -0.69997651378E+02  0.76126557167E+02  0.00000000000E+00 0. -1.
         -2    1    1    2    0  502 -0.14986673763E+02  0.20186710709E+02  0.31401210126E+02  0.40226106909E+02  0.00000000000E+00 0.  1.
<scales pt_clust_5="13000.00000" pt_clust_6="13000.00000" pt_clust_7="13000.00000" pt_clust_8="13000.00000" pt_clust_9="25.14168"></scales>
<clustering>
<clus scale="   25.142">  2  9  1 -1</clus>
<clus scale="   77.859">  5  6 -1 -1</clus>
<clus scale="   86.101">  1  5  2 -1</clus>
<clus scale="   90.391">  7  8 -1 -1</clus>
<clus scale="   25.142">  2  5  1 -1</clus>
</clustering>
</event>
<event>
 9    2  0.1488992E-004  0.9625507E+02  0.7546771E-02  0.1291080E+00
          2   -1    0    0  502    0 -0.00000000000E+00  0.00000000000E+00  0.37834787989E+03  0.37834787989E+03  0.00000000000E+00 0. -1.
         21   -1    0    0  501  502  0.00000000000E+00 -0.00000000000E+00 -0.53995710659E+02  0.53995710659E+02  0.00000000000E+00 0.  1.
         23    2    1    2    0    0 -0.21416964988E+02  0.27221038139E+01  0.29302000252E+03  0.30822324370E+03  0.93138337144E+02 0.  0.
         24    2    1    2    0    0  0.34376653763E+02 -0.21643856302E+02  0.23936459220E+02  0.10002298725E+03  0.88212431430E+02 0.  0.
        -13    1    4    4    0    0  0.50496241817E+01 -0.35750575335E+02 -0.23072976145E+02  0.42848157129E+02  0.00000000000E+00 0.  1.
         14    1    4    4    0    0  0.29327029582E+02  0.14106719033E+02  0.47009435365E+02  0.57174830120E+02  0.00000000000E+00 0. -1.
        -13    1    3    3    0    0  0.36124399347E+02  0.44963812176E+01  0.86948223826E+02  0.94261250251E+02  0.00000000000E+00 0.  1.
         13    1    3    3    0    0 -0.57541364335E+02 -0.17742774037E+01  0.20607177869E+03  0.21396199345E+03  0.00000000000E+00 0. -1.
          1    1    1    2  501    0 -0.12959688775E+02  0.18921752488E+02  0.73957075010E+01  0.24097359603E+02  0.00000000000E+00 0. -1.
<scales pt_clust_5="13000.00000" pt_clust_6="13000.00000" pt_clust_7="13000.00000" pt_clust_8="13000.00000" pt_clust_9="22.93439"></scales>
<clustering>
<clus scale="   22.934">  2  9  1 -1</clus>
<clus scale="   88.212">  5  6 -1 -1</clus>
<clus scale="   91.497">  2  5  1 -1</clus>
<clus scale="   93.138">  7  8 -1 -1</clus>
<clus scale="   22.934">  2  5  1 -1</clus>
</clustering>
</event>
<event>
 9    2  0.1488992E-004  0.1185723E+03  0.7546771E-02  0.1249354E+00
         21   -1    0    0  501  502  0.00000000000E+00  0.00000000000E+00  0.20947581796E+03  0.20947581796E+03  0.00000000000E+00 0. -1.
          2   -1    0    0  502    0 -0.00000000000E+00 -0.00000000000E+00 -0.28820794799E+03  0.28820794799E+03  0.00000000000E+00 0. -1.
         24    2    1    2    0    0  0.11187275796E+02  0.91361692638E+02 -0.21969755498E+03  0.25130719230E+03  0.80101031290E+02 0.  0.
         23    2    1    2    0    0  0.82681005579E+01 -0.19890381760E+02  0.87024980676E+01  0.94784549539E+02  0.91893354414E+02 0.  0.
        -13    1    3    3    0    0  0.33732051899E+02  0.19835093866E+02 -0.37160762593E+02  0.53964845506E+02  0.00000000000E+00 0.  1.
         14    1    3    3    0    0 -0.22544776103E+02  0.71526598772E+02 -0.18253679239E+03  0.19734234679E+03  0.00000000000E+00 0. -1.
        -11    1    4    4    0    0  0.43067586881E+02 -0.88730640567E+01 -0.20041278075E+02  0.48323918843E+02  0.00000000000E+00 0.  1.
         11    1    4    4    0    0 -0.34799486323E+02 -0.11017317703E+02  0.28743776142E+02  0.46460630696E+02  0.00000000000E+00 0. -1.
          1    1    1    2  501    0 -0.19455376354E+02 -0.71471310878E+02  0.13226292688E+03  0.15159202411E+03  0.00000000000E+00 0. -1.
<scales pt_clust_5="13000.00000" pt_clust_6="13000.00000" pt_clust_7="13000.00000" pt_clust_8="13000.00000" pt_clust_9="74.07199"></scales>
<clustering>
<clus scale="   74.072">  1  9  2 -1</clus>
<clus scale="   80.101">  5  6 -1 -1</clus>
<clus scale="   91.893">  7  8 -1 -1</clus>
<clus scale="  109.687">  2  5  1 -1</clus>
<clus scale="   74.072">  1  5  2 -1</clus>
</clustering>
</event>
<event>
 9    2  0.1488992E-004  0.1242903E+03  0.7546771E-02  0.1246947E+00
         -1   -1    0    0    0  501 -0.00000000000E+00  0.00000000000E+00  0.11967673218E+03  0.11967673218E+03  0.00000000000E+00 0.  1.
         21   -1    0    0  501  502  0.00000000000E+00 -0.00000000000E+00 -0.34094639039E+03  0.34094639039E+03  0.00000000000E+00 0.  1.
         23    2    1    2    0    0 -0.11901275632E+01  0.42285670644E+02 -0.10270679517E+03  0.14330551438E+03  0.90544410828E+02 0.  0.
         24    2    1    2    0    0 -0.90727050153E+02  0.24235074709E+02 -0.15580697435E+03  0.19789859400E+03  0.77905736476E+02 0.  0.
        -11    1    4    4    0    0 -0.24827662286E+02  0.46168572203E+02 -0.71767457421E+02  0.88873605860E+02  0.00000000000E+00 0.  1.
         12    1    4    4    0    0 -0.65899387867E+02 -0.21933497494E+02 -0.84039516934E+02  0.10902498815E+03  0.00000000000E+00 0. -1.
        -13    1    3    3    0    0 -0.21916017726E+02  0.16825246063E+02  0.72394896000E+01  0.28562404445E+02  0.00000000000E+00 0.  1.
         13    1    3    3    0    0  0.20725890162E+02  0.25460424581E+02 -0.10994628477E+03  0.11474310993E+03  0.00000000000E+00 0. -1.
         -2    1    1    2    0  502  0.91917177716E+02 -0.66520745353E+02  0.37244111311E+02  0.11941901419E+03  0.00000000000E+00 0.  1.
<scales pt_clust_5="13000.00000" pt_clust_6="13000.00000" pt_clust_7="13000.00000" pt_clust_8="13000.00000" pt_clust_9="96.84417"></scales>
<clustering>
<clus scale="   77.906">  5  6 -1 -1</clus>
<clus scale="   90.544">  7  8 -1 -1</clus>
<clus scale="   99.939">  1  7  2 -1</clus>
<clus scale="   96.844">  2  9  1 -1</clus>
<clus scale="   96.844">  2  5  1 -1</clus>
</clustering>
</event>
<event>
 9    2  0.1488992E-004  0.1239720E+03  0.7546771E-02  0.1240665E+00
         21   -1    0    0  501  502  0.00000000000E+00  0.00000000000E+00  0.79611097297E+02  0.79611097297E+02  0.00000000000E+00 0. -1.
          2   -1    0    0  502    0 -0.00000000000E+00 -0.00000000000E+00 -0.86470310319E+03  0.86470310319E+03  0.00000000000E+00 0. -1.
         24    2    1    2    0    0 -0.40137530039E+01  0.80646323867E+02 -0.76994059300E+03  0.77853568635E+03  0.82397563103E+02 0.  0.
         23    2    1    2    0    0  0.13244859171E+02 -0.53869611049E+02  0.28336558697E+02  0.11388044728E+03  0.95333280784E+02 0.  0.
        -13    1    3    3    0    0  0.40659770687E+01  0.49169337959E+02 -0.15339100759E+03  0.16113024910E+03  0.00000000000E+00 0.  1.
         14    1    3    3    0    0 -0.80797300726E+01  0.31476985908E+02 -0.61654958541E+03  0.61740543725E+03  0.00000000000E+00 0. -1.
        -11    1    4    4    0    0 -0.35508383595E+02 -0.23741504027E+02 -0.11317450611E+02  0.44188109344E+02  0.00000000000E+00 0.  1.
         11    1    4    4    0    0  0.48753242766E+02 -0.30128107022E+02  0.39654009308E+02  0.69692337937E+02  0.00000000000E+00 0. -1.
          1    1    1    2  501    0 -0.92311061668E+01 -0.26776712818E+02 -0.43487971594E+02  0.51898066860E+02  0.00000000000E+00 0. -1.
<scales pt_clust_5="13000.00000" pt_clust_6="13000.00000" pt_clust_7="13000.00000" pt_clust_8="13000.00000" pt_clust_9="28.32325"></scales>
<clustering>
<clus scale="   28.323">  1  9  2 -1</clus>
<clus scale="   82.398">  5  6 -1 -1</clus>
<clus scale="   95.333">  7  8 -1 -1</clus>
<clus scale="  114.324">  2  5  1 -1</clus>
<clus scale="   28.323">  1  5  2 -1</clus>
</clustering>
</event>
<event>
 9    2  0.1488992E-004  0.1461359E+03  0.7546771E-02  0.1209864E+00
         -3   -1    0    0    0  501 -0.00000000000E+00  0.00000000000E+00  0.56448930171E+03  0.56448930171E+03  0.00000000000E+00 0.  1.
         21   -1    0    0  501  502  0.00000000000E+00 -0.00000000000E+00 -0.63964171243E+02  0.63964171243E+02  0.00000000000E+00 0. -1.
         23    2    1    2    0    0 -0.99571378027E+02 -0.37397375667E+02  0.37242336480E+03  0.39827772936E+03  0.92806055989E+02 0.  0.
         24    2    1    2    0    0  0.13270716267E+03  0.32083279782E+02  0.83781319176E+02  0.17458328173E+03  0.69422510406E+02 0.  0.
        -13    1    4    4    0    0  0.31577203273E+02 -0.13486486031E+02  0.46001076979E+02  0.57402997789E+02  0.00000000000E+00 0.  1.
         14    1    4    4    0    0  0.10112995940E+03  0.45569765813E+02  0.37780242198E+02  0.11718028394E+03  0.00000000000E+00 0. -1.
        -11    1    3    3    0    0 -0.61260426713E+02 -0.60512589675E+02  0.30821195065E+03  0.32001440579E+03  0.00000000000E+00 0.  1.
         11    1    3    3    0    0 -0.38310951314E+02  0.23115214008E+02  0.64211414145E+02  0.78263323567E+02  0.00000000000E+00 0. -1.
         -4    1    1    2    0  502 -0.33135784642E+02  0.53140958856E+01  0.44320446498E+02  0.55592461869E+02  0.00000000000E+00 0.  1.
<scales pt_clust_5="13000.00000" pt_clust_6="13000.00000" pt_clust_7="13000.00000" pt_clust_8="13000.00000" pt_clust_9="33.55922"></scales>
<clustering>
<clus scale="   33.559">  2  9  1 -1</clus>
<clus scale="   69.423">  5  6 -1 -1</clus>
<clus scale="   92.806">  7  8 -1 -1</clus>
<clus scale="  132.522">  2  5  1 -1</clus>
<clus scale="   33.559">  2  5  1 -1</clus>
</clustering>
</event>
<event>
 9    2  0.1488992E-004  0.1058064E+03  0.7546771E-02  0.1278146E+00
         21   -1    0    0  501  502  0.00000000000E+00  0.00000000000E+00  0.15975683845E+02  0.15975683845E+02  0.00000000000E+00 0.  1.
          2   -1    0    0  502    0 -0.00000000000E+00 -0.00000000000E+00 -0.10596382428E+04  0.10596382428E+04  0.00000000000E+00 0. -1.
         24    2    1    2    0    0 -0.31800487015E+02 -0.31615985860E+01 -0.68139879444E+03  0.68722847851E+03  0.83411018005E+02 0.  0.
         23    2    1    2    0    0  0.81167055074E+01  0.26963555902E+02 -0.25918487496E+03  0.27997552170E+03  0.10206164357E+03 0.  0.
        -11    1    3    3    0    0 -0.21181079586E+02  0.19164790008E+02 -0.73923695458E+02  0.79250489328E+02  0.00000000000E+00 0.  1.
         12    1    3    3    0    0 -0.10619407429E+02 -0.22326388594E+02 -0.60747509898E+03  0.60797798918E+03  0.00000000000E+00 0. -1.
        -13    1    4    4    0    0  0.31881256957E+02 -0.29671803831E+02 -0.12589333717E+03  0.13321397386E+03  0.00000000000E+00 0.  1.
         13    1    4    4    0    0 -0.23764551450E+02  0.56635359733E+02 -0.13329153779E+03  0.14676154784E+03  0.00000000000E+00 0. -1.
          1    1    1    2  501    0  0.23683781508E+02 -0.23801957316E+02 -0.10307888952E+03  0.10840992641E+03  0.00000000000E+00 0. -1.
<scales pt_clust_5="13000.00000" pt_clust_6="13000.00000" pt_clust_7="13000.00000" pt_clust_8="13000.00000" pt_clust_9="33.57759"></scales>
<clustering>
<clus scale="   33.578">  1  9  2 -1</clus>
<clus scale="   83.411">  5  6 -1 -1</clus>
<clus scale="   87.954">  2  5  1 -1</clus>
<clus scale="  102.062">  7  8 -1 -1</clus>
<clus scale="   33.578">  1  5  2 -1</clus>
</clustering>
</event>
<event>
 9    2  0.1488992E-004  0.1079321E+03  0.7546771E-02  0.1269204E+00
          2   -1    0    0  502    0 -0.00000000000E+00  0.00000000000E+00  0.38741897640E+03  0.38741897640E+03  0.00000000000E+00 0. -1.
         21   -1    0    0  501  502  0.00000000000E+00 -0.00000000000E+00 -0.11546384449E+03  0.11546384449E+03  0.00000000000E+00 0.  1.
         24    2    1    2    0    0 -0.57644656217E+02  0.22788364719E+02  0.11787089141E+03  0.15530158519E+03  0.79892548861E+02 0.  0.
         23    2    1    2    0    0  0.20093567907E+02 -0.39452476367E+02 -0.67691525279E+02  0.12203242249E+03  0.91375708929E+02 0.  0.
        -11    1    3    3    0    0 -0.72181309302E+02  0.36081113963E+02  0.10163088768E+03  0.12977220630E+03  0.00000000000E+00 0.  1.
         12    1    3    3    0    0  0.14536653085E+02 -0.13292749243E+02  0.16240003735E+02  0.25529378893E+02  0.00000000000E+00 0. -1.
        -11    1    4    4    0    0  0.30715772657E+02 -0.19027211681E+02 -0.85568656941E+02  0.92884274907E+02  0.00000000000E+00 0.  1.
         11    1    4    4    0    0 -0.10622204750E+02 -0.20425264686E+02  0.17877131662E+02  0.29148147587E+02  0.00000000000E+00 0. -1.
          1    1    1    2  501    0  0.37551088310E+02  0.16664111648E+02  0.22177576578E+03  0.22554881320E+03  0.00000000000E+00 0. -1.
<scales pt_clust_5="13000.00000" pt_clust_6="13000.00000" pt_clust_7="13000.00000" pt_clust_8="13000.00000" pt_clust_9="41.08258"></scales>
<clustering>
<clus scale="   41.083">  2  9  1 -1</clus>
<clus scale="   79.893">  5  6 -1 -1</clus>
<clus scale="   91.376">  7  8 -1 -1</clus>
<clus scale="   98.400">  1  5  2 -1</clus>
<clus scale="   41.083">  2  5  1 -1</clus>
</clustering>
</event>
<event>
 9    2  0.1488992E-004  0.1613296E+03  0.7546771E-02  0.1198403E+00
         -3   -1    0    0    0  501 -0.00000000000E+00  0.00000000000E+00  0.58331497448E+03  0.58331497448E+03  0.00000000000E+00 0.  1.
         21   -1    0    0  501  502  0.00000000000E+00 -0.00000000000E+00 -0.15446802762E+03  0.15446802762E+03  0.00000000000E+00 0.  1.
         24    2    1    2    0    0  0.11978887393E+02 -0.96956534281E+02  0.12732981241E+03  0.17921491853E+03  0.79756144659E+02 0.  0.
         23    2    1    2    0    0 -0.14326659462E+03  0.74505084426E+02  0.36621525644E+03  0.41049250605E+03  0.91182008830E+02 0.  0.
        -11    1    3    3    0    0 -0.17017290078E+02 -0.93412698884E+02  0.10974366087E+03  0.14511785409E+03  0.00000000000E+00 0.  1.
         12    1    3    3    0    0  0.28996177470E+02 -0.35438353966E+01  0.17586151542E+02  0.34097064437E+02  0.00000000000E+00 0. -1.
        -11    1    4    4    0    0 -0.10140818216E+03  0.65603837569E+02  0.16328855832E+03  0.20310252630E+03  0.00000000000E+00 0.  1.
         11    1    4    4    0    0 -0.41858412466E+02  0.89012468568E+01  0.20292669813E+03  0.20738997975E+03  0.00000000000E+00 0. -1.
         -4    1    1    2    0  502  0.13128770723E+03  0.22451449855E+02 -0.64698121984E+02  0.14807557752E+03  0.00000000000E+00 0.  1.
<scales pt_clust_5="13000.00000" pt_clust_6="13000.00000" pt_clust_7="13000.00000" pt_clust_8="13000.00000" pt_clust_9="133.09053"></scales>
<clustering>
<clus scale="   79.756">  5  6 -1 -1</clus>
<clus scale="   91.182">  7  8 -1 -1</clus>
<clus scale="  126.115">  1  5  2 -1</clus>
<clus scale="  133.091">  2  9  1 -1</clus>
<clus scale="  133.091">  2  5  1 -1</clus>
</clustering>
</event>
<event>
 9    2  0.1488992E-004  0.1108442E+03  0.7546771E-02  0.1263584E+00
         21   -1    0    0  501  502  0.00000000000E+00  0.00000000000E+00  0.29595883086E+03  0.29595883086E+03  0.00000000000E+00 0. -1.
          2   -1    0    0  502    0 -0.00000000000E+00 -0.00000000000E+00 -0.27088997305E+03  0.27088997305E+03  0.00000000000E+00 0. -1.
         24    2    1    2    0    0  0.59851494428E+02  0.15696157871E+02 -0.24050810660E+03  0.26097711091E+03  0.80226755645E+02 0.  0.
         23    2    1    2    0    0 -0.68846940999E+02  0.15828597422E+02  0.22949724432E+03  0.25712259602E+03  0.91938014167E+02 0.  0.
        -13    1    3    3    0    0  0.25320032720E+02 -0.25054331786E+02 -0.40389991618E+02  0.53853273077E+02  0.00000000000E+00 0.  1.
         14    1    3    3    0    0  0.34531461709E+02  0.40750489657E+02 -0.20011811498E+03  0.20712383783E+03  0.00000000000E+00 0. -1.
        -13    1    4    4    0    0 -0.38333283105E+02 -0.28077221127E+01  0.21521608577E+03  0.21862133353E+03  0.00000000000E+00 0.  1.
         13    1    4    4    0    0 -0.30513657894E+02  0.18636319535E+02  0.14281158551E+02  0.38501262491E+02  0.00000000000E+00 0. -1.
          1    1    1    2  501    0  0.89954465708E+01 -0.31524755294E+02  0.36079720083E+02  0.48749096982E+02  0.00000000000E+00 0. -1.
<scales pt_clust_5="13000.00000" pt_clust_6="13000.00000" pt_clust_7="13000.00000" pt_clust_8="13000.00000" pt_clust_9="32.78305"></scales>
<clustering>
<clus scale="   32.783">  1  9  2 -1</clus>
<clus scale="   80.227">  5  6 -1 -1</clus>
<clus scale="   91.938">  7  8 -1 -1</clus>
<clus scale="  101.342">  2  5  1 -1</clus>
<clus scale="   32.783">  1  5  2 -1</clus>
</clustering>
</event>
<event>
 9    2  0.1488992E-004  0.1170134E+03  0.7546771E-02  0.1250638E+00
         -1   -1    0    0    0  501 -0.00000000000E+00  0.00000000000E+00  0.87011715306E+03  0.87011715306E+03  0.00000000000E+00 0.  1.
         21   -1    0    0  501  502  0.00000000000E+00 -0.00000000000E+00 -0.31691614336E+02  0.31691614336E+02  0.00000000000E+00 0.  1.
         23    2    1    2    0    0 -0.72909960389E+02  0.29633562976E+02  0.49316028139E+03  0.50719073298E+03  0.88551488421E+02 0.  0.
         24    2    1    2    0    0  0.46851715393E+02 -0.62221577151E+02  0.11524735129E+03  0.16084624848E+03  0.80764817660E+02 0.  0.
        -11    1    4    4    0    0 -0.47001835845E+01 -0.22074410144E+02 -0.57884048452E+01  0.23299719732E+02  0.00000000000E+00 0.  1.
         12    1    4    4    0    0  0.51551898977E+02 -0.40147167007E+02  0.12103575614E+03  0.13754652875E+03  0.00000000000E+00 0. -1.
        -11    1    3    3    0    0 -0.82272936253E+02  0.49734510762E+02  0.41058220596E+03  0.42168721281E+03  0.00000000000E+00 0.  1.
         11    1    3    3    0    0  0.93629758649E+01 -0.20100947786E+02  0.82578075430E+02  0.85503520165E+02  0.00000000000E+00 0. -1.
         -2    1    1    2    0  502  0.26058244996E+02  0.32588014175E+02  0.23001790605E+03  0.23377178594E+03  0.00000000000E+00 0.  1.
<scales pt_clust_5="13000.00000" pt_clust_6="13000.00000" pt_clust_7="13000.00000" pt_clust_8="13000.00000" pt_clust_9="41.72544"></scales>
<clustering>
<clus scale="   41.725">  2  9  1 -1</clus>
<clus scale="   80.765">  5  6 -1 -1</clus>
<clus scale="   88.551">  7  8 -1 -1</clus>
<clus scale="  111.237">  2  5  1 -1</clus>
<clus scale="   41.725">  2  5  1 -1</clus>
</clustering>
</event>
<event>
 9    2  0.1488992E-004  0.9765049E+02  0.7546771E-02  0.1292489E+00
         21   -1    0    0  501  502  0.00000000000E+00  0.00000000000E+00  0.81713875950E+02  0.81713875950E+02  0.00000000000E+00 0.  1.
          2   -1    0    0  502    0 -0.00000000000E+00 -0.00000000000E+00 -0.65320549779E+03  0.65320549779E+03  0.00000000000E+00 0. -1.
         24    2    1    2    0    0 -0.35108835804E+02 -0.57929059112E+01 -0.55435435625E+03  0.56110318147E+03  0.79131787846E+02 0.  0.
         23    2    1    2    0    0 -0.31082378745E+02  0.24008923195E+02  0.82679281467E+01  0.10061425215E+03  0.92262269856E+02 0.  0.
        -11    1    3    3    0    0 -0.16301128686E+02 -0.26816126994E+02 -0.80361109134E+02  0.86271312292E+02  0.00000000000E+00 0.  1.
         12    1    3    3    0    0 -0.18807707118E+02  0.21023221082E+02 -0.47399324712E+03  0.47483186917E+03  0.00000000000E+00 0. -1.
        -11    1    4    4    0    0  0.69002997287E+01  0.48777929849E+02 -0.12370864882E+02  0.50793098691E+02  0.00000000000E+00 0. -1.
         11    1    4    4    0    0 -0.37982678473E+02 -0.24769006654E+02  0.20638793029E+02  0.49821153462E+02  0.00000000000E+00 0.  1.
          1    1    1    2  501    0  0.66191214549E+02 -0.18216017284E+02 -0.25405193741E+02  0.73201940125E+02  0.00000000000E+00 0. -1.
<scales pt_clust_5="13000.00000" pt_clust_6="13000.00000" pt_clust_7="13000.00000" pt_clust_8="13000.00000" pt_clust_9="68.65202"></scales>
<clustering>
<clus scale="   68.652">  1  9  2 -1</clus>
<clus scale="   79.132">  5  6 -1 -1</clus>
<clus scale="   85.353">  2  5  1 -1</clus>
<clus scale="   92.262">  7  8 -1 -1</clus>
<clus scale="   68.652">  1  5  2 -1</clus>
</clustering>
</event>
<event>
 9    2  0.1488992E-004  0.1329615E+03  0.7546771E-02  0.1223337E+00
          2   -1    0    0  502    0 -0.00000000000E+00  0.00000000000E+00  0.78261381562E+03  0.78261381562E+03  0.00000000000E+00 0. -1.
         21   -1    0    0  501  502  0.00000000000E+00 -0.00000000000E+00 -0.54066418285E+02  0.54066418285E+02  0.00000000000E+00 0.  1.
         24    2    1    2    0    0 -0.69394925505E+02 -0.40280043564E+02  0.21775156213E+03  0.24797604503E+03  0.87397016568E+02 0.  0.
         23    2    1    2    0    0  0.75678148480E+02  0.13105227726E+03  0.20504184006E+03  0.26969857317E+03  0.88279571045E+02 0.  0.
        -13    1    3    3    0    0 -0.87605394667E+02 -0.46751267346E+02  0.18386349767E+03  0.20896452318E+03  0.00000000000E+00 0.  1.
         14    1    3    3    0    0  0.18210469162E+02  0.64712237824E+01  0.33888064458E+02  0.39011521850E+02  0.00000000000E+00 0. -1.
        -13    1    4    4    0    0  0.17721845538E+02  0.11296804030E+03  0.12877943645E+03  0.17222074553E+03  0.00000000000E+00 0.  1.
         13    1    4    4    0    0  0.57956302942E+02  0.18084236955E+02  0.76262403616E+02  0.97477827644E+02  0.00000000000E+00 0. -1.
          1    1    1    2  501    0 -0.62832229747E+01 -0.90772233695E+02  0.30575399514E+03  0.31900561570E+03  0.00000000000E+00 0. -1.
<scales pt_clust_5="13000.00000" pt_clust_6="13000.00000" pt_clust_7="13000.00000" pt_clust_8="13000.00000" pt_clust_9="90.98948"></scales>
<clustering>
<clus scale="   87.397">  5  6 -1 -1</clus>
<clus scale="   88.280">  7  8 -1 -1</clus>
<clus scale="   90.989">  2  9  1 -1</clus>
<clus scale="  132.377">  1  5  2 -1</clus>
<clus scale="   90.989">  2  5  1 -1</clus>
</clustering>
</event>
<event>
 9    2  0.1488992E-004  0.1018699E+03  0.7546771E-02  0.1281562E+00
         21   -1    0    0  501  502  0.00000000000E+00  0.00000000000E+00  0.24341332158E+03  0.24341332158E+03  0.00000000000E+00 0. -1.
          2   -1    0    0  502    0 -0.00000000000E+00 -0.00000000000E+00 -0.27220291878E+03  0.27220291878E+03  0.00000000000E+00 0. -1.
         23    2    1    2    0    0 -0.43585664613E+02 -0.17690622227E+01 -0.20206132547E+03  0.22587055780E+03  0.91026863559E+02 0.  0.
         24    2    1    2    0    0  0.52841767648E+02 -0.19424360052E+02 -0.15792753968E+02  0.99272022874E+02  0.80224468063E+02 0.  0.
        -11    1    4    4    0    0  0.23537830934E+02 -0.50227555738E+02 -0.10009113485E+02  0.56365052943E+02  0.00000000000E+00 0.  1.
         12    1    4    4    0    0  0.29303936714E+02  0.30803195686E+02 -0.57836404821E+01  0.42906969931E+02  0.00000000000E+00 0. -1.
        -11    1    3    3    0    0 -0.14873550764E+02 -0.34595000763E+02 -0.29365394713E+02  0.47753146460E+02  0.00000000000E+00 0.  1.
         11    1    3    3    0    0 -0.28712113849E+02  0.32825938540E+02 -0.17269593075E+03  0.17811741134E+03  0.00000000000E+00 0. -1.
          1    1    1    2  501    0 -0.92561030352E+01  0.21193422275E+02  0.18906448224E+03  0.19047365969E+03  0.00000000000E+00 0. -1.
<scales pt_clust_5="13000.00000" pt_clust_6="13000.00000" pt_clust_7="13000.00000" pt_clust_8="13000.00000" pt_clust_9="23.12653"></scales>
<clustering>
<clus scale="   23.127">  1  9  2 -1</clus>
<clus scale="   80.224">  5  6 -1 -1</clus>
<clus scale="   91.027">  7  8 -1 -1</clus>
<clus scale="   92.345">  1  5  2 -1</clus>
<clus scale="   23.127">  1  5  2 -1</clus>
</clustering>
</event>
<event>
 9    2  0.1488992E-004  0.1246823E+03  0.7546771E-02  0.1240091E+00
          4   -1    0    0  502    0 -0.00000000000E+00  0.00000000000E+00  0.44323288103E+03  0.44323288103E+03  0.00000000000E+00 0. -1.
         21   -1    0    0  501  502  0.00000000000E+00 -0.00000000000E+00 -0.10600764287E+03  0.10600764287E+03  0.00000000000E+00 0. -1.
         24    2    1    2    0    0  0.84340000870E+02 -0.10976552492E+02  0.27033819967E+03  0.29342994336E+03  0.76057011563E+02 0.  0.
         23    2    1    2    0    0 -0.84901724436E+02 -0.23794957034E+02  0.13117835672E+03  0.18271648359E+03  0.91668147748E+02 0.  0.
        -11    1    3    3    0    0  0.34816691222E+02  0.22027894951E+02  0.47963092293E+02  0.63228857067E+02  0.00000000000E+00 0.  1.
         12    1    3    3    0    0  0.49523309647E+02 -0.33004447443E+02  0.22237510738E+03  0.23020108630E+03  0.00000000000E+00 0. -1.
        -13    1    4    4    0    0 -0.70413246259E+02 -0.46308614944E+02  0.13120947205E+03  0.15594370337E+03  0.00000000000E+00 0. -1.
         13    1    4    4    0    0 -0.14488478177E+02  0.22513657910E+02 -0.31115328620E-01  0.26772780217E+02  0.00000000000E+00 0.  1.
          3    1    1    2  501    0  0.56172356630E+00  0.34771509525E+02 -0.64291318237E+02  0.73094096948E+02  0.00000000000E+00 0. -1.
<scales pt_clust_5="13000.00000" pt_clust_6="13000.00000" pt_clust_7="13000.00000" pt_clust_8="13000.00000" pt_clust_9="34.77605"></scales>
<clustering>
<clus scale="   34.776">  2  9  1 -1</clus>
<clus scale="   76.057">  5  6 -1 -1</clus>
<clus scale="   91.668">  7  8 -1 -1</clus>
<clus scale="  113.698">  1  5  2 -1</clus>
<clus scale="   34.776">  2  5  1 -1</clus>
</clustering>
</event>
<event>
 9    2  0.1488992E-004  0.2441367E+03  0.7546771E-02  0.1117200E+00
         21   -1    0    0  501  502  0.00000000000E+00  0.00000000000E+00  0.16020408319E+03  0.16020408319E+03  0.00000000000E+00 0.  1.
          2   -1    0    0  502    0 -0.00000000000E+00 -0.00000000000E+00 -0.59918919282E+03  0.59918919282E+03  0.00000000000E+00 0. -1.
         23    2    1    2    0    0  0.10926972620E+03  0.20433733127E+03 -0.34029246875E+03  0.42007680328E+03  0.83498133807E+02 0.  0.
         24    2    1    2    0    0 -0.12278865733E+03 -0.18643673991E+03  0.60759561801E+00  0.23751406785E+03  0.81097786005E+02 0.  0.
        -13    1    4    4    0    0 -0.10480297021E+03 -0.17192428406E+03  0.26181935324E+02  0.20304461518E+03  0.00000000000E+00 0.  1.
         14    1    4    4    0    0 -0.17985687121E+02 -0.14512455849E+02 -0.25574339706E+02  0.34469452670E+02  0.00000000000E+00 0. -1.
        -11    1    3    3    0    0  0.28545142124E+02  0.22114310063E+01 -0.41446440781E+02  0.50373832685E+02  0.00000000000E+00 0. -1.
         11    1    3    3    0    0  0.80724584073E+02  0.20212590027E+03 -0.29884602797E+03  0.36970297059E+03  0.00000000000E+00 0.  1.
          1    1    1    2  501    0  0.13518931135E+02 -0.17900591361E+02 -0.99300236506E+02  0.10180240488E+03  0.00000000000E+00 0. -1.
<scales pt_clust_5="13000.00000" pt_clust_6="13000.00000" pt_clust_7="13000.00000" pt_clust_8="13000.00000" pt_clust_9="22.43197"></scales>
<clustering>
<clus scale="   22.432">  1  9  2 -1</clus>
<clus scale="   81.098">  5  6 -1 -1</clus>
<clus scale="   83.498">  7  8 -1 -1</clus>
<clus scale="  243.326">  1  5  2 -1</clus>
<clus scale="   22.432">  1  5  2 -1</clus>
</clustering>
</event>
<event>
 9    2  0.1488992E-004  0.9132464E+02  0.7546771E-02  0.1306458E+00
         -3   -1    0    0    0  501 -0.00000000000E+00  0.00000000000E+00  0.25855071686E+03  0.25855071686E+03  0.00000000000E+00 0.  1.
         21   -1    0    0  501  502  0.00000000000E+00 -0.00000000000E+00 -0.19013643373E+03  0.19013643373E+03  0.00000000000E+00 0.  1.
         23    2    1    2    0    0  0.15718582316E+01 -0.95994394569E+01  0.17875513030E+03  0.20074737061E+03  0.90837713659E+02 0.  0.
         24    2    1    2    0    0  0.50885482135E+02 -0.32801898215E+02  0.18897767062E+02  0.10215821255E+03  0.80086690355E+02 0.  0.
        -13    1    4    4    0    0  0.33198455881E+02 -0.59163078651E+02  0.67797699446E+01  0.68178974977E+02  0.00000000000E+00 0.  1.
         14    1    4    4    0    0  0.17687026253E+02  0.26361180436E+02  0.12117997117E+02  0.33979237569E+02  0.00000000000E+00 0. -1.
        -13    1    3    3    0    0  0.41237181141E+02 -0.20426803914E+02  0.63836829821E+02  0.78694982484E+02  0.00000000000E+00 0. -1.
         13    1    3    3    0    0 -0.39665322910E+02  0.10827364457E+02  0.11491830048E+03  0.12205238813E+03  0.00000000000E+00 0.  1.
         -4    1    1    2    0  502 -0.52457340366E+02  0.42401337672E+02 -0.12923861423E+03  0.14578156743E+03  0.00000000000E+00 0.  1.
<scales pt_clust_5="13000.00000" pt_clust_6="13000.00000" pt_clust_7="13000.00000" pt_clust_8="13000.00000" pt_clust_9="67.45106"></scales>
<clustering>
<clus scale="   67.451">  2  9  1 -1</clus>
<clus scale="   80.087">  5  6 -1 -1</clus>
<clus scale="   80.639">  2  5  1 -1</clus>
<clus scale="   90.838">  7  8 -1 -1</clus>
<clus scale="   67.451">  2  5  1 -1</clus>
</clustering>
</event>
<event>
 9    2  0.1488992E-004  0.1364167E+03  0.7546771E-02  0.1237945E+00
         -1   -1    0    0    0  501 -0.00000000000E+00  0.00000000000E+00  0.25912380777E+03  0.25912380777E+03  0.00000000000E+00 0.  1.
         21   -1    0    0  501  502  0.00000000000E+00 -0.00000000000E+00 -0.21325172522E+03  0.21325172522E+03  0.00000000000E+00 0.  1.
         23    2    1    2    0    0 -0.12691333072E+02  0.20748643273E+01  0.99423571348E+02  0.13456725403E+03  0.89765941879E+02 0.  0.
         24    2    1    2    0    0 -0.97678290270E+02  0.17020570652E+02  0.89692162592E+02  0.15597089815E+03  0.80321160496E+02 0.  0.
        -13    1    4    4    0    0 -0.75324200464E+02 -0.12805780063E+02  0.23381807882E+02  0.79902641499E+02  0.00000000000E+00 0.  1.
         14    1    4    4    0    0 -0.22354089805E+02  0.29826350715E+02  0.66310354710E+02  0.76068256650E+02  0.00000000000E+00 0. -1.
        -13    1    3    3    0    0 -0.10470468300E+02  0.42927157158E+02  0.74626524540E+02  0.86726522431E+02  0.00000000000E+00 0.  1.
         13    1    3    3    0    0 -0.22208647718E+01 -0.40852292831E+02  0.24797046808E+02  0.47840731602E+02  0.00000000000E+00 0. -1.
         -2    1    1    2    0  502  0.11036962334E+03 -0.19095434979E+02 -0.14324365140E+03  0.18183738081E+03  0.00000000000E+00 0.  1.
<scales pt_clust_5="13000.00000" pt_clust_6="13000.00000" pt_clust_7="13000.00000" pt_clust_8="13000.00000" pt_clust_9="110.26342"></scales>
<clustering>
<clus scale="   80.321">  5  6 -1 -1</clus>
<clus scale="   89.766">  7  8 -1 -1</clus>
<clus scale="   90.682">  1  7  2 -1</clus>
<clus scale="  110.263">  2  9  1 -1</clus>
<clus scale="  110.263">  2  5  1 -1</clus>
</clustering>
</event>
<event>
 9    2  0.1488992E-004  0.1755915E+03  0.7546771E-02  0.1173728E+00
         21   -1    0    0  501  502  0.00000000000E+00  0.00000000000E+00  0.23984521986E+03  0.23984521986E+03  0.00000000000E+00 0. -1.
          2   -1    0    0  502    0 -0.00000000000E+00 -0.00000000000E+00 -0.10228355090E+04  0.10228355090E+04  0.00000000000E+00 0. -1.
         23    2    1    2    0    0  0.39662629645E+02  0.14361676140E+03 -0.92677427693E+03  0.94318145371E+03  0.92096666071E+02 0.  0.
         24    2    1    2    0    0  0.23297895287E+02 -0.17391542984E+03  0.15682125345E+03  0.24842180118E+03  0.79568317242E+02 0.  0.
        -13    1    4    4    0    0 -0.16526942847E+02 -0.12128351163E+02  0.39950919364E+02  0.44903370695E+02  0.00000000000E+00 0.  1.
         14    1    4    4    0    0  0.39824838134E+02 -0.16178707868E+03  0.11687033409E+03  0.20351843049E+03  0.00000000000E+00 0. -1.
        -11    1    3    3    0    0  0.44184834488E+02  0.16294013224E+02 -0.21531188786E+03  0.22040191360E+03  0.00000000000E+00 0.  1.
         11    1    3    3    0    0 -0.45222048428E+01  0.12732274818E+03 -0.71146238907E+03  0.72277954011E+03  0.00000000000E+00 0. -1.
          1    1    1    2  501    0 -0.62960524932E+02  0.30298668436E+02 -0.13037265668E+02  0.71077473962E+02  0.00000000000E+00 0. -1.
<scales pt_clust_5="13000.00000" pt_clust_6="13000.00000" pt_clust_7="13000.00000" pt_clust_8="13000.00000" pt_clust_9="69.87158"></scales>
<clustering>
<clus scale="   69.872">  1  9  2 -1</clus>
<clus scale="   79.568">  5  6 -1 -1</clus>
<clus scale="   92.097">  7  8 -1 -1</clus>
<clus scale="  169.357">  1  5  2 -1</clus>
<clus scale="   69.872">  1  5  2 -1</clus>
</clustering>
</event>
<event>
 9    2  0.1488992E-004  0.1350199E+03  0.7546771E-02  0.1223927E+00
          2   -1    0    0  502    0 -0.00000000000E+00  0.00000000000E+00  0.83539694515E+03  0.83539694515E+03  0.00000000000E+00 0. -1.
         21   -1    0    0  501  502  0.00000000000E+00 -0.00000000000E+00 -0.33113694866E+02  0.33113694866E+02  0.00000000000E+00 0.  1.
         23    2    1    2    0    0 -0.78087797037E+02 -0.60970627361E+02  0.37188298018E+03  0.39641433726E+03  0.95038173333E+02 0.  0.
         24    2    1    2    0    0  0.29902439976E+02  0.97901532926E+02  0.24963017600E+03  0.28140401832E+03  0.79963308406E+02 0.  0.
        -13    1    4    4    0    0  0.22710683450E+02  0.78547284506E+02  0.94742785271E+02  0.12514649978E+03  0.00000000000E+00 0.  1.
         14    1    4    4    0    0  0.71917565263E+01  0.19354248419E+02  0.15488739073E+03  0.15625751854E+03  0.00000000000E+00 0. -1.
        -13    1    3    3    0    0 -0.59215953852E+02 -0.86513352559E+02  0.26763308661E+03  0.28743444194E+03  0.00000000000E+00 0. -1.
         13    1    3    3    0    0 -0.18871843185E+02  0.25542725198E+02  0.10424989357E+03  0.10897989532E+03  0.00000000000E+00 0.  1.
          1    1    1    2  501    0  0.48185357061E+02 -0.36930905564E+02  0.18077009410E+03  0.19069228443E+03  0.00000000000E+00 0. -1.
<scales pt_clust_5="13000.00000" pt_clust_6="13000.00000" pt_clust_7="13000.00000" pt_clust_8="13000.00000" pt_clust_9="60.71016"></scales>
<clustering>
<clus scale="   60.710">  2  9  1 -1</clus>
<clus scale="   79.963">  5  6 -1 -1</clus>
<clus scale="   95.038">  7  8 -1 -1</clus>
<clus scale="  124.869">  2  5  1 -1</clus>
<clus scale="   60.710">  2  5  1 -1</clus>
</clustering>
</event>
<event>
 9    2  0.1981666E-004  0.9790687E+02  0.7546771E-02  0.1289496E+00
         21   -1    0    0  501  502  0.00000000000E+00  0.00000000000E+00  0.63213168053E+02  0.63213168053E+02  0.00000000000E+00 0.  1.
          2   -1    0    0  502    0 -0.00000000000E+00 -0.00000000000E+00 -0.79223299269E+03  0.79223299269E+03  0.00000000000E+00 0. -1.
         23    2    1    2    0    0  0.33699407927E+01  0.39419787041E+02 -0.44774463023E+03  0.45869361274E+03  0.91429209553E+02 0.  0.
         24    2    1    2    0    0  0.42182236740E+02  0.85396282632E+01  0.14109310037E+02  0.94052842252E+02  0.82429352532E+02 0.  0.
        -11    1    4    4    0    0  0.53343752811E+02  0.24846266011E+02  0.32357001360E+02  0.67155554020E+02  0.00000000000E+00 0.  1.
         12    1    4    4    0    0 -0.11161516071E+02 -0.16306637748E+02 -0.18247691324E+02  0.26897288233E+02  0.00000000000E+00 0. -1.
        -11    1    3    3    0    0 -0.12011408139E+02  0.66658160833E+02 -0.32885282310E+03  0.33575551163E+03  0.00000000000E+00 0.  1.
         11    1    3    3    0    0  0.15381348932E+02 -0.27238373791E+02 -0.11889180713E+03  0.12293810111E+03  0.00000000000E+00 0. -1.
          1    1    1    2  501    0 -0.45552177533E+02 -0.47959415304E+02 -0.29538450445E+03  0.30269970575E+03  0.00000000000E+00 0. -1.
<scales pt_clust_5="13000.00000" pt_clust_6="13000.00000" pt_clust_7="13000.00000" pt_clust_8="13000.00000" pt_clust_9="66.14462"></scales>
<clustering>
<clus scale="   66.145">  1  9  2 -1</clus>
<clus scale="   82.429">  5  6 -1 -1</clus>
<clus scale="   89.560">  1  5  2 -1</clus>
<clus scale="   91.429">  7  8 -1 -1</clus>
<clus scale="   66.145">  1  5  2 -1</clus>
</clustering>
</event>
<event>
 9    2  0.1488992E-004  0.1015417E+03  0.7546771E-02  0.1288341E+00
          2   -1    0    0  502    0 -0.00000000000E+00  0.00000000000E+00  0.58986915880E+03  0.58986915880E+03  0.00000000000E+00 0. -1.
         21   -1    0    0  501  502  0.00000000000E+00 -0.00000000000E+00 -0.41999785128E+02  0.41999785128E+02  0.00000000000E+00 0.  1.
         24    2    1    2    0    0  0.37716962570E+02  0.62593346931E+01  0.40787634946E+03  0.41664536931E+03  0.75950633835E+02 0.  0.
         23    2    1    2    0    0  0.88967449938E+01  0.31382289824E+02  0.73739758013E+02  0.12589706730E+03  0.96687742014E+02 0.  0.
        -13    1    3    3    0    0  0.47756294307E+02  0.24841561352E+02  0.18228102751E+03  0.19006351519E+03  0.00000000000E+00 0.  1.
         14    1    3    3    0    0 -0.10039331738E+02 -0.18582226659E+02  0.22559532195E+03  0.22658185412E+03  0.00000000000E+00 0. -1.
        -13    1    4    4    0    0 -0.99979819136E+01 -0.17684054647E+02 -0.13248646614E+02  0.24253083685E+02  0.00000000000E+00 0.  1.
         13    1    4    4    0    0  0.18894726907E+02  0.49066344471E+02  0.86988404628E+02  0.10164398361E+03  0.00000000000E+00 0. -1.
          1    1    1    2  501    0 -0.46613707564E+02 -0.37641624517E+02  0.66253266198E+02  0.89326507326E+02  0.00000000000E+00 0. -1.
<scales pt_clust_5="13000.00000" pt_clust_6="13000.00000" pt_clust_7="13000.00000" pt_clust_8="13000.00000" pt_clust_9="59.91435"></scales>
<clustering>
<clus scale="   59.914">  2  9  1 -1</clus>
<clus scale="   75.951">  5  6 -1 -1</clus>
<clus scale="   82.041">  1  5  2 -1</clus>
<clus scale="   96.688">  7  8 -1 -1</clus>
<clus scale="   59.914">  2  5  1 -1</clus>
</clustering>
</event>
<event>
 9    2  0.1488992E-004  0.1120198E+03  0.7546771E-02  0.1263368E+00
         -1   -1    0    0    0  501 -0.00000000000E+00  0.00000000000E+00  0.40388455938E+02  0.40388455938E+02  0.00000000000E+00 0.  1.
         21   -1    0    0  501  502  0.00000000000E+00 -0.00000000000E+00 -0.92979315818E+03  0.92979315818E+03  0.00000000000E+00 0.  1.
         23    2    1    2    0    0  0.36334441446E+02  0.23591469793E+02 -0.88206264646E+02  0.13879919515E+03  0.98021030236E+02 0.  0.
         24    2    1    2    0    0 -0.37233010927E+02 -0.10405972572E+03 -0.42950690667E+03  0.45107919547E+03  0.82350070393E+02 0.  0.
        -11    1    4    4    0    0 -0.39409178717E+02 -0.75554650881E+02 -0.17161037116E+03  0.19160299613E+03  0.00000000000E+00 0.  1.
         12    1    4    4    0    0  0.21761677900E+01 -0.28505074836E+02 -0.25789653550E+03  0.25947619934E+03  0.00000000000E+00 0. -1.
        -11    1    3    3    0    0  0.46236694864E+02  0.56003472713E+02 -0.67077155441E+02  0.98861345783E+02  0.00000000000E+00 0.  1.
         11    1    3    3    0    0 -0.99022534184E+01 -0.32412002920E+02 -0.21129109204E+02  0.39937849364E+02  0.00000000000E+00 0. -1.
         -2    1    1    2    0  502  0.89856948114E+00  0.80468255925E+02 -0.37169153093E+03  0.38030322350E+03  0.00000000000E+00 0.  1.
<scales pt_clust_5="13000.00000" pt_clust_6="13000.00000" pt_clust_7="13000.00000" pt_clust_8="13000.00000" pt_clust_9="80.47327"></scales>
<clustering>
<clus scale="   80.473">  2  9  1 -1</clus>
<clus scale="   82.350">  5  6 -1 -1</clus>
<clus scale="   98.021">  7  8 -1 -1</clus>
<clus scale="   98.599">  2  5  1 -1</clus>
<clus scale="   80.473">  2  5  1 -1</clus>
</clustering>
</event>
<event>
 9    2  0.1488992E-004  0.1403705E+03  0.7546771E-02  0.1215547E+00
          2   -1    0    0  502    0 -0.00000000000E+00  0.00000000000E+00  0.57073167633E+03  0.57073167633E+03  0.00000000000E+00 0. -1.
         21   -1    0    0  501  502  0.00000000000E+00 -0.00000000000E+00 -0.61055374606E+02  0.61055374606E+02  0.00000000000E+00 0.  1.
         24    2    1    2    0    0  0.86609290677E+02 -0.35753802621E+02  0.16373946998E+03  0.20407787449E+03  0.77830978381E+02 0.  0.
         23    2    1    2    0    0 -0.94031438127E+02  0.10084199730E+03  0.15697372594E+03  0.22771263468E+03  0.90560883289E+02 0.  0.
        -11    1    3    3    0    0  0.90723678178E+02 -0.58703732394E+01  0.13211824200E+03  0.16037604850E+03  0.00000000000E+00 0.  1.
         12    1    3    3    0    0 -0.41143875010E+01 -0.29883429382E+02  0.31621227977E+02  0.43701825991E+02  0.00000000000E+00 0. -1.
        -13    1    4    4    0    0 -0.93734057383E+02  0.47928678481E+02  0.71763702907E+02  0.12740981434E+03  0.00000000000E+00 0.  1.
         13    1    4    4    0    0 -0.29738074419E+00  0.52913318823E+02  0.85210023030E+02  0.10030282034E+03  0.00000000000E+00 0. -1.
          1    1    1    2  501    0  0.74221474503E+01 -0.65088194682E+02  0.18896310581E+03  0.19999654176E+03  0.00000000000E+00 0. -1.
<scales pt_clust_5="13000.00000" pt_clust_6="13000.00000" pt_clust_7="13000.00000" pt_clust_8="13000.00000" pt_clust_9="65.51004"></scales>
<clustering>
<clus scale="   65.510">  2  9  1 -1</clus>
<clus scale="   77.831">  5  6 -1 -1</clus>
<clus scale="   90.561">  7  8 -1 -1</clus>
<clus scale="  132.515">  1  5  2 -1</clus>
<clus scale="   65.510">  2  5  1 -1</clus>
</clustering>
</event>
<event>
 9    2  0.1488992E-004  0.1026450E+03  0.7546771E-02  0.1279180E+00
         21   -1    0    0  501  502  0.00000000000E+00  0.00000000000E+00  0.13283039283E+03  0.13283039283E+03  0.00000000000E+00 0.  1.
          2   -1    0    0  502    0 -0.00000000000E+00 -0.00000000000E+00 -0.19118345751E+03  0.19118345751E+03  0.00000000000E+00 0. -1.
         24    2    1    2    0    0 -0.79609597791E+01 -0.51432782248E+02 -0.79797037797E+02  0.12321761307E+03  0.78142849706E+02 0.  0.
         23    2    1    2    0    0 -0.15957364018E+02  0.60273463613E+02  0.81798334743E+02  0.13527606611E+03  0.87869895938E+02 0.  0.
        -11    1    3    3    0    0 -0.26178899144E+02  0.11256442562E+02 -0.27017560335E+02  0.39268191021E+02  0.00000000000E+00 0.  1.
         12    1    3    3    0    0  0.18217939365E+02 -0.62689224810E+02 -0.52779477462E+02  0.83949422054E+02  0.00000000000E+00 0. -1.
        -11    1    4    4    0    0 -0.45395441623E+02  0.26760412768E+02  0.14707529740E+02  0.54709937331E+02  0.00000000000E+00 0. -1.
         11    1    4    4    0    0  0.29438077605E+02  0.33513050846E+02  0.67090805002E+02  0.80566128776E+02  0.00000000000E+00 0.  1.
          1    1    1    2  501    0  0.23918323798E+02 -0.88406813656E+01 -0.60354361633E+02  0.65520171157E+02  0.00000000000E+00 0. -1.
<scales pt_clust_5="13000.00000" pt_clust_6="13000.00000" pt_clust_7="13000.00000" pt_clust_8="13000.00000" pt_clust_9="25.49989"></scales>
<clustering>
<clus scale="   25.500">  1  9  2 -1</clus>
<clus scale="   78.143">  5  6 -1 -1</clus>
<clus scale="   87.870">  7  8 -1 -1</clus>
<clus scale="   94.452">  2  5  1 -1</clus>
<clus scale="   25.500">  1  5  2 -1</clus>
</clustering>
</event>
<event>
 9    2  0.1488992E-004  0.1026678E+03  0.7546771E-02  0.1280606E+00
         -1   -1    0    0    0  501 -0.00000000000E+00  0.00000000000E+00  0.28772063281E+03  0.28772063281E+03  0.00000000000E+00 0.  1.
         21   -1    0    0  501  502  0.00000000000E+00 -0.00000000000E+00 -0.16495804900E+03  0.16495804900E+03  0.00000000000E+00 0.  1.
         24    2    1    2    0    0 -0.37962191524E+02  0.26633214495E+02  0.21522164423E+03  0.23499748989E+03  0.82176687754E+02 0.  0.
         23    2    1    2    0    0 -0.40076210160E+01 -0.33664074674E+02  0.15889124756E+02  0.10127574793E+03  0.94100913300E+02 0.  0.
        -13    1    3    3    0    0 -0.36323076211E+02  0.46326658927E+02  0.20388817427E+03  0.21221666475E+03  0.00000000000E+00 0.  1.
         14    1    3    3    0    0 -0.16391153131E+01 -0.19693444432E+02  0.11333469965E+02  0.22780825140E+02  0.00000000000E+00 0. -1.
        -11    1    4    4    0    0  0.11180966548E+02 -0.62180923856E+02 -0.40519834504E+01  0.63307976389E+02  0.00000000000E+00 0. -1.
         11    1    4    4    0    0 -0.15188587564E+02  0.28516849182E+02  0.19941108207E+02  0.37967771544E+02  0.00000000000E+00 0.  1.
         -2    1    1    2    0  502  0.41969812540E+02  0.70308601791E+01 -0.10834818517E+03  0.11640544398E+03  0.00000000000E+00 0.  1.
<scales pt_clust_5="13000.00000" pt_clust_6="13000.00000" pt_clust_7="13000.00000" pt_clust_8="13000.00000" pt_clust_9="42.55465"></scales>
<clustering>
<clus scale="   42.555">  2  9  1 -1</clus>
<clus scale="   82.177">  5  6 -1 -1</clus>
<clus scale="   91.862">  1  5  2 -1</clus>
<clus scale="   94.101">  7  8 -1 -1</clus>
<clus scale="   42.555">  2  5  1 -1</clus>
</clustering>
</event>
<event>
 9    2  0.1488992E-004  0.1052561E+03  0.7546771E-02  0.1274718E+00
         -1   -1    0    0    0  501 -0.00000000000E+00  0.00000000000E+00  0.58425766697E+03  0.58425766697E+03  0.00000000000E+00 0.  1.
         21   -1    0    0  501  502  0.00000000000E+00 -0.00000000000E+00 -0.83700811651E+02  0.83700811651E+02  0.00000000000E+00 0.  1.
         24    2    1    2    0    0  0.28438559767E+02 -0.37262796569E+02  0.45691976764E+03  0.46644298311E+03  0.81216468434E+02 0.  0.
         23    2    1    2    0    0 -0.48229365843E+02  0.49301090976E+02  0.92170743651E+02  0.14773713276E+03  0.92596679803E+02 0.  0.
        -13    1    3    3    0    0 -0.27803413985E+02 -0.14798355420E+02  0.11673691037E+03  0.12091123767E+03  0.00000000000E+00 0.  1.
         14    1    3    3    0    0  0.56241973751E+02 -0.22464441149E+02  0.34018285727E+03  0.34553174544E+03  0.00000000000E+00 0. -1.
        -11    1    4    4    0    0 -0.71158398850E+02  0.12724742397E+02  0.58212329684E+02  0.92812241236E+02  0.00000000000E+00 0.  1.
         11    1    4    4    0    0  0.22929033007E+02  0.36576348579E+02  0.33958413968E+02  0.54924891527E+02  0.00000000000E+00 0. -1.
         -2    1    1    2    0  502  0.19790806076E+02 -0.12038294407E+02 -0.48533655973E+02  0.53778362745E+02  0.00000000000E+00 0.  1.
<scales pt_clust_5="13000.00000" pt_clust_6="13000.00000" pt_clust_7="13000.00000" pt_clust_8="13000.00000" pt_clust_9="23.16455"></scales>
<clustering>
<clus scale="   23.165">  2  9  1 -1</clus>
<clus scale="   81.216">  5  6 -1 -1</clus>
<clus scale="   92.597">  7  8 -1 -1</clus>
<clus scale="   95.398">  1  5  2 -1</clus>
<clus scale="   23.165">  2  5  1 -1</clus>
</clustering>
</event>
<event>
 9    2  0.1488992E-004  0.1106493E+03  0.7546771E-02  0.1261621E+00
         21   -1    0    0  501  502  0.00000000000E+00  0.00000000000E+00  0.83396509012E+02  0.83396509012E+02  0.00000000000E+00 0.  1.
          2   -1    0    0  502    0 -0.00000000000E+00 -0.00000000000E+00 -0.46628551182E+03  0.46628551182E+03  0.00000000000E+00 0. -1.
         24    2    1    2    0    0 -0.13927137087E+02  0.69464258696E+02 -0.27753806981E+03  0.29815555283E+03  0.82765361734E+02 0.  0.
         23    2    1    2    0    0  0.26347792899E+02 -0.53598988292E+02 -0.16044738406E+03  0.19286133001E+03  0.88797926905E+02 0.  0.
        -11    1    3    3    0    0  0.96491246312E+01  0.58668914901E+02 -0.84144050990E+02  0.10303091040E+03  0.00000000000E+00 0.  1.
         12    1    3    3    0    0 -0.23576261718E+02  0.10795343795E+02 -0.19339401882E+03  0.19512464242E+03  0.00000000000E+00 0. -1.
        -11    1    4    4    0    0  0.93920601294E+01 -0.74853740482E+02 -0.90528090754E+02  0.11784153968E+03  0.00000000000E+00 0.  1.
         11    1    4    4    0    0  0.16955732769E+02  0.21254752190E+02 -0.69919293309E+02  0.75019790330E+02  0.00000000000E+00 0. -1.
          1    1    1    2  501    0 -0.12420655812E+02 -0.15865270403E+02  0.55096451069E+02  0.58665137997E+02  0.00000000000E+00 0. -1.
<scales pt_clust_5="13000.00000" pt_clust_6="13000.00000" pt_clust_7="13000.00000" pt_clust_8="13000.00000" pt_clust_9="20.14893"></scales>
<clustering>
<clus scale="   20.149">  1  9  2 -1</clus>
<clus scale="   82.765">  5  6 -1 -1</clus>
<clus scale="   88.798">  7  8 -1 -1</clus>
<clus scale="  105.869">  2  5  1 -1</clus>
<clus scale="   20.149">  1  5  2 -1</clus>
</clustering>
</event>
<event>
 9    2  0.1488992E-004  0.1355294E+03  0.7546771E-02  0.1237241E+00
          2   -1    0    0  502    0 -0.00000000000E+00  0.00000000000E+00  0.11249304416E+03  0.11249304416E+03  0.00000000000E+00 0. -1.
         21   -1    0    0  501  502  0.00000000000E+00 -0.00000000000E+00 -0.53191515291E+03  0.53191515291E+03  0.00000000000E+00 0.  1.
         24    2    1    2    0    0  0.44661350243E+02  0.18696360558E+02 -0.15112033548E+03  0.17787097310E+03  0.80352580377E+02 0.  0.
         23    2    1    2    0    0 -0.11921993252E+02  0.91040405850E+02 -0.31537163933E+03  0.34272447951E+03  0.97827953795E+02 0.  0.
        -11    1    3    3    0    0  0.67870217882E+02  0.18935082531E+02 -0.10936585662E+03  0.13009917148E+03  0.00000000000E+00 0.  1.
         12    1    3    3    0    0 -0.23208867639E+02 -0.23872197307E+00 -0.41754478864E+02  0.47771801625E+02  0.00000000000E+00 0. -1.
        -11    1    4    4    0    0  0.12495539347E+01  0.10763205197E+03 -0.29186292494E+03  0.31107906865E+03  0.00000000000E+00 0.  1.
         11    1    4    4    0    0 -0.13171547187E+02 -0.16591646125E+02 -0.23508714388E+02  0.31645410862E+02  0.00000000000E+00 0. -1.
          1    1    1    2  501    0 -0.32739356990E+02 -0.10973676641E+03  0.47069866058E+02  0.12381274445E+03  0.00000000000E+00 0. -1.
<scales pt_clust_5="13000.00000" pt_clust_6="13000.00000" pt_clust_7="13000.00000" pt_clust_8="13000.00000" pt_clust_9="93.79720"></scales>
<clustering>
<clus scale="   80.353">  5  6 -1 -1</clus>
<clus scale="   93.812">  1  5  2 -1</clus>
<clus scale="   93.797">  2  9  1 -1</clus>
<clus scale="   97.828">  7  8 -1 -1</clus>
<clus scale="   93.797">  2  5  1 -1</clus>
</clustering>
</event>
<event>
 9    2  0.1488992E-004  0.1118618E+03  0.7546771E-02  0.1260742E+00
         21   -1    0    0  501  502  0.00000000000E+00  0.00000000000E+00  0.96859502618E+02  0.96859502618E+02  0.00000000000E+00 0. -1.
          2   -1    0    0  502    0 -0.00000000000E+00 -0.00000000000E+00 -0.34946078785E+03  0.34946078785E+03  0.00000000000E+00 0. -1.
         23    2    1    2    0    0 -0.38031868776E+02 -0.35424326624E+02 -0.11741845932E+03  0.15704640924E+03  0.90416669400E+02 0.  0.
         24    2    1    2    0    0 -0.18172484236E+01  0.12670444879E+03 -0.50518444352E+02  0.15855253504E+03  0.80805157091E+02 0.  0.
        -13    1    4    4    0    0 -0.15814393716E+02  0.11743445158E+03 -0.66068751473E+02  0.13566880772E+03  0.00000000000E+00 0.  1.
         14    1    4    4    0    0  0.13997145293E+02  0.92699972165E+01  0.15550307122E+02  0.22883727326E+02  0.00000000000E+00 0. -1.
        -11    1    3    3    0    0  0.76730214332E+01  0.25530685456E+02 -0.42676058702E+02  0.50318357923E+02  0.00000000000E+00 0.  1.
         11    1    3    3    0    0 -0.45704890209E+02 -0.60955012080E+02 -0.74742400619E+02  0.10672805131E+03  0.00000000000E+00 0. -1.
          1    1    1    2  501    0  0.39849117200E+02 -0.91280122170E+02 -0.84664381564E+02  0.13072134619E+03  0.00000000000E+00 0. -1.
<scales pt_clust_5="13000.00000" pt_clust_6="13000.00000" pt_clust_7="13000.00000" pt_clust_8="13000.00000" pt_clust_9="99.59931"></scales>
<clustering>
<clus scale="   80.805">  5  6 -1 -1</clus>
<clus scale="   90.417">  7  8 -1 -1</clus>
<clus scale="   99.599">  1  9  2 -1</clus>
<clus scale="  104.247">  1  5  2 -1</clus>
<clus scale="   99.599">  1  5  2 -1</clus>
</clustering>
</event>
<event>
 9    2  0.1488992E-004  0.1451275E+03  0.7546771E-02  0.1209549E+00
          2   -1    0    0  502    0 -0.00000000000E+00  0.00000000000E+00  0.84210964964E+03  0.84210964964E+03  0.00000000000E+00 0. -1.
         21   -1    0    0  501  502  0.00000000000E+00 -0.00000000000E+00 -0.19440311923E+03  0.19440311923E+03  0.00000000000E+00 0.  1.
         24    2    1    2    0    0  0.44651967111E+02  0.99398124448E+02  0.77392026973E+03  0.78564503458E+03  0.80073411032E+02 0.  0.
         23    2    1    2    0    0 -0.28243644811E+02 -0.13997911183E+03 -0.86727003892E+02  0.19191646752E+03  0.94437821249E+02 0.  0.
        -11    1    3    3    0    0  0.36789219518E+02  0.70882154687E+02  0.28922644596E+03  0.30004943521E+03  0.00000000000E+00 0.  1.
         12    1    3    3    0    0  0.78627475934E+01  0.28515969761E+02  0.48469382378E+03  0.48559559938E+03  0.00000000000E+00 0. -1.
        -11    1    4    4    0    0  0.65051847743E+01 -0.90626697332E+02 -0.94458832507E+02  0.13106481884E+03  0.00000000000E+00 0.  1.
         11    1    4    4    0    0 -0.34748829585E+02 -0.49352414496E+02  0.77318286150E+01  0.60851648686E+02  0.00000000000E+00 0. -1.
          1    1    1    2  501    0 -0.16408322301E+02  0.40580987380E+02 -0.39486735439E+02  0.58951266764E+02  0.00000000000E+00 0. -1.
<scales pt_clust_5="13000.00000" pt_clust_6="13000.00000" pt_clust_7="13000.00000" pt_clust_8="13000.00000" pt_clust_9="43.77270"></scales>
<clustering>
<clus scale="   43.773">  2  9  1 -1</clus>
<clus scale="   80.073">  5  6 -1 -1</clus>
<clus scale="   94.438">  7  8 -1 -1</clus>
<clus scale="  136.218">  1  5  2 -1</clus>
<clus scale="   43.773">  2  5  1 -1</clus>
</clustering>
</event>
<event>
 9    2  0.1488992E-004  0.1380577E+03  0.7546771E-02  0.1218045E+00
         21   -1    0    0  501  502  0.00000000000E+00  0.00000000000E+00  0.50390486883E+03  0.50390486883E+03  0.00000000000E+00 0.  1.
         -3   -1    0    0    0  501 -0.00000000000E+00 -0.00000000000E+00 -0.84030652353E+02  0.84030652353E+02  0.00000000000E+00 0.  1.
         24    2    1    2    0    0  0.45370415667E+02 -0.10339371955E+03  0.26805865939E+02  0.14165093764E+03  0.81226213915E+02 0.  0.
         23    2    1    2    0    0 -0.75994745506E+02  0.56053848261E+02  0.16093255499E+03  0.20739979841E+03  0.90543657294E+02 0.  0.
        -13    1    3    3    0    0  0.22501392509E+02 -0.10049791551E+03 -0.41325707282E+01  0.10306901487E+03  0.00000000000E+00 0.  1.
         14    1    3    3    0    0  0.22869023159E+02 -0.28958040400E+01  0.30938436667E+02  0.38581922771E+02  0.00000000000E+00 0. -1.
        -11    1    4    4    0    0 -0.48022622536E+02  0.19355806211E+02  0.15176596864E+03  0.16035500849E+03  0.00000000000E+00 0.  1.
         11    1    4    4    0    0 -0.27972122970E+02  0.36698042050E+02  0.91665863490E+01  0.47044789925E+02  0.00000000000E+00 0. -1.
         -4    1    1    2    0  502  0.30624329839E+02  0.47339871284E+02  0.23213579555E+03  0.23888478513E+03  0.00000000000E+00 0.  1.
<scales pt_clust_5="13000.00000" pt_clust_6="13000.00000" pt_clust_7="13000.00000" pt_clust_8="13000.00000" pt_clust_9="56.38185"></scales>
<clustering>
<clus scale="   56.382">  1  9  2 -1</clus>
<clus scale="   81.226">  5  6 -1 -1</clus>
<clus scale="   90.544">  7  8 -1 -1</clus>
<clus scale="  132.134">  2  5  1 -1</clus>
<clus scale="   56.382">  1  5  2 -1</clus>
</clustering>
</event>
<event>
 9    2  0.1488992E-004  0.9528561E+02  0.7546771E-02  0.1295563E+00
         21   -1    0    0  501  502  0.00000000000E+00  0.00000000000E+00  0.46804413248E+02  0.46804413248E+02  0.00000000000E+00 0.  1.
          4   -1    0    0  502    0 -0.00000000000E+00 -0.00000000000E+00 -0.48073131164E+03  0.48073131164E+03  0.00000000000E+00 0. -1.
         23    2    1    2    0    0 -0.24444814545E+02 -0.14224696534E+02 -0.25628811501E+03  0.27311302097E+03  0.90040176487E+02 0.  0.
         24    2    1    2    0    0  0.54696264734E+02 -0.22653432281E+02 -0.38670034637E+02  0.10749598833E+03  0.80963921338E+02 0.  0.
        -13    1    4    4    0    0  0.48206773009E+02  0.23121061297E+02 -0.26588872923E+02  0.59711344004E+02  0.00000000000E+00 0.  1.
         14    1    4    4    0    0  0.64894917250E+01 -0.45774493577E+02 -0.12081161714E+02  0.47784644327E+02  0.00000000000E+00 0. -1.
        -13    1    3    3    0    0 -0.47923570795E+02 -0.87599834043E+01 -0.23778458784E+03  0.24272395053E+03  0.00000000000E+00 0.  1.
         13    1    3    3    0    0  0.23478756250E+02 -0.54647131298E+01 -0.18503527162E+02  0.30389070438E+02  0.00000000000E+00 0. -1.
          3    1    1    2  501    0 -0.30251450189E+02  0.36878128815E+02 -0.13896874875E+03  0.14692671559E+03  0.00000000000E+00 0. -1.
<scales pt_clust_5="13000.00000" pt_clust_6="13000.00000" pt_clust_7="13000.00000" pt_clust_8="13000.00000" pt_clust_9="47.69852"></scales>
<clustering>
<clus scale="   47.699">  1  9  2 -1</clus>
<clus scale="   80.964">  5  6 -1 -1</clus>
<clus scale="   86.760">  1  5  2 -1</clus>
<clus scale="   90.040">  7  8 -1 -1</clus>
<clus scale="   47.699">  1  5  2 -1</clus>
</clustering>
</event>
<event>
 9    2  0.1488992E-004  0.1138022E+03  0.7546771E-02  0.1257291E+00
         21   -1    0    0  501  502  0.00000000000E+00  0.00000000000E+00  0.18208398223E+03  0.18208398223E+03  0.00000000000E+00 0. -1.
          4   -1    0    0  502    0 -0.00000000000E+00 -0.00000000000E+00 -0.12350440516E+03  0.12350440516E+03  0.00000000000E+00 0. -1.
         24    2    1    2    0    0 -0.93437329115E+01  0.43188235934E+02  0.90506742251E+01  0.93095490825E+02  0.81439097737E+02 0.  0.
         23    2    1    2    0    0 -0.66247625496E+01 -0.10211655582E+03  0.56851127695E+01  0.13732762759E+03  0.91405023607E+02 0.  0.
        -11    1    3    3    0    0  0.22315526997E+02  0.54092414717E+02  0.41837177143E+00  0.58516212369E+02  0.00000000000E+00 0.  1.
         12    1    3    3    0    0 -0.31659259909E+02 -0.10904178783E+02  0.86323024537E+01  0.34579278456E+02  0.00000000000E+00 0. -1.
        -13    1    4    4    0    0 -0.44555014785E+02 -0.82792338098E+02 -0.21455886878E+01  0.94044266923E+02  0.00000000000E+00 0.  1.
         13    1    4    4    0    0  0.37930252235E+02 -0.19324217721E+02  0.78307014572E+01  0.43283360665E+02  0.00000000000E+00 0. -1.
          3    1    1    2  501    0  0.15968495461E+02  0.58928319885E+02  0.43843790072E+02  0.75165268972E+02  0.00000000000E+00 0. -1.
<scales pt_clust_5="13000.00000" pt_clust_6="13000.00000" pt_clust_7="13000.00000" pt_clust_8="13000.00000" pt_clust_9="61.05358"></scales>
<clustering>
<clus scale="   61.054">  1  9  2 -1</clus>
<clus scale="   81.439">  5  6 -1 -1</clus>
<clus scale="   91.405">  7  8 -1 -1</clus>
<clus scale="  105.964">  2  5  1 -1</clus>
<clus scale="   61.054">  1  5  2 -1</clus>
</clustering>
</event>
<event>
 9    2  0.1488992E-004  0.9879780E+02  0.7546771E-02  0.1290513E+00
          2   -1    0    0  502    0 -0.00000000000E+00  0.00000000000E+00  0.63025304484E+02  0.63025304484E+02  0.00000000000E+00 0. -1.
         21   -1    0    0  501  502  0.00000000000E+00 -0.00000000000E+00 -0.22645407458E+03  0.22645407458E+03  0.00000000000E+00 0.  1.
         24    2    1    2    0    0 -0.72085861599E+01 -0.30472652901E+02 -0.44292516578E+02  0.96193372430E+02  0.79440490843E+02 0.  0.
         23    2    1    2    0    0 -0.35091689245E+02  0.28255279862E+02 -0.58168673208E+02  0.11904803864E+03  0.93589814980E+02 0.  0.
        -13    1    3    3    0    0 -0.35147931665E+02 -0.39177828405E+02 -0.41053055410E+02  0.66750525821E+02  0.00000000000E+00 0.  1.
         14    1    3    3    0    0  0.27939345505E+02  0.87051755040E+01 -0.32394611679E+01  0.29442846609E+02  0.00000000000E+00 0. -1.
        -13    1    4    4    0    0  0.27874216963E+02  0.28438366419E+02 -0.31025446734E+02  0.50480600244E+02  0.00000000000E+00 0.  1.
         13    1    4    4    0    0 -0.62965906208E+02 -0.18308655761E+00 -0.27143226474E+02  0.68567438400E+02  0.00000000000E+00 0. -1.
          1    1    1    2  501    0  0.42300275405E+02  0.22173730391E+01 -0.60967580315E+02  0.74237967995E+02  0.00000000000E+00 0. -1.
<scales pt_clust_5="13000.00000" pt_clust_6="13000.00000" pt_clust_7="13000.00000" pt_clust_8="13000.00000" pt_clust_9="42.35835"></scales>
<clustering>
<clus scale="   42.358">  2  9  1 -1</clus>
<clus scale="   79.440">  5  6 -1 -1</clus>
<clus scale="   85.515">  1  5  2 -1</clus>
<clus scale="   93.590">  7  8 -1 -1</clus>
<clus scale="   42.358">  2  5  1 -1</clus>
</clustering>
</event>
<event>
 9    2  0.1488992E-004  0.1070300E+03  0.7546771E-02  0.1272037E+00
          2   -1    0    0  502    0 -0.00000000000E+00  0.00000000000E+00  0.25370362565E+03  0.25370362565E+03  0.00000000000E+00 0. -1.
         21   -1    0    0  501  502  0.00000000000E+00 -0.00000000000E+00 -0.16708044609E+03  0.16708044609E+03  0.00000000000E+00 0.  1.
         23    2    1    2    0    0 -0.37099426539E+02 -0.44825174979E+02  0.18153618127E+03  0.21222073442E+03  0.93255515899E+02 0.  0.
         24    2    1    2    0    0  0.13029701752E+02 -0.68186894335E+01 -0.12116698385E+03  0.14582808439E+03  0.79800529864E+02 0.  0.
        -11    1    4    4    0    0 -0.21984862241E+02 -0.23768140225E+02 -0.91037800140E+02  0.96623701605E+02  0.00000000000E+00 0.  1.
         12    1    4    4    0    0  0.35014563993E+02  0.16949450791E+02 -0.30129183713E+02  0.49204382782E+02  0.00000000000E+00 0. -1.
        -13    1    3    3    0    0 -0.38745585521E+02 -0.71107659913E+02  0.15475405244E+03  0.17466063220E+03  0.00000000000E+00 0. -1.
         13    1    3    3    0    0  0.16461589814E+01  0.26282484934E+02  0.26782128835E+02  0.37560102218E+02  0.00000000000E+00 0.  1.
          1    1    1    2  501    0  0.24069724787E+02  0.51643864413E+02  0.26253982140E+02  0.62735252937E+02  0.00000000000E+00 0. -1.
<scales pt_clust_5="13000.00000" pt_clust_6="13000.00000" pt_clust_7="13000.00000" pt_clust_8="13000.00000" pt_clust_9="56.97757"></scales>
<clustering>
<clus scale="   56.978">  2  9  1 -1</clus>
<clus scale="   79.801">  5  6 -1 -1</clus>
<clus scale="   93.256">  7  8 -1 -1</clus>
<clus scale="   95.535">  2  5  1 -1</clus>
<clus scale="   56.978">  2  5  1 -1</clus>
</clustering>
</event>
<event>
 9    2  0.1488992E-004  0.9444697E+02  0.7546771E-02  0.1299825E+00
         21   -1    0    0  501  502  0.00000000000E+00  0.00000000000E+00  0.52242881407E+03  0.52242881407E+03  0.00000000000E+00 0.  1.
          2   -1    0    0  502    0 -0.00000000000E+00 -0.00000000000E+00 -0.67398643332E+02  0.67398643332E+02  0.00000000000E+00 0. -1.
         24    2    1    2    0    0  0.23166511689E+01 -0.26724184758E+02  0.27465520548E+02  0.87988817296E+02  0.79171511458E+02 0.  0.
         23    2    1    2    0    0  0.68124245218E+01 -0.10095237540E+02  0.44888877158E+03  0.45832165453E+03  0.91702163622E+02 0.  0.
        -11    1    3    3    0    0  0.17941703107E+02  0.17070221965E+02  0.32894587622E+02  0.41174641264E+02  0.00000000000E+00 0.  1.
         12    1    3    3    0    0 -0.15625051938E+02 -0.43794406723E+02 -0.54290670745E+01  0.46814176032E+02  0.00000000000E+00 0. -1.
        -11    1    4    4    0    0 -0.37533016022E+02 -0.24182582444E+02  0.18124822122E+03  0.18666666087E+03  0.00000000000E+00 0.  1.
         11    1    4    4    0    0  0.44345440544E+02  0.14087344905E+02  0.26764055036E+03  0.27165499366E+03  0.00000000000E+00 0. -1.
          1    1    1    2  501    0 -0.91290756907E+01  0.36819422297E+02 -0.21324121383E+02  0.43516985581E+02  0.00000000000E+00 0. -1.
<scales pt_clust_5="13000.00000" pt_clust_6="13000.00000" pt_clust_7="13000.00000" pt_clust_8="13000.00000" pt_clust_9="37.93430"></scales>
<clustering>
<clus scale="   37.934">  1  9  2 -1</clus>
<clus scale="   79.172">  5  6 -1 -1</clus>
<clus scale="   82.335">  2  5  1 -1</clus>
<clus scale="   91.702">  7  8 -1 -1</clus>
<clus scale="   37.934">  1  5  2 -1</clus>
</clustering>
</event>
<event>
 9    2  0.1488992E-004  0.1665849E+03  0.7546771E-02  0.1184210E+00
         21   -1    0    0  501  502  0.00000000000E+00  0.00000000000E+00  0.59579530625E+03  0.59579530625E+03  0.00000000000E+00 0.  1.
          2   -1    0    0  502    0 -0.00000000000E+00 -0.00000000000E+00 -0.28228826018E+03  0.28228826018E+03  0.00000000000E+00 0. -1.
         23    2    1    2    0    0 -0.52890958321E+02 -0.13540981450E+03  0.13276309006E+03  0.21688578805E+03  0.90995250642E+02 0.  0.
         24    2    1    2    0    0 -0.39106478038E+02  0.14139370042E+03  0.39533604549E+03  0.42764029069E+03  0.71162730547E+02 0.  0.
        -13    1    4    4    0    0 -0.25248445717E+02  0.13951859105E+03  0.38492095730E+03  0.41020368675E+03  0.00000000000E+00 0.  1.
         14    1    4    4    0    0 -0.13858032320E+02  0.18751093739E+01  0.10415088191E+02  0.17436603941E+02  0.00000000000E+00 0. -1.
        -11    1    3    3    0    0 -0.72532837644E+02 -0.11558894309E+03  0.13061746847E+03  0.18889875429E+03  0.00000000000E+00 0.  1.
         11    1    3    3    0    0  0.19641879324E+02 -0.19820871409E+02  0.21456215935E+01  0.27987033762E+02  0.00000000000E+00 0. -1.
          1    1    1    2  501    0  0.91997436358E+02 -0.59838859193E+01 -0.21459208948E+03  0.23355748768E+03  0.00000000000E+00 0. -1.
<scales pt_clust_5="13000.00000" pt_clust_6="13000.00000" pt_clust_7="13000.00000" pt_clust_8="13000.00000" pt_clust_9="92.19189"></scales>
<clustering>
<clus scale="   71.163">  5  6 -1 -1</clus>
<clus scale="   90.995">  7  8 -1 -1</clus>
<clus scale="   92.192">  1  9  2 -1</clus>
<clus scale="  156.635">  1  5  2 -1</clus>
<clus scale="   92.192">  1  5  2 -1</clus>
</clustering>
</event>
<event>
 9    2  0.1488992E-004  0.1294341E+03  0.7546771E-02  0.1245054E+00
          2   -1    0    0  502    0 -0.00000000000E+00  0.00000000000E+00  0.61746635651E+03  0.61746635651E+03  0.00000000000E+00 0. -1.
         21   -1    0    0  501  502  0.00000000000E+00 -0.00000000000E+00 -0.56585509125E+02  0.56585509125E+02  0.00000000000E+00 0.  1.
         24    2    1    2    0    0 -0.20296635614E+02 -0.28021254978E+02  0.73159282453E+02  0.11748462708E+03  0.85165796207E+02 0.  0.
         23    2    1    2    0    0 -0.36646711297E+01 -0.65615481504E+02  0.42875954611E+03  0.44334841369E+03  0.91674676512E+02 0.  0.
        -13    1    3    3    0    0 -0.41281531398E+02  0.14360099327E+02  0.43477479892E+02  0.61649562407E+02  0.00000000000E+00 0.  1.
         14    1    3    3    0    0  0.20984895785E+02 -0.42381354305E+02  0.29681802561E+02  0.55835064673E+02  0.00000000000E+00 0. -1.
        -13    1    4    4    0    0  0.35710884082E+02 -0.42027441256E+02  0.32829315133E+03  0.33289332566E+03  0.00000000000E+00 0.  1.
         13    1    4    4    0    0 -0.39375555212E+02 -0.23588040249E+02  0.10046639478E+03  0.11045508802E+03  0.00000000000E+00 0. -1.
          1    1    1    2  501    0  0.23961306743E+02  0.93636736482E+02  0.58962018823E+02  0.11321882486E+03  0.00000000000E+00 0. -1.
<scales pt_clust_5="13000.00000" pt_clust_6="13000.00000" pt_clust_7="13000.00000" pt_clust_8="13000.00000" pt_clust_9="91.37249"></scales>
<clustering>
<clus scale="   85.166">  5  6 -1 -1</clus>
<clus scale="   91.675">  7  8 -1 -1</clus>
<clus scale="   91.926">  1  5  2 -1</clus>
<clus scale="   91.372">  2  9  1 -1</clus>
<clus scale="   91.372">  2  5  1 -1</clus>
</clustering>
</event>
<event>
 9    2  0.1488992E-004  0.1512911E+03  0.7546771E-02  0.1225383E+00
         -3   -1    0    0    0  501 -0.00000000000E+00  0.00000000000E+00  0.32348775890E+03  0.32348775890E+03  0.00000000000E+00 0.  1.
         21   -1    0    0  501  502  0.00000000000E+00 -0.00000000000E+00 -0.12010665875E+03  0.12010665875E+03  0.00000000000E+00 0.  1.
         24    2    1    2    0    0  0.28571360349E+02 -0.78362562155E+01  0.12053787297E+03  0.14813324929E+03  0.80847703624E+02 0.  0.
         23    2    1    2    0    0  0.50861249833E+02  0.10367017728E+03  0.87204695544E+02  0.17091116878E+03  0.90948316619E+02 0.  0.
        -13    1    3    3    0    0  0.15879908146E+00  0.32432327346E+02  0.71970047072E+02  0.78940285975E+02  0.00000000000E+00 0.  1.
         14    1    3    3    0    0  0.28412561268E+02 -0.40268583561E+02  0.48567825900E+02  0.69192963316E+02  0.00000000000E+00 0. -1.
        -13    1    4    4    0    0  0.46878533711E+02  0.13094768348E+02  0.57136839606E+01  0.49007306245E+02  0.00000000000E+00 0. -1.
         13    1    4    4    0    0  0.39827161213E+01  0.90575408937E+02  0.81491011583E+02  0.12190386253E+03  0.00000000000E+00 0.  1.
         -4    1    1    2    0  502 -0.79432610182E+02 -0.95833921069E+02 -0.43614683682E+01  0.12454999958E+03  0.00000000000E+00 0.  1.
<scales pt_clust_5="13000.00000" pt_clust_6="13000.00000" pt_clust_7="13000.00000" pt_clust_8="13000.00000" pt_clust_9="120.90243"></scales>
<clustering>
<clus scale="   80.848">  5  6 -1 -1</clus>
<clus scale="   86.105">  1  5  2 -1</clus>
<clus scale="   90.948">  7  8 -1 -1</clus>
<clus scale="  120.902">  2  9  1 -1</clus>
<clus scale="  120.902">  2  5  1 -1</clus>
</clustering>
</event>
<event>
 9    2  0.1488992E-004  0.1597833E+03  0.7546771E-02  0.1201633E+00
         -1   -1    0    0    0  501 -0.00000000000E+00  0.00000000000E+00  0.16346328165E+03  0.16346328165E+03  0.00000000000E+00 0.  1.
         21   -1    0    0  501  502  0.00000000000E+00 -0.00000000000E+00 -0.31891978480E+03  0.31891978480E+03  0.00000000000E+00 0.  1.
         23    2    1    2    0    0  0.69564370876E+02  0.36191184547E+02 -0.11568397177E+03  0.16741502631E+03  0.92173782470E+02 0.  0.
         24    2    1    2    0    0  0.10309914956E+03  0.13034804031E+02 -0.12492097087E+02  0.13336376890E+03  0.82646848760E+02 0.  0.
        -11    1    4    4    0    0  0.97888922946E+02 -0.48517138746E+00  0.18067288403E+02  0.99543475612E+02  0.00000000000E+00 0.  1.
         12    1    4    4    0    0  0.52102266146E+01  0.13519975418E+02 -0.30559385490E+02  0.33820293290E+02  0.00000000000E+00 0. -1.
        -11    1    3    3    0    0  0.43995632954E+02  0.58985360318E+02 -0.11051654708E+03  0.13277347487E+03  0.00000000000E+00 0.  1.
         11    1    3    3    0    0  0.25568737921E+02 -0.22794175771E+02 -0.51674246892E+01  0.34641551436E+02  0.00000000000E+00 0. -1.
         -2    1    1    2    0  502 -0.17266352044E+03 -0.49225988578E+02 -0.27280434292E+02  0.18160427125E+03  0.00000000000E+00 0.  1.
<scales pt_clust_5="13000.00000" pt_clust_6="13000.00000" pt_clust_7="13000.00000" pt_clust_8="13000.00000" pt_clust_9="136.74870"></scales>
<clustering>
<clus scale="   82.647">  5  6 -1 -1</clus>
<clus scale="   92.174">  7  8 -1 -1</clus>
<clus scale="  121.017">  1  7  2 -1</clus>
<clus scale="  136.749">  2  9  1 -1</clus>
<clus scale="  136.749">  2  5  1 -1</clus>
</clustering>
</event>
<event>
 9    2  0.1488992E-004  0.3052829E+03  0.7546771E-02  0.1126916E+00
         21   -1    0    0  501  502  0.00000000000E+00  0.00000000000E+00  0.10873743053E+03  0.10873743053E+03  0.00000000000E+00 0.  1.
          4   -1    0    0  502    0 -0.00000000000E+00 -0.00000000000E+00 -0.13261565741E+04  0.13261565741E+04  0.00000000000E+00 0. -1.
         24    2    1    2    0    0  0.40370488373E+01  0.55417542605E+02 -0.22373384050E+03  0.24413084632E+03  0.80346978464E+02 0.  0.
         23    2    1    2    0    0  0.17664014868E+03  0.21421857469E+03 -0.27005425348E+03  0.39767439822E+03  0.90134828496E+02 0.  0.
        -13    1    3    3    0    0 -0.47170283296E+01  0.69125788224E+02 -0.11554842368E+03  0.13472959277E+03  0.00000000000E+00 0.  1.
         14    1    3    3    0    0  0.87540771669E+01 -0.13708245619E+02 -0.10818541682E+03  0.10940125355E+03  0.00000000000E+00 0. -1.
        -13    1    4    4    0    0  0.65351513611E+02  0.27616571015E+02 -0.95517861427E+02  0.11898385259E+03  0.00000000000E+00 0. -1.
         13    1    4    4    0    0  0.11128863507E+03  0.18660200368E+03 -0.17453639206E+03  0.27869054563E+03  0.00000000000E+00 0.  1.
          3    1    1    2  501    0 -0.18067719752E+03 -0.26963611730E+03 -0.72363104956E+03  0.79308876007E+03  0.00000000000E+00 0. -1.
<scales pt_clust_5="13000.00000" pt_clust_6="13000.00000" pt_clust_7="13000.00000" pt_clust_8="13000.00000" pt_clust_9="291.67353"></scales>
<clustering>
<clus scale="   80.347">  5  6 -1 -1</clus>
<clus scale="   90.135">  7  8 -1 -1</clus>
<clus scale="   97.688">  2  5  1 -1</clus>
<clus scale="  291.674">  1  9  2 -1</clus>
<clus scale="  291.674">  1  5  2 -1</clus>
</clustering>
</event>
<event>
 9    2  0.1488992E-004  0.1389751E+03  0.7546771E-02  0.1215363E+00
          2   -1    0    0  502    0 -0.00000000000E+00  0.00000000000E+00  0.28148295203E+03  0.28148295203E+03  0.00000000000E+00 0. -1.
         21   -1    0    0  501  502  0.00000000000E+00 -0.00000000000E+00 -0.14422560191E+03  0.14422560191E+03  0.00000000000E+00 0. -1.
         24    2    1    2    0    0 -0.28925979996E+02  0.11397233395E+03  0.19041061863E+03  0.23816802497E+03  0.81494780227E+02 0.  0.
         23    2    1    2    0    0 -0.18329458483E+02 -0.91824356989E+02 -0.26642607487E+02  0.12900486038E+03  0.84644810144E+02 0.  0.
        -13    1    3    3    0    0 -0.90030443681E+00  0.82045683240E+02  0.61794336051E+02  0.10271730455E+03  0.00000000000E+00 0.  1.
         14    1    3    3    0    0 -0.28025675559E+02  0.31926650710E+02  0.12861628258E+03  0.13545072042E+03  0.00000000000E+00 0. -1.
        -11    1    4    4    0    0  0.30812909944E+02 -0.15875381119E+02  0.13945436747E+00  0.34662408924E+02  0.00000000000E+00 0.  1.
         11    1    4    4    0    0 -0.49142368427E+02 -0.75948975871E+02 -0.26782061854E+02  0.94342451461E+02  0.00000000000E+00 0. -1.
          1    1    1    2  501    0  0.47255438479E+02 -0.22147976961E+02 -0.26510661029E+02  0.58535668591E+02  0.00000000000E+00 0. -1.
<scales pt_clust_5="13000.00000" pt_clust_6="13000.00000" pt_clust_7="13000.00000" pt_clust_8="13000.00000" pt_clust_9="52.18821"></scales>
<clustering>
<clus scale="   52.188">  2  9  1 -1</clus>
<clus scale="   81.495">  5  6 -1 -1</clus>
<clus scale="   84.645">  7  8 -1 -1</clus>
<clus scale="  137.079">  1  5  2 -1</clus>
<clus scale="   52.188">  2  5  1 -1</clus>
</clustering>
</event>
<event>
 9    2  0.1488992E-004  0.1141172E+03  0.7546771E-02  0.1257546E+00
         -1   -1    0    0    0  501 -0.00000000000E+00  0.00000000000E+00  0.31485885900E+03  0.31485885900E+03  0.00000000000E+00 0.  1.
         21   -1    0    0  501  502  0.00000000000E+00 -0.00000000000E+00 -0.13017093760E+03  0.13017093760E+03  0.00000000000E+00 0.  1.
         24    2    1    2    0    0  0.73892699753E+02 -0.31124081655E+01  0.25092532078E+03  0.27342193910E+03  0.79537550929E+02 0.  0.
         23    2    1    2    0    0 -0.38681749504E+02  0.12343781174E+02 -0.50982147587E+01  0.10045289168E+03  0.91739549681E+02 0.  0.
        -11    1    3    3    0    0  0.82182150942E+02  0.60181283738E+01  0.24714986667E+03  0.26052481724E+03  0.00000000000E+00 0.  1.
         12    1    3    3    0    0 -0.82894511892E+01 -0.91305365393E+01  0.37754541176E+01  0.12897121861E+02  0.00000000000E+00 0. -1.
        -13    1    4    4    0    0 -0.49840428924E+02 -0.24627535751E+02 -0.19968186932E+02  0.59070401741E+02  0.00000000000E+00 0. -1.
         13    1    4    4    0    0  0.11158679420E+02  0.36971316924E+02  0.14869972173E+02  0.41382489944E+02  0.00000000000E+00 0.  1.
         -2    1    1    2    0  502 -0.35210950249E+02 -0.92313730083E+01 -0.61139184624E+02  0.71154965825E+02  0.00000000000E+00 0.  1.
<scales pt_clust_5="13000.00000" pt_clust_6="13000.00000" pt_clust_7="13000.00000" pt_clust_8="13000.00000" pt_clust_9="36.40095"></scales>
<clustering>
<clus scale="   36.401">  2  9  1 -1</clus>
<clus scale="   79.538">  5  6 -1 -1</clus>
<clus scale="   91.740">  7  8 -1 -1</clus>
<clus scale="  104.560">  1  5  2 -1</clus>
<clus scale="   36.401">  2  5  1 -1</clus>
</clustering>
</event>
<event>
 9    2  0.1488992E-004  0.1272736E+03  0.7546771E-02  0.1234593E+00
         21   -1    0    0  501  502  0.00000000000E+00  0.00000000000E+00  0.10291867260E+03  0.10291867260E+03  0.00000000000E+00 0.  1.
          2   -1    0    0  502    0 -0.00000000000E+00 -0.00000000000E+00 -0.31399085897E+03  0.31399085897E+03  0.00000000000E+00 0. -1.
         24    2    1    2    0    0  0.91047847391E+02 -0.15639809827E+02 -0.14362139970E+03  0.18874732379E+03  0.80399823504E+02 0.  0.
         23    2    1    2    0    0 -0.77250220930E+02  0.37221941344E+02 -0.11757492588E+03  0.17187195792E+03  0.91449642829E+02 0.  0.
        -11    1    3    3    0    0  0.54764926593E+01 -0.27729412912E+02 -0.10743093033E+02  0.30237829952E+02  0.00000000000E+00 0.  1.
         12    1    3    3    0    0  0.85571354731E+02  0.12089603085E+02 -0.13287830667E+03  0.15850949384E+03  0.00000000000E+00 0. -1.
        -11    1    4    4    0    0 -0.32157347413E+02  0.11703937290E+01 -0.10882131124E+03  0.11347926063E+03  0.00000000000E+00 0. -1.
         11    1    4    4    0    0 -0.45092873516E+02  0.36051547615E+02 -0.87536146399E+01  0.58392697288E+02  0.00000000000E+00 0.  1.
          1    1    1    2  501    0 -0.13797626461E+02 -0.21582131517E+02  0.50124139215E+02  0.56290249856E+02  0.00000000000E+00 0. -1.
<scales pt_clust_5="13000.00000" pt_clust_6="13000.00000" pt_clust_7="13000.00000" pt_clust_8="13000.00000" pt_clust_9="25.61568"></scales>
<clustering>
<clus scale="   25.616">  1  9  2 -1</clus>
<clus scale="   80.400">  5  6 -1 -1</clus>
<clus scale="   91.450">  7  8 -1 -1</clus>
<clus scale="  119.581">  2  5  1 -1</clus>
<clus scale="   25.616">  1  5  2 -1</clus>
</clustering>
</event>
<event>
 9    2  0.1488992E-004  0.1355511E+03  0.7546771E-02  0.1222297E+00
         21   -1    0    0  501  502  0.00000000000E+00  0.00000000000E+00  0.27771521574E+03  0.27771521574E+03  0.00000000000E+00 0. -1.
          2   -1    0    0  502    0 -0.00000000000E+00 -0.00000000000E+00 -0.13150108841E+03  0.13150108841E+03  0.00000000000E+00 0. -1.
         24    2    1    2    0    0  0.42980775899E+02 -0.10352995336E+03 -0.27932699020E+02  0.13947375815E+03  0.78146626282E+02 0.  0.
         23    2    1    2    0    0 -0.75168809264E+02  0.37662962072E+02  0.14599602448E+03  0.19121231183E+03  0.90434840820E+02 0.  0.
        -13    1    3    3    0    0 -0.12178358520E+02 -0.20866418711E+02  0.17868574963E+02  0.30050055196E+02  0.00000000000E+00 0.  1.
         14    1    3    3    0    0  0.55159134419E+02 -0.82663534647E+02 -0.45801273983E+02  0.10942370296E+03  0.00000000000E+00 0. -1.
        -11    1    4    4    0    0 -0.90986761119E+02  0.11424310098E+02  0.97492842682E+02  0.13384304216E+03  0.00000000000E+00 0. -1.
         11    1    4    4    0    0  0.15817951855E+02  0.26238651974E+02  0.48503181800E+02  0.57369269675E+02  0.00000000000E+00 0.  1.
          1    1    1    2  501    0  0.32188033365E+02  0.65866991287E+02  0.28150801865E+02  0.78530234170E+02  0.00000000000E+00 0. -1.
<scales pt_clust_5="13000.00000" pt_clust_6="13000.00000" pt_clust_7="13000.00000" pt_clust_8="13000.00000" pt_clust_9="73.31119"></scales>
<clustering>
<clus scale="   73.311">  1  9  2 -1</clus>
<clus scale="   78.147">  5  6 -1 -1</clus>
<clus scale="   90.435">  7  8 -1 -1</clus>
<clus scale="  127.681">  2  5  1 -1</clus>
<clus scale="   73.311">  1  5  2 -1</clus>
</clustering>
</event>
<event>
 9    2  0.1488992E-004  0.1926432E+03  0.7546771E-02  0.1177480E+00
         -1   -1    0    0    0  501 -0.00000000000E+00  0.00000000000E+00  0.58838131401E+03  0.58838131401E+03  0.00000000000E+00 0.  1.
         21   -1    0    0  501  502  0.00000000000E+00 -0.00000000000E+00 -0.10751849083E+03  0.10751849083E+03  0.00000000000E+00 0.  1.
         23    2    1    2    0    0 -0.72063801720E+02  0.13190858867E+02  0.17835406235E+03  0.21374494128E+03  0.92247157639E+02 0.  0.
         24    2    1    2    0    0  0.18166157187E+00 -0.17821839503E+03  0.16617329232E+03  0.25634855333E+03  0.79619020230E+02 0.  0.
        -11    1    4    4    0    0  0.26476475873E+01 -0.17873066217E+03  0.17319189335E+03  0.24889172658E+03  0.00000000000E+00 0.  1.
         12    1    4    4    0    0 -0.24659860154E+01  0.51226713523E+00 -0.70186010329E+01  0.74568267451E+01  0.00000000000E+00 0. -1.
        -11    1    3    3    0    0 -0.13737290184E+02  0.47722960484E+02  0.67292113983E+02  0.83632665289E+02  0.00000000000E+00 0.  1.
         11    1    3    3    0    0 -0.58326511536E+02 -0.34532101617E+02  0.11106194836E+03  0.13011227599E+03  0.00000000000E+00 0. -1.
         -2    1    1    2    0  502  0.71882140148E+02  0.16502753617E+03  0.13633546851E+03  0.22580631023E+03  0.00000000000E+00 0.  1.
<scales pt_clust_5="13000.00000" pt_clust_6="13000.00000" pt_clust_7="13000.00000" pt_clust_8="13000.00000" pt_clust_9="175.42014"></scales>
<clustering>
<clus scale="   79.619">  5  6 -1 -1</clus>
<clus scale="   92.247">  7  8 -1 -1</clus>
<clus scale="  117.800">  1  7  2 -1</clus>
<clus scale="  175.420">  2  9  1 -1</clus>
<clus scale="  175.420">  2  5  1 -1</clus>
</clustering>
</event>
<event>
 9    2  0.1488992E-004  0.9585532E+02  0.7546771E-02  0.1295157E+00
         21   -1    0    0  501  502  0.00000000000E+00  0.00000000000E+00  0.14848819184E+03  0.14848819184E+03  0.00000000000E+00 0. -1.
          2   -1    0    0  502    0 -0.00000000000E+00 -0.00000000000E+00 -0.15050428177E+03  0.15050428177E+03  0.00000000000E+00 0. -1.
         23    2    1    2    0    0  0.30286970662E+02 -0.13185017320E+02 -0.10860633394E+03  0.14564202565E+03  0.91242087819E+02 0.  0.
         24    2    1    2    0    0 -0.15279381129E+02 -0.97192489797E+01  0.76255212904E+02  0.11248423612E+03  0.80684091318E+02 0.  0.
        -13    1    4    4    0    0 -0.35364081736E+02  0.24098045230E+02  0.46271807007E+02  0.63027090879E+02  0.00000000000E+00 0.  1.
         14    1    4    4    0    0  0.20084700607E+02 -0.33817294210E+02  0.29983405896E+02  0.49457145240E+02  0.00000000000E+00 0. -1.
        -11    1    3    3    0    0  0.41466101672E+02 -0.36888141048E+02 -0.30653871182E+02  0.63402147884E+02  0.00000000000E+00 0.  1.
         11    1    3    3    0    0 -0.11179131010E+02  0.23703123728E+02 -0.77952462763E+02  0.82239877768E+02  0.00000000000E+00 0. -1.
          1    1    1    2  501    0 -0.15007589533E+02  0.22904266300E+02  0.30335031111E+02  0.40866211848E+02  0.00000000000E+00 0. -1.
<scales pt_clust_5="13000.00000" pt_clust_6="13000.00000" pt_clust_7="13000.00000" pt_clust_8="13000.00000" pt_clust_9="27.38308"></scales>
<clustering>
<clus scale="   27.383">  1  9  2 -1</clus>
<clus scale="   80.684">  5  6 -1 -1</clus>
<clus scale="   85.866">  1  5  2 -1</clus>
<clus scale="   91.242">  7  8 -1 -1</clus>
<clus scale="   27.383">  1  5  2 -1</clus>
</clustering>
</event>
<event>
 9    2  0.1488992E-004  0.2515993E+03  0.7546771E-02  0.1149553E+00
         21   -1    0    0  501  502  0.00000000000E+00  0.00000000000E+00  0.75147684652E+03  0.75147684652E+03  0.00000000000E+00 0. -1.
         -1   -1    0    0    0  501 -0.00000000000E+00 -0.00000000000E+00 -0.12176515002E+03  0.12176515002E+03  0.00000000000E+00 0.  1.
         24    2    1    2    0    0  0.50723940417E+02 -0.27412834838E+02  0.13942401777E+03  0.17210595018E+03  0.82807123545E+02 0.  0.
         23    2    1    2    0    0  0.10905499443E+03 -0.16976165981E+03  0.12001276863E+03  0.25223672758E+03  0.92240387856E+02 0.  0.
        -11    1    3    3    0    0  0.32902469758E+01  0.23711733999E+02  0.11843723121E+02  0.26708534811E+02  0.00000000000E+00 0.  1.
         12    1    3    3    0    0  0.47433693442E+02 -0.51124568837E+02  0.12758029465E+03  0.14539741537E+03  0.00000000000E+00 0. -1.
        -13    1    4    4    0    0  0.56449727939E+02 -0.14957781807E+03  0.62313219941E+02  0.17158972237E+03  0.00000000000E+00 0. -1.
         13    1    4    4    0    0  0.52605266493E+02 -0.20183841741E+02  0.57699548689E+02  0.80647005208E+02  0.00000000000E+00 0.  1.
         -2    1    1    2    0  502 -0.15977893485E+03  0.19717449465E+03  0.37027491009E+03  0.44889931879E+03  0.00000000000E+00 0.  1.
<scales pt_clust_5="13000.00000" pt_clust_6="13000.00000" pt_clust_7="13000.00000" pt_clust_8="13000.00000" pt_clust_9="234.08100"></scales>
<clustering>
<clus scale="   82.807">  5  6 -1 -1</clus>
<clus scale="   92.240">  7  8 -1 -1</clus>
<clus scale="  100.903">  2  5  1 -1</clus>
<clus scale="  234.081">  1  9  2 -1</clus>
<clus scale="  234.081">  1  5  2 -1</clus>
</clustering>
</event>
<event>
 9    2  0.1488992E-004  0.9348420E+02  0.7546771E-02  0.1299805E+00
         21   -1    0    0  501  502  0.00000000000E+00  0.00000000000E+00  0.64357316203E+03  0.64357316203E+03  0.00000000000E+00 0. -1.
          2   -1    0    0  502    0 -0.00000000000E+00 -0.00000000000E+00 -0.44715281893E+03  0.44715281893E+03  0.00000000000E+00 0. -1.
         24    2    1    2    0    0 -0.81565664617E+01  0.11826605529E+02 -0.32929658685E+03  0.33954937074E+03  0.81554490280E+02 0.  0.
         23    2    1    2    0    0  0.49859768065E+02 -0.82627156234E+02 -0.70129383416E+02  0.14969119546E+03  0.90421679710E+02 0.  0.
        -13    1    3    3    0    0  0.22121552845E+02  0.72840307561E+01 -0.26793684136E+02  0.35501010041E+02  0.00000000000E+00 0.  1.
         14    1    3    3    0    0 -0.30278119307E+02  0.45425747733E+01 -0.30250290272E+03  0.30404836070E+03  0.00000000000E+00 0. -1.
        -13    1    4    4    0    0  0.30873532350E+02 -0.36713667219E+02 -0.85196339576E+02  0.97772617013E+02  0.00000000000E+00 0. -1.
         13    1    4    4    0    0  0.18986235716E+02 -0.45913489014E+02  0.15066956161E+02  0.51918578448E+02  0.00000000000E+00 0.  1.
          1    1    1    2  501    0 -0.41703201604E+02  0.70800550704E+02  0.59584631337E+03  0.60148541475E+03  0.00000000000E+00 0. -1.
<scales pt_clust_5="13000.00000" pt_clust_6="13000.00000" pt_clust_7="13000.00000" pt_clust_8="13000.00000" pt_clust_9="82.16979"></scales>
<clustering>
<clus scale="   81.554">  5  6 -1 -1</clus>
<clus scale="   82.170">  1  9  2 -1</clus>
<clus scale="   84.937">  2  5  1 -1</clus>
<clus scale="   90.422">  7  8 -1 -1</clus>
<clus scale="   82.170">  1  5  2 -1</clus>
</clustering>
</event>
<event>
 9    2  0.1488992E-004  0.1137588E+03  0.7546771E-02  0.1260463E+00
         21   -1    0    0  501  502  0.00000000000E+00  0.00000000000E+00  0.89816699446E+02  0.89816699446E+02  0.00000000000E+00 0.  1.
          2   -1    0    0  502    0 -0.00000000000E+00 -0.00000000000E+00 -0.30674228883E+03  0.30674228883E+03  0.00000000000E+00 0. -1.
         23    2    1    2    0    0 -0.56937515027E+01 -0.40703189864E+02 -0.14727041990E+03  0.18149712481E+03  0.97792951008E+02 0.  0.
         24    2    1    2    0    0  0.24245678200E+02  0.10579927849E+03 -0.40290205570E+02  0.14127856017E+03  0.80962896798E+02 0.  0.
        -11    1    4    4    0    0 -0.12756378776E+02  0.84728927535E+02 -0.47508221528E+01  0.85815422110E+02  0.00000000000E+00 0.  1.
         12    1    4    4    0    0  0.37002056975E+02  0.21070350959E+02 -0.35539383417E+02  0.55463138061E+02  0.00000000000E+00 0. -1.
        -11    1    3    3    0    0  0.44312461252E+02 -0.10704373387E+02 -0.83141009096E+02  0.94818802067E+02  0.00000000000E+00 0.  1.
         11    1    3    3    0    0 -0.50006212755E+02 -0.29998816476E+02 -0.64129410801E+02  0.86678322744E+02  0.00000000000E+00 0. -1.
          1    1    1    2  501    0 -0.18551926697E+02 -0.65096088630E+02 -0.29364963919E+02  0.73783303295E+02  0.00000000000E+00 0. -1.
<scales pt_clust_5="13000.00000" pt_clust_6="13000.00000" pt_clust_7="13000.00000" pt_clust_8="13000.00000" pt_clust_9="67.68807"></scales>
<clustering>
<clus scale="   67.688">  1  9  2 -1</clus>
<clus scale="   80.963">  5  6 -1 -1</clus>
<clus scale="   97.793">  7  8 -1 -1</clus>
<clus scale="   99.662">  1  5  2 -1</clus>
<clus scale="   67.688">  1  5  2 -1</clus>
</clustering>
</event>
<event>
 9    2  0.1488992E-004  0.9898306E+02  0.7546771E-02  0.1286824E+00
         -3   -1    0    0    0  501 -0.00000000000E+00  0.00000000000E+00  0.54277167787E+03  0.54277167787E+03  0.00000000000E+00 0.  1.
         21   -1    0    0  501  502  0.00000000000E+00 -0.00000000000E+00 -0.36684270410E+02  0.36684270410E+02  0.00000000000E+00 0. -1.
         23    2    1    2    0    0  0.16841345216E+02 -0.34670621651E+02  0.41564950770E+03  0.42723301304E+03  0.90982697607E+02 0.  0.
         24    2    1    2    0    0  0.28737248926E+01  0.45823367401E+02  0.52219242577E+02  0.10779621486E+03  0.82371933010E+02 0.  0.
        -11    1    4    4    0    0 -0.37761689158E+02  0.14223935318E+02  0.10926596329E+02  0.41804975916E+02  0.00000000000E+00 0.  1.
         12    1    4    4    0    0  0.40635414051E+02  0.31599432083E+02  0.41292646247E+02  0.65991238942E+02  0.00000000000E+00 0. -1.
        -13    1    3    3    0    0  0.45076714606E+02  0.91932366617E+01  0.17072115792E+03  0.17681102783E+03  0.00000000000E+00 0. -1.
         13    1    3    3    0    0 -0.28235369390E+02 -0.43863858313E+02  0.24492834978E+03  0.25042198521E+03  0.00000000000E+00 0.  1.
         -4    1    1    2    0  502 -0.19715070109E+02 -0.11152745749E+02  0.38218657178E+02  0.44426720379E+02  0.00000000000E+00 0.  1.
<scales pt_clust_5="13000.00000" pt_clust_6="13000.00000" pt_clust_7="13000.00000" pt_clust_8="13000.00000" pt_clust_9="22.65100"></scales>
<clustering>
<clus scale="   22.651">  2  9  1 -1</clus>
<clus scale="   82.372">  5  6 -1 -1</clus>
<clus scale="   90.983">  7  8 -1 -1</clus>
<clus scale="   91.131">  2  5  1 -1</clus>
<clus scale="   22.651">  2  5  1 -1</clus>
</clustering>
</event>
<event>
 9    2  0.1488992E-004  0.1555136E+03  0.7546771E-02  0.1212146E+00
          2   -1    0    0  502    0 -0.00000000000E+00  0.00000000000E+00  0.20439233474E+03  0.20439233474E+03  0.00000000000E+00 0. -1.
         21   -1    0    0  501  502  0.00000000000E+00 -0.00000000000E+00 -0.36212832149E+03  0.36212832149E+03  0.00000000000E+00 0. -1.
         23    2    1    2    0    0 -0.42022512646E+02  0.31994208382E+02 -0.10729880689E+03  0.14994684273E+03  0.90451648660E+02 0.  0.
         24    2    1    2    0    0 -0.92370139729E+02 -0.51028762378E+02  0.13248625325E+03  0.18879172106E+03  0.83387824863E+02 0.  0.
        -13    1    4    4    0    0 -0.14900253855E+02  0.15036961907E+02  0.60506369115E+02  0.64102640287E+02  0.00000000000E+00 0.  1.
         14    1    4    4    0    0 -0.77469885874E+02 -0.66065724286E+02  0.71979884138E+02  0.12468908077E+03  0.00000000000E+00 0. -1.
        -13    1    3    3    0    0 -0.52558246873E+02  0.49422194187E+02 -0.10763727232E+03  0.12957895271E+03  0.00000000000E+00 0. -1.
         13    1    3    3    0    0  0.10535734227E+02 -0.17427985805E+02  0.33846543320E+00  0.20367890018E+02  0.00000000000E+00 0.  1.
          1    1    1    2  501    0  0.13439265238E+03  0.19034553997E+02 -0.18292343311E+03  0.22778209245E+03  0.00000000000E+00 0. -1.
<scales pt_clust_5="13000.00000" pt_clust_6="13000.00000" pt_clust_7="13000.00000" pt_clust_8="13000.00000" pt_clust_9="131.26669"></scales>
<clustering>
<clus scale="   83.388">  5  6 -1 -1</clus>
<clus scale="   90.452">  7  8 -1 -1</clus>
<clus scale="  104.743">  1  7  2 -1</clus>
<clus scale="  131.267">  2  9  1 -1</clus>
<clus scale="  131.267">  2  5  1 -1</clus>
</clustering>
</event>
<event>
 9    2  0.1488992E-004  0.1250798E+03  0.7546771E-02  0.1245374E+00
         -3   -1    0    0    0  501 -0.00000000000E+00  0.00000000000E+00  0.54246723195E+03  0.54246723195E+03  0.00000000000E+00 0.  1.
         21   -1    0    0  501  502  0.00000000000E+00 -0.00000000000E+00 -0.71203452519E+02  0.71203452519E+02  0.00000000000E+00 0.  1.
         23    2    1    2    0    0  0.26212118620E+02 -0.30193058880E+01  0.16672025778E+03  0.20110386735E+03  0.10932030799E+03 0.  0.
         24    2    1    2    0    0 -0.39980054536E+02 -0.97249817980E+02  0.27811931626E+03  0.30796427465E+03  0.80222867843E+02 0.  0.
        -13    1    4    4    0    0 -0.53910350154E+02 -0.49128313045E+02  0.10576091955E+03  0.12847291194E+03  0.00000000000E+00 0.  1.
         14    1    4    4    0    0  0.13930295618E+02 -0.48121504935E+02  0.17235839671E+03  0.17949136272E+03  0.00000000000E+00 0. -1.
        -11    1    3    3    0    0 -0.20145186827E+02 -0.42368048532E+02  0.10216120979E+03  0.11241793840E+03  0.00000000000E+00 0.  1.
         11    1    3    3    0    0  0.46357305447E+02  0.39348742644E+02  0.64559047986E+02  0.88685928945E+02  0.00000000000E+00 0. -1.
         -4    1    1    2    0  502  0.13767935916E+02  0.10026912387E+03  0.26424205391E+02  0.10460254247E+03  0.00000000000E+00 0.  1.
<scales pt_clust_5="13000.00000" pt_clust_6="13000.00000" pt_clust_7="13000.00000" pt_clust_8="13000.00000" pt_clust_9="101.20995"></scales>
<clustering>
<clus scale="   80.223">  5  6 -1 -1</clus>
<clus scale="  101.210">  2  9  1 -1</clus>
<clus scale="  101.210">  2  5  1 -1</clus>
<clus scale="  109.320">  7  8 -1 -1</clus>
<clus scale="  101.210">  2  5  1 -1</clus>
</clustering>
</event>
<event>
 9    2  0.1488992E-004  0.1110545E+03  0.7546771E-02  0.1261702E+00
         21   -1    0    0  501  502  0.00000000000E+00  0.00000000000E+00  0.15220704833E+03  0.15220704833E+03  0.00000000000E+00 0.  1.
          4   -1    0    0  502    0 -0.00000000000E+00 -0.00000000000E+00 -0.22890247857E+03  0.22890247857E+03  0.00000000000E+00 0. -1.
         23    2    1    2    0    0  0.66210149965E+02 -0.26151946668E+02  0.11442825834E+02  0.11648712379E+03  0.91491002147E+02 0.  0.
         24    2    1    2    0    0 -0.56707481337E+02 -0.11606142539E+02  0.55534289746E+02  0.11576752600E+03  0.83472281359E+02 0.  0.
        -11    1    4    4    0    0 -0.23854314277E+02 -0.38429124475E+02  0.57681842709E+02  0.73300892872E+02  0.00000000000E+00 0.  1.
         12    1    4    4    0    0 -0.32853167060E+02  0.26822981936E+02 -0.21475529630E+01  0.42466633132E+02  0.00000000000E+00 0. -1.
        -13    1    3    3    0    0  0.52161989676E+02  0.18670448366E+02  0.33340899036E+02  0.64661227623E+02  0.00000000000E+00 0.  1.
         13    1    3    3    0    0  0.14048160289E+02 -0.44822395033E+02 -0.21898073202E+02  0.51825896172E+02  0.00000000000E+00 0. -1.
          3    1    1    2  501    0 -0.95026686286E+01  0.37758089207E+02 -0.14367254582E+03  0.14885487709E+03  0.00000000000E+00 0. -1.
<scales pt_clust_5="13000.00000" pt_clust_6="13000.00000" pt_clust_7="13000.00000" pt_clust_8="13000.00000" pt_clust_9="38.93553"></scales>
<clustering>
<clus scale="   38.936">  1  9  2 -1</clus>
<clus scale="   83.472">  5  6 -1 -1</clus>
<clus scale="   91.491">  7  8 -1 -1</clus>
<clus scale="  104.547">  1  5  2 -1</clus>
<clus scale="   38.936">  1  5  2 -1</clus>
</clustering>
</event>
<event>
 9    2  0.1488992E-004  0.1201657E+03  0.7546771E-02  0.1246127E+00
          2   -1    0    0  502    0 -0.00000000000E+00  0.00000000000E+00  0.26327270845E+03  0.26327270845E+03  0.00000000000E+00 0. -1.
         21   -1    0    0  501  502  0.00000000000E+00 -0.00000000000E+00 -0.10673881328E+03  0.10673881328E+03  0.00000000000E+00 0. -1.
         23    2    1    2    0    0 -0.57308878181E+02 -0.47420259902E+01  0.61833781751E+02  0.12317350917E+03  0.89674424817E+02 0.  0.
         24    2    1    2    0    0  0.11360672343E+03  0.53963679195E+02  0.38902819388E+02  0.15353444057E+03  0.78998916473E+02 0.  0.
        -11    1    4    4    0    0  0.11822922962E+02  0.41190811593E+02 -0.24660703433E+01  0.42924887536E+02  0.00000000000E+00 0.  1.
         12    1    4    4    0    0  0.10178380047E+03  0.12772867602E+02  0.41368889732E+02  0.11060955303E+03  0.00000000000E+00 0. -1.
        -13    1    3    3    0    0  0.54393836691E+01 -0.35388689124E+02  0.13588499475E+02  0.38296129447E+02  0.00000000000E+00 0. -1.
         13    1    3    3    0    0 -0.62748261850E+02  0.30646663134E+02  0.48245282276E+02  0.84877379721E+02  0.00000000000E+00 0.  1.
          1    1    1    2  501    0 -0.56297845250E+02 -0.49221653205E+02  0.55797294031E+02  0.93303571985E+02  0.00000000000E+00 0. -1.
<scales pt_clust_5="13000.00000" pt_clust_6="13000.00000" pt_clust_7="13000.00000" pt_clust_8="13000.00000" pt_clust_9="74.78117"></scales>
<clustering>
<clus scale="   74.781">  2  9  1 -1</clus>
<clus scale="   78.999">  5  6 -1 -1</clus>
<clus scale="   89.674">  7  8 -1 -1</clus>
<clus scale="  112.424">  2  5  1 -1</clus>
<clus scale="   74.781">  2  5  1 -1</clus>
</clustering>
</event>
<event>
 9    2  0.1488992E-004  0.1666156E+03  0.7546771E-02  0.1183346E+00
         21   -1    0    0  501  502  0.00000000000E+00  0.00000000000E+00  0.10925064892E+04  0.10925064892E+04  0.00000000000E+00 0.  1.
          4   -1    0    0  502    0 -0.00000000000E+00 -0.00000000000E+00 -0.31942414908E+02  0.31942414908E+02  0.00000000000E+00 0. -1.
         23    2    1    2    0    0 -0.14198616984E+03  0.24957022596E+02  0.35087156720E+03  0.39060556047E+03  0.93160730987E+02 0.  0.
         24    2    1    2    0    0  0.12357103541E+03 -0.42447943484E+02  0.50891293879E+03  0.53146378801E+03  0.79935911793E+02 0.  0.
        -13    1    4    4    0    0  0.98907918308E+02 -0.65919161808E+02  0.40807073126E+03  0.42502921536E+03  0.00000000000E+00 0.  1.
         14    1    4    4    0    0  0.24663117106E+02  0.23471218324E+02  0.10084220753E+03  0.10643457265E+03  0.00000000000E+00 0. -1.
        -13    1    3    3    0    0 -0.10287927301E+03  0.59842985404E+02  0.23431245978E+03  0.26280726117E+03  0.00000000000E+00 0.  1.
         13    1    3    3    0    0 -0.39106896838E+02 -0.34885962809E+02  0.11655910743E+03  0.12779829931E+03  0.00000000000E+00 0. -1.
          3    1    1    2  501    0  0.18415134429E+02  0.17490920888E+02  0.20077956826E+03  0.20237955559E+03  0.00000000000E+00 0. -1.
<scales pt_clust_5="13000.00000" pt_clust_6="13000.00000" pt_clust_7="13000.00000" pt_clust_8="13000.00000" pt_clust_9="25.39782"></scales>
<clustering>
<clus scale="   25.398">  1  9  2 -1</clus>
<clus scale="   79.936">  5  6 -1 -1</clus>
<clus scale="   93.161">  7  8 -1 -1</clus>
<clus scale="  159.598">  1  5  2 -1</clus>
<clus scale="   25.398">  1  5  2 -1</clus>
</clustering>
</event>
<event>
 9    2  0.1488992E-004  0.1352439E+03  0.7546771E-02  0.1222251E+00
         21   -1    0    0  501  502  0.00000000000E+00  0.00000000000E+00  0.33557373463E+02  0.33557373463E+02  0.00000000000E+00 0.  1.
          4   -1    0    0  502    0 -0.00000000000E+00 -0.00000000000E+00 -0.11241022207E+04  0.11241022207E+04  0.00000000000E+00 0. -1.
         24    2    1    2    0    0  0.52867613709E+02 -0.10416774343E+03 -0.59999882800E+03  0.61641381733E+03  0.79507843935E+02 0.  0.
         23    2    1    2    0    0 -0.96705654457E+02  0.19808603004E+02 -0.27429757510E+03  0.30502209473E+03  0.89749396735E+02 0.  0.
        -11    1    3    3    0    0  0.71284222429E+02 -0.80069411995E+02 -0.39948785767E+03  0.41362192825E+03  0.00000000000E+00 0.  1.
         12    1    3    3    0    0 -0.18416608720E+02 -0.24098331435E+02 -0.20051097033E+03  0.20279188908E+03  0.00000000000E+00 0. -1.
        -11    1    4    4    0    0 -0.10530268637E+03 -0.67281026525E+01 -0.21764485971E+03  0.24187436425E+03  0.00000000000E+00 0.  1.
         11    1    4    4    0    0  0.85970319112E+01  0.26536705657E+02 -0.56652715388E+02  0.63147730487E+02  0.00000000000E+00 0. -1.
          3    1    1    2  501    0  0.43838040749E+02  0.84359140425E+02 -0.21624844412E+03  0.23622368208E+03  0.00000000000E+00 0. -1.
<scales pt_clust_5="13000.00000" pt_clust_6="13000.00000" pt_clust_7="13000.00000" pt_clust_8="13000.00000" pt_clust_9="95.06965"></scales>
<clustering>
<clus scale="   79.508">  5  6 -1 -1</clus>
<clus scale="   89.749">  7  8 -1 -1</clus>
<clus scale="   95.070">  1  9  2 -1</clus>
<clus scale="  128.676">  2  5  1 -1</clus>
<clus scale="   95.070">  1  5  2 -1</clus>
</clustering>
</event>
<event>
 9    2  0.1488992E-004  0.1319924E+03  0.7546771E-02  0.1230221E+00
          2   -1    0    0  502    0 -0.00000000000E+00  0.00000000000E+00  0.23980835407E+04  0.23980835407E+04  0.00000000000E+00 0. -1.
         21   -1    0    0  501  502  0.00000000000E+00 -0.00000000000E+00 -0.18040266454E+02  0.18040266454E+02  0.00000000000E+00 0. -1.
         24    2    1    2    0    0 -0.90684877655E+02 -0.35251730940E+02  0.10382988905E+04  0.10461637529E+04  0.83232086916E+02 0.  0.
         23    2    1    2    0    0  0.65308786065E+02 -0.87530633274E+02  0.66776010758E+03  0.68441336766E+03  0.10291378555E+03 0.  0.
        -13    1    3    3    0    0 -0.25185766736E+02 -0.26524199171E+02  0.11903081318E+03  0.12452385504E+03  0.00000000000E+00 0.  1.
         14    1    3    3    0    0 -0.65499110919E+02 -0.87275317689E+01  0.91926807730E+03  0.92163989783E+03  0.00000000000E+00 0. -1.
        -11    1    4    4    0    0  0.13671105805E+02 -0.96654305583E+02  0.43742275063E+03  0.44818257072E+03  0.00000000000E+00 0. -1.
         11    1    4    4    0    0  0.51637680260E+02  0.91236723094E+01  0.23033735694E+03  0.23623079694E+03  0.00000000000E+00 0.  1.
          1    1    1    2  501    0  0.25376091590E+02  0.12278236421E+03  0.67398427617E+03  0.68554668660E+03  0.00000000000E+00 0. -1.
<scales pt_clust_5="13000.00000" pt_clust_6="13000.00000" pt_clust_7="13000.00000" pt_clust_8="13000.00000" pt_clust_9="125.37725"></scales>
<clustering>
<clus scale="   83.232">  5  6 -1 -1</clus>
<clus scale="  102.914">  7  8 -1 -1</clus>
<clus scale="  125.377">  2  9  1 -1</clus>
<clus scale="  117.296">  1  5  2 -1</clus>
<clus scale="  125.377">  2  5  1 -1</clus>
</clustering>
</event>
<event>
 9    2  0.1488992E-004  0.1773693E+03  0.7546771E-02  0.1203784E+00
         21   -1    0    0  501  502  0.00000000000E+00  0.00000000000E+00  0.26701811895E+03  0.26701811895E+03  0.00000000000E+00 0. -1.
          4   -1    0    0  502    0 -0.00000000000E+00 -0.00000000000E+00 -0.48026276870E+03  0.48026276870E+03  0.00000000000E+00 0. -1.
         24    2    1    2    0    0 -0.56593141597E+01 -0.20458281723E+02 -0.35043681977E+03  0.36046946514E+03  0.81741675526E+02 0.  0.
         23    2    1    2    0    0 -0.99289411028E+02  0.12003920298E+03  0.15876433197E+03  0.24053786725E+03  0.91567216172E+02 0.  0.
        -13    1    3    3    0    0 -0.37898676723E+02 -0.26235868101E+02 -0.13729812033E+03  0.14482887944E+03  0.00000000000E+00 0.  1.
         14    1    3    3    0    0  0.32239362563E+02  0.57775863773E+01 -0.21313869944E+03  0.21564058570E+03  0.00000000000E+00 0. -1.
        -11    1    4    4    0    0 -0.10130392312E+02  0.26985525237E+02 -0.78737345605E+01  0.29880413595E+02  0.00000000000E+00 0.  1.
         11    1    4    4    0    0 -0.89159018717E+02  0.93053677745E+02  0.16663806653E+03  0.21065745365E+03  0.00000000000E+00 0. -1.
          3    1    1    2  501    0  0.10494872519E+03 -0.99580921259E+02 -0.21572161952E+02  0.14627355526E+03  0.00000000000E+00 0. -1.
<scales pt_clust_5="13000.00000" pt_clust_6="13000.00000" pt_clust_7="13000.00000" pt_clust_8="13000.00000" pt_clust_9="151.90565"></scales>
<clustering>
<clus scale="   81.742">  5  6 -1 -1</clus>
<clus scale="   84.453">  2  5  1 -1</clus>
<clus scale="   91.567">  7  8 -1 -1</clus>
<clus scale="  151.906">  1  9  2 -1</clus>
<clus scale="  151.906">  1  5  2 -1</clus>
</clustering>
</event>
