<event>
 9    1  0.2951046E-005  0.1046292E+03  0.7546771E-02  0.1271185E+00
         -2   -1    0    0    0  501 -0.00000000000E+00  0.00000000000E+00  0.12223892192E+03  0.12223892192E+03  0.00000000000E+00 0.  1.
          1   -1    0    0  502    0  0.00000000000E+00 -0.00000000000E+00 -0.16474124881E+03  0.16474124881E+03  0.00000000000E+00 0. -1.
        -24    2    1    2    0    0  0.49361524844E+02  0.94693327144E+01  0.20733063014E+02  0.10647812881E+03  0.91550552246E+02 0.  0.
         23    2    1    2    0    0 -0.36076743955E+02 -0.47071667526E+02 -0.32721911766E+01  0.10848811140E+03  0.90783752627E+02 0.  0.
         11    1    3    3    0    0  0.46415118225E+02 -0.14760766449E+02 -0.24919247383E+02  0.54710257869E+02  0.00000000000E+00 0. -1.
        -12    1    3    3    0    0  0.29464066195E+01  0.24230099164E+02  0.45652310397E+02  0.51767870944E+02  0.00000000000E+00 0.  1.
        -11    1    4    4    0    0 -0.38872686944E+02  0.17136461899E+02 -0.10650482376E+02  0.43796996376E+02  0.00000000000E+00 0. -1.
         11    1    4    4    0    0  0.27959429889E+01 -0.64208129426E+02  0.73782911995E+01  0.64691115020E+02  0.00000000000E+00 0.  1.
         21    1    1    2  502  501 -0.13284780889E+02  0.37602334812E+02 -0.59963198732E+02  0.72013930519E+02  0.00000000000E+00 0. -1.
<scales pt_clust_5="13000.00000" pt_clust_6="13000.00000" pt_clust_7="13000.00000" pt_clust_8="13000.00000" pt_clust_9="39.88008"></scales>
<clustering>
<clus scale="   39.880">  2  9  1 -1</clus>
<clus scale="   90.784">  7  8 -1 -1</clus>
<clus scale="   91.551">  5  6 -1 -1</clus>
<clus scale="  103.959">  2  7  1 -1</clus>
<clus scale="   39.880">  2  5  1 -1</clus>
</clustering>
</event>
<event>
 9    1  0.2951046E-005  0.1851510E+03  0.7546771E-02  0.1163290E+00
          1   -1    0    0  502    0  0.00000000000E+00  0.00000000000E+00  0.56610501068E+03  0.56610501068E+03  0.00000000000E+00 0. -1.
         -2   -1    0    0    0  501 -0.00000000000E+00 -0.00000000000E+00 -0.79919907554E+02  0.79919907554E+02  0.00000000000E+00 0.  1.
        -24    2    1    2    0    0  0.14675714226E+03 -0.90663830756E+02  0.13225098126E+03  0.23745032194E+03  0.95575856432E+02 0.  0.
         23    2    1    2    0    0 -0.11779813999E+03  0.64172561877E+02  0.30574068098E+03  0.34642140746E+03  0.92389978109E+02 0.  0.
         13    1    3    3    0    0 -0.49789071528E+01 -0.19912160963E+02 -0.48106124764E+01  0.21081405624E+02  0.00000000000E+00 0. -1.
        -14    1    3    3    0    0  0.15173604941E+03 -0.70751669793E+02  0.13706159374E+03  0.21636891631E+03  0.00000000000E+00 0.  1.
        -13    1    4    4    0    0 -0.83528935716E+02  0.84520331446E+02  0.25924575191E+03  0.28518262467E+03  0.00000000000E+00 0. -1.
         13    1    4    4    0    0 -0.34269204277E+02 -0.20347769569E+02  0.46494929070E+02  0.61238782789E+02  0.00000000000E+00 0.  1.
         21    1    1    2  502  501 -0.28959002262E+02  0.26491268879E+02  0.48193440885E+02  0.62153188841E+02  0.00000000000E+00 0. -1.
<scales pt_clust_5="13000.00000" pt_clust_6="13000.00000" pt_clust_7="13000.00000" pt_clust_8="13000.00000" pt_clust_9="39.24807"></scales>
<clustering>
<clus scale="   39.248">  1  9  2 -1</clus>
<clus scale="   92.390">  7  8 -1 -1</clus>
<clus scale="   95.576">  5  6 -1 -1</clus>
<clus scale="  183.527">  1  7  2 -1</clus>
<clus scale="   39.248">  1  5  2 -1</clus>
</clustering>
</event>
<event>
 9    1  0.2951046E-005  0.1369783E+03  0.7546771E-02  0.1221452E+00
         -2   -1    0    0    0  501 -0.00000000000E+00  0.00000000000E+00  0.54878209174E+02  0.54878209174E+02  0.00000000000E+00 0.  1.
          1   -1    0    0  502    0  0.00000000000E+00 -0.00000000000E+00 -0.70897188512E+03  0.70897188512E+03  0.00000000000E+00 0. -1.
         23    2    1    2    0    0  0.72612619498E+02  0.35713955356E+02 -0.10403799797E+03  0.16377181752E+03  0.97207119459E+02 0.  0.
        -24    2    1    2    0    0 -0.11724648977E+03 -0.40839550515E+02 -0.20974854159E+03  0.25681831527E+03  0.80910988800E+02 0.  0.
         11    1    4    4    0    0 -0.12964160563E+03 -0.39062741855E+02 -0.19602346973E+03  0.23823946859E+03  0.00000000000E+00 0. -1.
        -12    1    4    4    0    0  0.12395115859E+02 -0.17768086596E+01 -0.13725071863E+02  0.18578846676E+02  0.00000000000E+00 0.  1.
        -13    1    3    3    0    0  0.27812033245E+02  0.64794532185E+02 -0.75143974299E+02  0.10304589981E+03  0.00000000000E+00 0. -1.
         13    1    3    3    0    0  0.44800586253E+02 -0.29080576829E+02 -0.28894023671E+02  0.60725917706E+02  0.00000000000E+00 0.  1.
         21    1    1    2  502  501  0.44633870270E+02  0.51255951588E+01 -0.34030713638E+03  0.34325996151E+03  0.00000000000E+00 0.  1.
<scales pt_clust_5="13000.00000" pt_clust_6="13000.00000" pt_clust_7="13000.00000" pt_clust_8="13000.00000" pt_clust_9="44.92721"></scales>
<clustering>
<clus scale="   44.927">  2  9  1 -1</clus>
<clus scale="   80.911">  5  6 -1 -1</clus>
<clus scale="   97.207">  7  8 -1 -1</clus>
<clus scale="  125.938">  2  5  1 -1</clus>
<clus scale="   44.927">  2  5  1 -1</clus>
</clustering>
</event>
<event>
 9    1  0.2951046E-005  0.2388624E+03  0.7546771E-02  0.1160247E+00
          1   -1    0    0  502    0  0.00000000000E+00  0.00000000000E+00  0.55196974967E+03  0.55196974967E+03  0.00000000000E+00 0. -1.
         -2   -1    0    0    0  501 -0.00000000000E+00 -0.00000000000E+00 -0.22867782193E+03  0.22867782193E+03  0.00000000000E+00 0.  1.
         23    2    1    2    0    0 -0.17940598816E+02  0.15267314666E+02 -0.10800272619E+03  0.14169837437E+03  0.88650349418E+02 0.  0.
        -24    2    1    2    0    0 -0.15092739271E+03  0.14714281965E+03  0.14159916425E+03  0.26636776044E+03  0.80444845973E+02 0.  0.
         13    1    4    4    0    0 -0.27164485587E+02  0.75177822485E+02  0.32148278518E+02  0.86157565440E+02  0.00000000000E+00 0. -1.
        -14    1    4    4    0    0 -0.12376290712E+03  0.71964997162E+02  0.10945088573E+03  0.18021019500E+03  0.00000000000E+00 0.  1.
        -11    1    3    3    0    0 -0.20777215811E+02  0.49791527932E+02 -0.82931696071E+02  0.98937127327E+02  0.00000000000E+00 0.  1.
         11    1    3    3    0    0  0.28366169950E+01 -0.34524213265E+02 -0.25071030122E+02  0.42761247046E+02  0.00000000000E+00 0. -1.
         21    1    1    2  502  501  0.16886799153E+03 -0.16241013431E+03  0.28969548968E+03  0.37258143678E+03  0.00000000000E+00 0. -1.
<scales pt_clust_5="13000.00000" pt_clust_6="13000.00000" pt_clust_7="13000.00000" pt_clust_8="13000.00000" pt_clust_9="224.90859"></scales>
<clustering>
<clus scale="   80.445">  5  6 -1 -1</clus>
<clus scale="   88.650">  7  8 -1 -1</clus>
<clus scale="   91.727">  2  7  1 -1</clus>
<clus scale="  224.909">  1  9  2 -1</clus>
<clus scale="  224.909">  1  5  2 -1</clus>
</clustering>
</event>
<event>
 9    1  0.2951046E-005  0.9705821E+02  0.7546771E-02  0.1293572E+00
         -2   -1    0    0    0  501 -0.00000000000E+00  0.00000000000E+00  0.12150229362E+03  0.12150229362E+03  0.00000000000E+00 0.  1.
          1   -1    0    0  502    0  0.00000000000E+00 -0.00000000000E+00 -0.12623501084E+03  0.12623501084E+03  0.00000000000E+00 0. -1.
        -24    2    1    2    0    0  0.14405921503E+02  0.29324361580E+02  0.42228229809E+02  0.95270202535E+02  0.78903354439E+02 0.  0.
         23    2    1    2    0    0 -0.36083703115E+02 -0.12444955740E+02 -0.13682150380E+01  0.99236116887E+02  0.91591617130E+02 0.  0.
         11    1    3    3    0    0  0.22167662979E+02  0.48091328234E+02  0.54201422112E+01  0.53231185172E+02  0.00000000000E+00 0. -1.
        -12    1    3    3    0    0 -0.77617414757E+01 -0.18766966654E+02  0.36808087598E+02  0.42039017362E+02  0.00000000000E+00 0.  1.
        -13    1    4    4    0    0 -0.26493464199E+02 -0.35903946970E+02 -0.35292299854E+02  0.56890627367E+02  0.00000000000E+00 0.  1.
         13    1    4    4    0    0 -0.95902389161E+01  0.23458991230E+02  0.33924084816E+02  0.42345489519E+02  0.00000000000E+00 0. -1.
         21    1    1    2  502  501  0.21677781612E+02 -0.16879405840E+02 -0.45592731997E+02  0.53230985038E+02  0.00000000000E+00 0. -1.
<scales pt_clust_5="13000.00000" pt_clust_6="13000.00000" pt_clust_7="13000.00000" pt_clust_8="13000.00000" pt_clust_9="27.47436"></scales>
<clustering>
<clus scale="   27.474">  2  9  1 -1</clus>
<clus scale="   78.903">  5  6 -1 -1</clus>
<clus scale="   85.188">  1  5  2 -1</clus>
<clus scale="   91.592">  7  8 -1 -1</clus>
<clus scale="   27.474">  2  5  1 -1</clus>
</clustering>
</event>
<event>
 9    1  0.2951046E-005  0.1053072E+03  0.7546771E-02  0.1273624E+00
         -2   -1    0    0    0  501 -0.00000000000E+00  0.00000000000E+00  0.25637720373E+03  0.25637720373E+03  0.00000000000E+00 0.  1.
          1   -1    0    0  502    0  0.00000000000E+00 -0.00000000000E+00 -0.12367925522E+03  0.12367925522E+03  0.00000000000E+00 0. -1.
         23    2    1    2    0    0 -0.41719752064E+02  0.25618457565E+02  0.14675314575E+03  0.17956106472E+03  0.91152877603E+02 0.  0.
        -24    2    1    2    0    0  0.34878122437E+02 -0.52311589773E+02  0.61497010607E+02  0.12007482900E+03  0.81750207315E+02 0.  0.
         13    1    4    4    0    0  0.29189133157E+02 -0.37526169936E+02 -0.85102678406E+01  0.48297449035E+02  0.00000000000E+00 0. -1.
        -14    1    4    4    0    0  0.56889892791E+01 -0.14785419837E+02  0.70007278447E+02  0.71777379963E+02  0.00000000000E+00 0.  1.
        -11    1    3    3    0    0 -0.28827657713E+02 -0.22870424584E+02  0.11363094026E+03  0.11944069974E+03  0.00000000000E+00 0.  1.
         11    1    3    3    0    0 -0.12892094351E+02  0.48488882149E+02  0.33122205489E+02  0.60120364980E+02  0.00000000000E+00 0. -1.
         21    1    1    2  502  501  0.68416296271E+01  0.26693132208E+02 -0.75552207843E+02  0.80420565236E+02  0.00000000000E+00 0. -1.
<scales pt_clust_5="13000.00000" pt_clust_6="13000.00000" pt_clust_7="13000.00000" pt_clust_8="13000.00000" pt_clust_9="27.55596"></scales>
<clustering>
<clus scale="   27.556">  2  9  1 -1</clus>
<clus scale="   81.750">  5  6 -1 -1</clus>
<clus scale="   91.153">  7  8 -1 -1</clus>
<clus scale="   97.282">  2  5  1 -1</clus>
<clus scale="   27.556">  2  5  1 -1</clus>
</clustering>
</event>
<event>
 9    1  0.2951046E-005  0.9993762E+02  0.7546771E-02  0.1287555E+00
          1   -1    0    0  502    0  0.00000000000E+00  0.00000000000E+00  0.31458853947E+03  0.31458853947E+03  0.00000000000E+00 0. -1.
         -2   -1    0    0    0  501 -0.00000000000E+00 -0.00000000000E+00 -0.62512506654E+02  0.62512506654E+02  0.00000000000E+00 0.  1.
         23    2    1    2    0    0  0.71991803837E+01 -0.55961447233E+02  0.41119845002E+01  0.10453365349E+03  0.87902585410E+02 0.  0.
        -24    2    1    2    0    0 -0.24879786573E+01  0.18759426019E+02  0.16700348052E+03  0.18334408098E+03  0.73258333463E+02 0.  0.
         11    1    4    4    0    0 -0.31322333725E+02  0.28482329552E+02  0.71325279195E+02  0.82943517763E+02  0.00000000000E+00 0. -1.
        -12    1    4    4    0    0  0.28834355067E+02 -0.97229035322E+01  0.95678201330E+02  0.10040056322E+03  0.00000000000E+00 0.  1.
        -13    1    3    3    0    0 -0.32062188308E+02 -0.54186930107E+02 -0.78564689420E+01  0.63450227878E+02  0.00000000000E+00 0. -1.
         13    1    3    3    0    0  0.39261368692E+02 -0.17745171258E+01  0.11968453442E+02  0.41083425617E+02  0.00000000000E+00 0.  1.
         21    1    1    2  502  501 -0.47112017264E+01  0.37202021214E+02  0.80960567795E+02  0.89223311650E+02  0.00000000000E+00 0. -1.
<scales pt_clust_5="13000.00000" pt_clust_6="13000.00000" pt_clust_7="13000.00000" pt_clust_8="13000.00000" pt_clust_9="37.49914"></scales>
<clustering>
<clus scale="   37.499">  1  9  2 -1</clus>
<clus scale="   73.258">  5  6 -1 -1</clus>
<clus scale="   87.335">  1  5  2 -1</clus>
<clus scale="   87.903">  7  8 -1 -1</clus>
<clus scale="   37.499">  1  5  2 -1</clus>
</clustering>
</event>
<event>
 9    1  0.2951046E-005  0.9268291E+02  0.7546771E-02  0.1302448E+00
          1   -1    0    0  502    0  0.00000000000E+00  0.00000000000E+00  0.29100373121E+03  0.29100373121E+03  0.00000000000E+00 0. -1.
         -2   -1    0    0    0  501 -0.00000000000E+00 -0.00000000000E+00 -0.56312340446E+02  0.56312340446E+02  0.00000000000E+00 0.  1.
         23    2    1    2    0    0  0.12102758171E+02 -0.19068670684E+02  0.85526147725E+01  0.93622579154E+02  0.90454127330E+02 0.  0.
        -24    2    1    2    0    0  0.14219041957E+02  0.18671907600E+02  0.19865371753E+03  0.21563533935E+03  0.80526261550E+02 0.  0.
         13    1    4    4    0    0 -0.30616399090E+02 -0.70815744318E+01  0.89450658460E+02  0.94809983064E+02  0.00000000000E+00 0. -1.
        -14    1    4    4    0    0  0.44835441047E+02  0.25753482032E+02  0.10920305907E+03  0.12082535628E+03  0.00000000000E+00 0.  1.
        -11    1    3    3    0    0  0.43006966278E+02 -0.27100370102E+02 -0.16056564312E+02  0.53308934201E+02  0.00000000000E+00 0.  1.
         11    1    3    3    0    0 -0.30904208106E+02  0.80316994180E+01  0.24609179085E+02  0.40313644954E+02  0.00000000000E+00 0. -1.
         21    1    1    2  502  501 -0.26321800128E+02  0.39676308442E+00  0.27485058463E+02  0.38058153156E+02  0.00000000000E+00 0. -1.
<scales pt_clust_5="13000.00000" pt_clust_6="13000.00000" pt_clust_7="13000.00000" pt_clust_8="13000.00000" pt_clust_9="26.32479"></scales>
<clustering>
<clus scale="   26.325">  1  9  2 -1</clus>
<clus scale="   80.526">  5  6 -1 -1</clus>
<clus scale="   83.022">  1  5  2 -1</clus>
<clus scale="   90.454">  7  8 -1 -1</clus>
<clus scale="   26.325">  1  5  2 -1</clus>
</clustering>
</event>
<event>
 9    1  0.2951046E-005  0.9735748E+02  0.7546771E-02  0.1291621E+00
         -2   -1    0    0    0  501 -0.00000000000E+00  0.00000000000E+00  0.74561478284E+02  0.74561478284E+02  0.00000000000E+00 0.  1.
          1   -1    0    0  502    0  0.00000000000E+00 -0.00000000000E+00 -0.43326262894E+03  0.43326262894E+03  0.00000000000E+00 0. -1.
        -24    2    1    2    0    0  0.63340446145E+01  0.36739631344E+02  0.32415159187E+02  0.93125528543E+02  0.78941122926E+02 0.  0.
         23    2    1    2    0    0 -0.30343987772E+02 -0.39303248355E+02 -0.36500634346E+03  0.37913483524E+03  0.89711145382E+02 0.  0.
         13    1    3    3    0    0  0.37029315140E+02  0.11461650885E+02 -0.43041333855E+01  0.39000835696E+02  0.00000000000E+00 0. -1.
        -14    1    3    3    0    0 -0.30695270526E+02  0.25277980459E+02  0.36719292573E+02  0.54124692847E+02  0.00000000000E+00 0.  1.
        -11    1    4    4    0    0 -0.29512425681E+02  0.24205736341E+02 -0.11413613481E+03  0.12034931745E+03  0.00000000000E+00 0.  1.
         11    1    4    4    0    0 -0.83156209066E+00 -0.63508984696E+02 -0.25087020864E+03  0.25878551779E+03  0.00000000000E+00 0. -1.
         21    1    1    2  502  501  0.24009943157E+02  0.25636170102E+01 -0.26109966388E+02  0.35563743438E+02  0.00000000000E+00 0.  1.
<scales pt_clust_5="13000.00000" pt_clust_6="13000.00000" pt_clust_7="13000.00000" pt_clust_8="13000.00000" pt_clust_9="24.14642"></scales>
<clustering>
<clus scale="   24.146">  2  9  1 -1</clus>
<clus scale="   78.941">  5  6 -1 -1</clus>
<clus scale="   87.533">  1  5  2 -1</clus>
<clus scale="   89.711">  7  8 -1 -1</clus>
<clus scale="   24.146">  2  5  1 -1</clus>
</clustering>
</event>
<event>
 9    1  0.2951046E-005  0.9677799E+02  0.7546771E-02  0.1292996E+00
          1   -1    0    0  502    0  0.00000000000E+00  0.00000000000E+00  0.22758573323E+03  0.22758573323E+03  0.00000000000E+00 0. -1.
         -2   -1    0    0    0  501 -0.00000000000E+00 -0.00000000000E+00 -0.13212849796E+03  0.13212849796E+03  0.00000000000E+00 0.  1.
         23    2    1    2    0    0 -0.13107155186E+02  0.26170186767E+02 -0.90297574031E+02  0.13092947520E+03  0.90178708168E+02 0.  0.
        -24    2    1    2    0    0  0.34441756376E+02 -0.11657509216E+02  0.18306354628E+03  0.20284201300E+03  0.79438581035E+02 0.  0.
         13    1    4    4    0    0  0.23503296889E+02  0.33451988899E+02  0.81839677281E+02  0.91483185905E+02  0.00000000000E+00 0. -1.
        -14    1    4    4    0    0  0.10938459487E+02 -0.45109498115E+02  0.10122386900E+03  0.11135882709E+03  0.00000000000E+00 0.  1.
        -13    1    3    3    0    0  0.19669669537E+02 -0.20030280728E+02 -0.49685873228E+01  0.28509558147E+02  0.00000000000E+00 0.  1.
         13    1    3    3    0    0 -0.32776824723E+02  0.46200467496E+02 -0.85328986708E+02  0.10241991705E+03  0.00000000000E+00 0. -1.
         21    1    1    2  502  501 -0.21334601190E+02 -0.14512677551E+02  0.26912630225E+01  0.25942742999E+02  0.00000000000E+00 0.  1.
<scales pt_clust_5="13000.00000" pt_clust_6="13000.00000" pt_clust_7="13000.00000" pt_clust_8="13000.00000" pt_clust_9="25.80277"></scales>
<clustering>
<clus scale="   25.803">  2  9  1 -1</clus>
<clus scale="   79.439">  5  6 -1 -1</clus>
<clus scale="   86.858">  1  5  2 -1</clus>
<clus scale="   90.179">  7  8 -1 -1</clus>
<clus scale="   86.858">  1  5  2 -1</clus>
</clustering>
</event>
<event>
 9    1  0.2951046E-005  0.9889224E+02  0.7546771E-02  0.1291953E+00
         -2   -1    0    0    0  501 -0.00000000000E+00  0.00000000000E+00  0.31521492461E+03  0.31521492461E+03  0.00000000000E+00 0.  1.
          1   -1    0    0  502    0  0.00000000000E+00 -0.00000000000E+00 -0.53135740383E+02  0.53135740383E+02  0.00000000000E+00 0. -1.
        -24    2    1    2    0    0 -0.12296955287E+01 -0.29062011146E+02  0.23158524825E+03  0.24639271296E+03  0.78940035150E+02 0.  0.
         23    2    1    2    0    0  0.17136117118E+01  0.74781891020E+01  0.19689209942E+02  0.97815921180E+02  0.95506176087E+02 0.  0.
         11    1    3    3    0    0 -0.24534612798E+02 -0.57439086620E+01  0.19772020088E+02  0.32029244297E+02  0.00000000000E+00 0. -1.
        -12    1    3    3    0    0  0.23304917270E+02 -0.23318102484E+02  0.21181322817E+03  0.21436346866E+03  0.00000000000E+00 0.  1.
        -13    1    4    4    0    0 -0.39255824717E+02  0.11789204968E+02  0.34968904487E+02  0.53877912070E+02  0.00000000000E+00 0. -1.
         13    1    4    4    0    0  0.40969436429E+02 -0.43110158664E+01 -0.15279694545E+02  0.43938009109E+02  0.00000000000E+00 0.  1.
         21    1    1    2  502  501 -0.48391618316E+00  0.21583822044E+02  0.10804726027E+02  0.24142030847E+02  0.00000000000E+00 0. -1.
<scales pt_clust_5="13000.00000" pt_clust_6="13000.00000" pt_clust_7="13000.00000" pt_clust_8="13000.00000" pt_clust_9="21.58925"></scales>
<clustering>
<clus scale="   21.589">  2  9  1 -1</clus>
<clus scale="   78.940">  5  6 -1 -1</clus>
<clus scale="   83.005">  1  5  2 -1</clus>
<clus scale="   95.506">  7  8 -1 -1</clus>
<clus scale="   21.589">  2  5  1 -1</clus>
</clustering>
</event>
<event>
 9    1  0.2951046E-005  0.1016046E+03  0.7546771E-02  0.1286372E+00
          1   -1    0    0  502    0  0.00000000000E+00  0.00000000000E+00  0.22703095339E+02  0.22703095339E+02  0.00000000000E+00 0. -1.
         -2   -1    0    0    0  501 -0.00000000000E+00 -0.00000000000E+00 -0.10847477760E+04  0.10847477760E+04  0.00000000000E+00 0.  1.
        -24    2    1    2    0    0 -0.32666334950E+02  0.42546128237E+02 -0.85094369883E+03  0.85509884908E+03  0.64896846186E+02 0.  0.
         23    2    1    2    0    0  0.22705505034E+02 -0.64872465032E+02 -0.14469128991E+03  0.18158528836E+03  0.85520002880E+02 0.  0.
         13    1    3    3    0    0 -0.14533752185E+02 -0.13796989093E+02 -0.11122218066E+03  0.11301309805E+03  0.00000000000E+00 0. -1.
        -14    1    3    3    0    0 -0.18132582765E+02  0.56343117329E+02 -0.73972151817E+03  0.74208575103E+03  0.00000000000E+00 0.  1.
        -11    1    4    4    0    0 -0.11529541951E+02  0.17232626439E+02 -0.25832176140E+02  0.33123935088E+02  0.00000000000E+00 0.  1.
         11    1    4    4    0    0  0.34235046985E+02 -0.82105091470E+02 -0.11885911377E+03  0.14846135327E+03  0.00000000000E+00 0. -1.
         21    1    1    2  502  501  0.99608299161E+01  0.22326336795E+02 -0.66409691912E+02  0.70766733902E+02  0.00000000000E+00 0.  1.
<scales pt_clust_5="13000.00000" pt_clust_6="13000.00000" pt_clust_7="13000.00000" pt_clust_8="13000.00000" pt_clust_9="24.44757"></scales>
<clustering>
<clus scale="   24.448">  1  9  2 -1</clus>
<clus scale="   64.897">  5  6 -1 -1</clus>
<clus scale="   84.979">  2  5  1 -1</clus>
<clus scale="   85.520">  7  8 -1 -1</clus>
<clus scale="   24.448">  1  5  2 -1</clus>
</clustering>
</event>
<event>
 9    1  0.2951046E-005  0.1130343E+03  0.7546771E-02  0.1257223E+00
         -2   -1    0    0    0  501 -0.00000000000E+00  0.00000000000E+00  0.36087610775E+03  0.36087610775E+03  0.00000000000E+00 0.  1.
          1   -1    0    0  502    0  0.00000000000E+00 -0.00000000000E+00 -0.67969572935E+02  0.67969572935E+02  0.00000000000E+00 0. -1.
        -24    2    1    2    0    0 -0.61572343551E+02  0.33197885140E+02  0.25982525488E+03  0.28206605636E+03  0.84609952197E+02 0.  0.
         23    2    1    2    0    0  0.63261128205E+02 -0.54943380028E+01  0.40870539153E+02  0.11795236159E+03  0.90610156950E+02 0.  0.
         11    1    3    3    0    0 -0.40535973003E+02  0.24263604235E+02  0.42512303783E+02  0.63554571596E+02  0.00000000000E+00 0. -1.
        -12    1    3    3    0    0 -0.21036370548E+02  0.89342809053E+01  0.21731295109E+03  0.21851148476E+03  0.00000000000E+00 0.  1.
        -11    1    4    4    0    0  0.41596948551E+02  0.10594913194E+02 -0.22940067591E+02  0.48670371022E+02  0.00000000000E+00 0.  1.
         11    1    4    4    0    0  0.21664179653E+02 -0.16089251197E+02  0.63810606744E+02  0.69281990569E+02  0.00000000000E+00 0. -1.
         21    1    1    2  502  501 -0.16887846536E+01 -0.27703547138E+02 -0.77892592153E+01  0.28827262734E+02  0.00000000000E+00 0.  1.
<scales pt_clust_5="13000.00000" pt_clust_6="13000.00000" pt_clust_7="13000.00000" pt_clust_8="13000.00000" pt_clust_9="27.75497"></scales>
<clustering>
<clus scale="   27.755">  2  9  1 -1</clus>
<clus scale="   84.610">  5  6 -1 -1</clus>
<clus scale="   90.610">  7  8 -1 -1</clus>
<clus scale="  108.284">  1  5  2 -1</clus>
<clus scale="   27.755">  2  5  1 -1</clus>
</clustering>
</event>
<event>
 9    1  0.2951046E-005  0.9200382E+02  0.7546771E-02  0.1299432E+00
         -4   -1    0    0    0  501 -0.00000000000E+00  0.00000000000E+00  0.37232174370E+03  0.37232174370E+03  0.00000000000E+00 0.  1.
          3   -1    0    0  502    0  0.00000000000E+00 -0.00000000000E+00 -0.39809000511E+02  0.39809000511E+02  0.00000000000E+00 0. -1.
        -24    2    1    2    0    0  0.20417660085E+01 -0.74806858776E+01  0.21722108232E+03  0.23460124154E+03  0.88275786360E+02 0.  0.
         23    2    1    2    0    0 -0.77409964636E+00  0.32690428822E+02  0.11779965976E+03  0.15216361661E+03  0.90596594943E+02 0.  0.
         11    1    3    3    0    0  0.26548240088E+02  0.22794446095E+02  0.16914616390E+03  0.17272759070E+03  0.00000000000E+00 0. -1.
        -12    1    3    3    0    0 -0.24506474080E+02 -0.30275131972E+02  0.48074918417E+02  0.61873650843E+02  0.00000000000E+00 0.  1.
        -11    1    4    4    0    0 -0.35439940605E+02  0.44294026299E+02  0.52320938799E+02  0.77171437674E+02  0.00000000000E+00 0.  1.
         11    1    4    4    0    0  0.34665840959E+02 -0.11603597477E+02  0.65478720959E+02  0.74992178940E+02  0.00000000000E+00 0. -1.
         21    1    1    2  502  501 -0.12676663621E+01 -0.25209742944E+02 -0.25079988851E+01  0.25365886062E+02  0.00000000000E+00 0. -1.
<scales pt_clust_5="13000.00000" pt_clust_6="13000.00000" pt_clust_7="13000.00000" pt_clust_8="13000.00000" pt_clust_9="25.24159"></scales>
<clustering>
<clus scale="   25.242">  2  9  1 -1</clus>
<clus scale="   88.276">  5  6 -1 -1</clus>
<clus scale="   89.719">  1  5  2 -1</clus>
<clus scale="   90.597">  7  8 -1 -1</clus>
<clus scale="   25.242">  2  5  1 -1</clus>
</clustering>
</event>
<event>
 9    1  0.2951046E-005  0.3466504E+03  0.7546771E-02  0.1064236E+00
          1   -1    0    0  502    0  0.00000000000E+00  0.00000000000E+00  0.28851760802E+03  0.28851760802E+03  0.00000000000E+00 0. -1.
         -2   -1    0    0    0  501 -0.00000000000E+00 -0.00000000000E+00 -0.70447793184E+03  0.70447793184E+03  0.00000000000E+00 0.  1.
        -24    2    1    2    0    0 -0.32651853160E+03 -0.85508511053E+02 -0.50323867679E+03  0.61132697903E+03  0.80903971089E+02 0.  0.
         23    2    1    2    0    0  0.30843311637E+03  0.10226873075E+03  0.55988185550E+02  0.34183061679E+03  0.90131088386E+02 0.  0.
         11    1    3    3    0    0 -0.16462947051E+03 -0.75221742688E+02 -0.31055964459E+03  0.35945579142E+03  0.00000000000E+00 0. -1.
        -12    1    3    3    0    0 -0.16188906109E+03 -0.10286768365E+02 -0.19267903220E+03  0.25187118762E+03  0.00000000000E+00 0.  1.
        -13    1    4    4    0    0  0.89094885845E+02  0.69975864994E+02  0.37602130233E+02  0.11936683192E+03  0.00000000000E+00 0.  1.
         13    1    4    4    0    0  0.21933823052E+03  0.32292865752E+02  0.18386055317E+02  0.22246378487E+03  0.00000000000E+00 0. -1.
         21    1    1    2  502  501  0.18085415231E+02 -0.16760219693E+02  0.31290167417E+02  0.39837944039E+02  0.00000000000E+00 0. -1.
<scales pt_clust_5="13000.00000" pt_clust_6="13000.00000" pt_clust_7="13000.00000" pt_clust_8="13000.00000" pt_clust_9="24.65740"></scales>
<clustering>
<clus scale="   24.657">  1  9  2 -1</clus>
<clus scale="   80.904">  5  6 -1 -1</clus>
<clus scale="   90.131">  7  8 -1 -1</clus>
<clus scale="  344.367">  2  5  1 -1</clus>
<clus scale="   24.657">  1  5  2 -1</clus>
</clustering>
</event>
<event>
 9    1  0.4874561E-005  0.2605242E+03  0.7546771E-02  0.1107137E+00
         -2   -1    0    0    0  501 -0.00000000000E+00  0.00000000000E+00  0.72234123607E+03  0.72234123607E+03  0.00000000000E+00 0.  1.
          1   -1    0    0  502    0  0.00000000000E+00 -0.00000000000E+00 -0.49011732522E+03  0.49011732522E+03  0.00000000000E+00 0. -1.
        -24    2    1    2    0    0 -0.24024522119E+03 -0.21297095209E+02  0.64715194720E+03  0.69741786624E+03  0.97029401817E+02 0.  0.
         23    2    1    2    0    0  0.24811191357E+03  0.53202746794E+02 -0.38812868120E+03  0.47263714699E+03  0.91388979762E+02 0.  0.
         11    1    3    3    0    0 -0.12889749432E+03 -0.77708395952E+01  0.21367234238E+03  0.24966141049E+03  0.00000000000E+00 0. -1.
        -12    1    3    3    0    0 -0.11134772687E+03 -0.13526255614E+02  0.43347960482E+03  0.44775645575E+03  0.00000000000E+00 0.  1.
        -11    1    4    4    0    0  0.14072411883E+03  0.51426042361E+02 -0.29334318280E+03  0.32939055595E+03  0.00000000000E+00 0. -1.
         11    1    4    4    0    0  0.10738779473E+03  0.17767044333E+01 -0.94785498395E+02  0.14324659103E+03  0.00000000000E+00 0.  1.
         21    1    1    2  502  501 -0.78666923763E+01 -0.31905651585E+02 -0.26799355152E+02  0.42403548066E+02  0.00000000000E+00 0. -1.
<scales pt_clust_5="13000.00000" pt_clust_6="13000.00000" pt_clust_7="13000.00000" pt_clust_8="13000.00000" pt_clust_9="32.86115"></scales>
<clustering>
<clus scale="   32.861">  2  9  1 -1</clus>
<clus scale="   91.389">  7  8 -1 -1</clus>
<clus scale="   97.029">  5  6 -1 -1</clus>
<clus scale="  258.476">  2  7  1 -1</clus>
<clus scale="   32.861">  2  5  1 -1</clus>
</clustering>
</event>
<event>
 9    1  0.2951046E-005  0.1320307E+03  0.7546771E-02  0.1227670E+00
          1   -1    0    0  502    0  0.00000000000E+00  0.00000000000E+00  0.39832872721E+03  0.39832872721E+03  0.00000000000E+00 0. -1.
         -2   -1    0    0    0  501 -0.00000000000E+00 -0.00000000000E+00 -0.99766257468E+02  0.99766257468E+02  0.00000000000E+00 0.  1.
         23    2    1    2    0    0 -0.94715185576E+02 -0.16303725209E+02 -0.32150442550E+02  0.13713870616E+03  0.92393700742E+02 0.  0.
        -24    2    1    2    0    0  0.84846762568E+02 -0.27166395037E+01  0.30992950274E+03  0.33110481023E+03  0.79798154351E+02 0.  0.
         13    1    4    4    0    0  0.63616420020E+02  0.22699075360E+02  0.11489282267E+03  0.13327662067E+03  0.00000000000E+00 0. -1.
        -14    1    4    4    0    0  0.21230342548E+02 -0.25415714864E+02  0.19503668008E+03  0.19782818955E+03  0.00000000000E+00 0.  1.
        -13    1    3    3    0    0 -0.56891645973E+02  0.16836561887E+02 -0.55907189140E+02  0.81521426602E+02  0.00000000000E+00 0.  1.
         13    1    3    3    0    0 -0.37823539604E+02 -0.33140287096E+02  0.23756746590E+02  0.55617279559E+02  0.00000000000E+00 0. -1.
         21    1    1    2  502  501  0.98684230084E+01  0.19020364713E+02  0.20783409552E+02  0.29851468291E+02  0.00000000000E+00 0.  1.
<scales pt_clust_5="13000.00000" pt_clust_6="13000.00000" pt_clust_7="13000.00000" pt_clust_8="13000.00000" pt_clust_9="21.42802"></scales>
<clustering>
<clus scale="   21.428">  1  9  2 -1</clus>
<clus scale="   79.798">  5  6 -1 -1</clus>
<clus scale="   92.394">  7  8 -1 -1</clus>
<clus scale="  123.545">  1  5  2 -1</clus>
<clus scale="   21.428">  1  5  2 -1</clus>
</clustering>
</event>
<event>
 9    1  0.2951046E-005  0.1175241E+03  0.7546771E-02  0.1251285E+00
          1   -1    0    0  502    0  0.00000000000E+00  0.00000000000E+00  0.13990757244E+03  0.13990757244E+03  0.00000000000E+00 0. -1.
         -2   -1    0    0    0  501 -0.00000000000E+00 -0.00000000000E+00 -0.15534232771E+03  0.15534232771E+03  0.00000000000E+00 0.  1.
         23    2    1    2    0    0  0.56801793889E+02  0.39940061313E+02 -0.80858230016E+02  0.14035786305E+03  0.91327017202E+02 0.  0.
        -24    2    1    2    0    0 -0.75713878567E+02 -0.46896971950E+02  0.62310028748E+02  0.13450186549E+03  0.79223069569E+02 0.  0.
         13    1    4    4    0    0 -0.56346131798E+02 -0.35271454108E+02  0.81281500633E+02  0.10500306847E+03  0.00000000000E+00 0. -1.
        -14    1    4    4    0    0 -0.19367746768E+02 -0.11625517842E+02 -0.18971471885E+02  0.29498797017E+02  0.00000000000E+00 0.  1.
        -13    1    3    3    0    0  0.64337027252E+02 -0.92093876119E+01 -0.44871375069E+02  0.78977884223E+02  0.00000000000E+00 0. -1.
         13    1    3    3    0    0 -0.75352333625E+01  0.49149448925E+02 -0.35986854947E+02  0.61379978824E+02  0.00000000000E+00 0.  1.
         21    1    1    2  502  501  0.18912084678E+02  0.69569106369E+01  0.31134460047E+01  0.20390171615E+02  0.00000000000E+00 0.  1.
<scales pt_clust_5="13000.00000" pt_clust_6="13000.00000" pt_clust_7="13000.00000" pt_clust_8="13000.00000" pt_clust_9="20.15107"></scales>
<clustering>
<clus scale="   20.151">  1  9  2 -1</clus>
<clus scale="   79.223">  5  6 -1 -1</clus>
<clus scale="   91.327">  7  8 -1 -1</clus>
<clus scale="  108.386">  1  5  2 -1</clus>
<clus scale="   20.151">  1  5  2 -1</clus>
</clustering>
</event>
<event>
 9    1  0.2951046E-005  0.1722590E+03  0.7546771E-02  0.1176756E+00
          1   -1    0    0  502    0  0.00000000000E+00  0.00000000000E+00  0.38137695063E+03  0.38137695063E+03  0.00000000000E+00 0. -1.
         -2   -1    0    0    0  501 -0.00000000000E+00 -0.00000000000E+00 -0.21043435502E+03  0.21043435502E+03  0.00000000000E+00 0.  1.
        -24    2    1    2    0    0 -0.11246250066E+03  0.85342279976E+02 -0.10709540878E+03  0.19482042380E+03  0.80959571038E+02 0.  0.
         23    2    1    2    0    0  0.16827818668E+03 -0.55651149226E+02  0.13457459144E+03  0.24021491142E+03  0.90433868008E+02 0.  0.
         11    1    3    3    0    0 -0.72222186369E+02  0.46832952759E+01 -0.52860672559E+02  0.89622698922E+02  0.00000000000E+00 0. -1.
        -12    1    3    3    0    0 -0.40240314288E+02  0.80658984700E+02 -0.54234736219E+02  0.10519772488E+03  0.00000000000E+00 0.  1.
        -13    1    4    4    0    0  0.10187790518E+03  0.10301896335E+02  0.49485648706E+02  0.11372803551E+03  0.00000000000E+00 0.  1.
         13    1    4    4    0    0  0.66400281500E+02 -0.65953045561E+02  0.85088942734E+02  0.12648687591E+03  0.00000000000E+00 0. -1.
         21    1    1    2  502  501 -0.55815686025E+02 -0.29691130750E+02  0.14346341295E+03  0.15677597044E+03  0.00000000000E+00 0. -1.
<scales pt_clust_5="13000.00000" pt_clust_6="13000.00000" pt_clust_7="13000.00000" pt_clust_8="13000.00000" pt_clust_9="63.22147"></scales>
<clustering>
<clus scale="   63.221">  1  9  2 -1</clus>
<clus scale="   80.960">  5  6 -1 -1</clus>
<clus scale="   90.434">  7  8 -1 -1</clus>
<clus scale="  167.479">  2  5  1 -1</clus>
<clus scale="   63.221">  1  5  2 -1</clus>
</clustering>
</event>
<event>
 9    1  0.2951046E-005  0.1074281E+03  0.7546771E-02  0.1267417E+00
         -2   -1    0    0    0  501 -0.00000000000E+00  0.00000000000E+00  0.28187278841E+03  0.28187278841E+03  0.00000000000E+00 0.  1.
          1   -1    0    0  502    0  0.00000000000E+00 -0.00000000000E+00 -0.61188133212E+02  0.61188133212E+02  0.00000000000E+00 0. -1.
        -24    2    1    2    0    0 -0.19754921066E+02  0.52805343750E+02  0.16680457002E+03  0.20104350507E+03  0.97036411296E+02 0.  0.
         23    2    1    2    0    0  0.17996968233E+02 -0.24451513428E+02  0.58037109808E+02  0.11330660072E+03  0.92457083435E+02 0.  0.
         11    1    3    3    0    0 -0.21255283071E+02 -0.10296414073E+02  0.10091195851E+01  0.23639406158E+02  0.00000000000E+00 0. -1.
        -12    1    3    3    0    0  0.15003620043E+01  0.63101757823E+02  0.16579545043E+03  0.17740409891E+03  0.00000000000E+00 0.  1.
        -11    1    4    4    0    0 -0.16798135470E+02 -0.50676033065E+02  0.27119678919E+02  0.59880837228E+02  0.00000000000E+00 0. -1.
         11    1    4    4    0    0  0.34795103702E+02  0.26224519637E+02  0.30917430889E+02  0.53425763491E+02  0.00000000000E+00 0.  1.
         21    1    1    2  502  501  0.17579528336E+01 -0.28353830323E+02 -0.41570246268E+01  0.28710815834E+02  0.00000000000E+00 0.  1.
<scales pt_clust_5="13000.00000" pt_clust_6="13000.00000" pt_clust_7="13000.00000" pt_clust_8="13000.00000" pt_clust_9="28.40828"></scales>
<clustering>
<clus scale="   28.408">  2  9  1 -1</clus>
<clus scale="   92.457">  7  8 -1 -1</clus>
<clus scale="   97.036">  5  6 -1 -1</clus>
<clus scale="  103.310">  2  7  1 -1</clus>
<clus scale="   28.408">  2  5  1 -1</clus>
</clustering>
</event>
<event>
 9    1  0.2951046E-005  0.1246403E+03  0.7546771E-02  0.1250124E+00
         -2   -1    0    0    0  501 -0.00000000000E+00  0.00000000000E+00  0.13500018800E+03  0.13500018800E+03  0.00000000000E+00 0.  1.
          1   -1    0    0  502    0  0.00000000000E+00 -0.00000000000E+00 -0.36550841098E+03  0.36550841098E+03  0.00000000000E+00 0. -1.
        -24    2    1    2    0    0 -0.93654823993E+02  0.22903922614E+02  0.63985286041E+02  0.13755956322E+03  0.74382127397E+02 0.  0.
         23    2    1    2    0    0 -0.19679181456E+02  0.13250857160E+02 -0.12155717362E+03  0.15304729446E+03  0.89913694654E+02 0.  0.
         11    1    3    3    0    0 -0.28970242372E+02 -0.27274217197E+02  0.18106930602E+02  0.43715201048E+02  0.00000000000E+00 0. -1.
        -12    1    3    3    0    0 -0.64684581621E+02  0.50178139811E+02  0.45878355439E+02  0.93844362176E+02  0.00000000000E+00 0.  1.
        -11    1    4    4    0    0  0.26478695093E+02  0.33305665473E+02 -0.59508511870E+02  0.73154983640E+02  0.00000000000E+00 0. -1.
         11    1    4    4    0    0 -0.46157876549E+02 -0.20054808313E+02 -0.62048661748E+02  0.79892310824E+02  0.00000000000E+00 0.  1.
         21    1    1    2  502  501  0.11333400545E+03 -0.36154779774E+02 -0.17293633541E+03  0.20990174129E+03  0.00000000000E+00 0. -1.
<scales pt_clust_5="13000.00000" pt_clust_6="13000.00000" pt_clust_7="13000.00000" pt_clust_8="13000.00000" pt_clust_9="100.01247"></scales>
<clustering>
<clus scale="   74.382">  5  6 -1 -1</clus>
<clus scale="   89.914">  7  8 -1 -1</clus>
<clus scale="   92.991">  2  7  1 -1</clus>
<clus scale="  100.012">  2  9  1 -1</clus>
<clus scale="   92.991">  2  5  1 -1</clus>
</clustering>
</event>
<event>
 9    1  0.2951046E-005  0.9253299E+02  0.7546771E-02  0.1302643E+00
          1   -1    0    0  502    0  0.00000000000E+00  0.00000000000E+00  0.33891422205E+03  0.33891422205E+03  0.00000000000E+00 0. -1.
         -2   -1    0    0    0  501 -0.00000000000E+00 -0.00000000000E+00 -0.98208365889E+02  0.98208365889E+02  0.00000000000E+00 0.  1.
         23    2    1    2    0    0  0.69209701534E+01 -0.19195539690E+02 -0.51014804842E+02  0.10648229094E+03  0.91211838040E+02 0.  0.
        -24    2    1    2    0    0 -0.27878963056E+02 -0.37694957325E+02  0.19395792295E+03  0.21560413283E+03  0.81653657764E+02 0.  0.
         11    1    4    4    0    0  0.23777746015E+02 -0.12014175509E+02  0.11360880144E+03  0.11669053682E+03  0.00000000000E+00 0. -1.
        -12    1    4    4    0    0 -0.51656709071E+02 -0.25680781817E+02  0.80349121513E+02  0.98913596006E+02  0.00000000000E+00 0.  1.
        -13    1    3    3    0    0 -0.41853648631E+02 -0.15083861874E+02 -0.22943415200E+02  0.50056479040E+02  0.00000000000E+00 0.  1.
         13    1    3    3    0    0  0.48774618785E+02 -0.41116778164E+01 -0.28071389642E+02  0.56425811899E+02  0.00000000000E+00 0. -1.
         21    1    1    2  502  501  0.20957992902E+02  0.56890497015E+02  0.97762738051E+02  0.11503616418E+03  0.00000000000E+00 0. -1.
<scales pt_clust_5="13000.00000" pt_clust_6="13000.00000" pt_clust_7="13000.00000" pt_clust_8="13000.00000" pt_clust_9="60.62810"></scales>
<clustering>
<clus scale="   60.628">  1  9  2 -1</clus>
<clus scale="   81.654">  5  6 -1 -1</clus>
<clus scale="   83.127">  1  5  2 -1</clus>
<clus scale="   91.212">  7  8 -1 -1</clus>
<clus scale="   60.628">  1  5  2 -1</clus>
</clustering>
</event>
<event>
 9    1  0.2951046E-005  0.1086812E+03  0.7546771E-02  0.1269272E+00
         -2   -1    0    0    0  501 -0.00000000000E+00  0.00000000000E+00  0.25135118972E+03  0.25135118972E+03  0.00000000000E+00 0.  1.
          1   -1    0    0  502    0  0.00000000000E+00 -0.00000000000E+00 -0.74145931511E+02  0.74145931511E+02  0.00000000000E+00 0. -1.
        -24    2    1    2    0    0 -0.25303439247E+02  0.46269803048E+02  0.17288764698E+03  0.19913973081E+03  0.83578317744E+02 0.  0.
         23    2    1    2    0    0  0.11822537802E+02 -0.27915793635E+02  0.10474794065E+02  0.10276681463E+03  0.97633154945E+02 0.  0.
         13    1    3    3    0    0  0.23031396316E+02  0.33090109383E+02  0.11861094710E+03  0.12527552565E+03  0.00000000000E+00 0. -1.
        -14    1    3    3    0    0 -0.48334835563E+02  0.13179693665E+02  0.54276699884E+02  0.73864205163E+02  0.00000000000E+00 0.  1.
        -11    1    4    4    0    0  0.27437994659E+02 -0.28936627207E+01 -0.37436275826E+02  0.46504747958E+02  0.00000000000E+00 0. -1.
         11    1    4    4    0    0 -0.15615456857E+02 -0.25022130914E+02  0.47911069892E+02  0.56262066674E+02  0.00000000000E+00 0.  1.
         21    1    1    2  502  501  0.13480901445E+02 -0.18354009414E+02 -0.61571828415E+01  0.23590575785E+02  0.00000000000E+00 0. -1.
<scales pt_clust_5="13000.00000" pt_clust_6="13000.00000" pt_clust_7="13000.00000" pt_clust_8="13000.00000" pt_clust_9="22.77289"></scales>
<clustering>
<clus scale="   22.773">  2  9  1 -1</clus>
<clus scale="   83.578">  5  6 -1 -1</clus>
<clus scale="   96.253">  1  5  2 -1</clus>
<clus scale="   97.633">  7  8 -1 -1</clus>
<clus scale="   22.773">  2  5  1 -1</clus>
</clustering>
</event>
<event>
 9    1  0.2951046E-005  0.1235868E+03  0.7546771E-02  0.1240726E+00
         -2   -1    0    0    0  501 -0.00000000000E+00  0.00000000000E+00  0.12089153135E+03  0.12089153135E+03  0.00000000000E+00 0.  1.
          1   -1    0    0  502    0  0.00000000000E+00 -0.00000000000E+00 -0.58795397203E+03  0.58795397203E+03  0.00000000000E+00 0. -1.
         23    2    1    2    0    0 -0.35481823793E+02  0.71231549847E+02  0.61552512551E+02  0.13643402272E+03  0.92155505759E+02 0.  0.
        -24    2    1    2    0    0 -0.97597500931E+01 -0.11717376371E+03 -0.26383457474E+03  0.29989334207E+03  0.80637399286E+02 0.  0.
         13    1    4    4    0    0  0.14979137202E+02 -0.99742548632E+02 -0.24314298354E+03  0.26323271264E+03  0.00000000000E+00 0. -1.
        -14    1    4    4    0    0 -0.24738887296E+02 -0.17431215081E+02 -0.20691591207E+02  0.36660629434E+02  0.00000000000E+00 0.  1.
        -13    1    3    3    0    0 -0.35893415814E+02  0.70007238127E+01  0.62251224931E+02  0.72198077801E+02  0.00000000000E+00 0.  1.
         13    1    3    3    0    0  0.41159202093E+00  0.64230826034E+02 -0.69871238088E+00  0.64235944922E+02  0.00000000000E+00 0. -1.
         21    1    1    2  502  501  0.45241573886E+02  0.45942213866E+02 -0.26478037849E+03  0.27251813858E+03  0.00000000000E+00 0. -1.
<scales pt_clust_5="13000.00000" pt_clust_6="13000.00000" pt_clust_7="13000.00000" pt_clust_8="13000.00000" pt_clust_9="64.47858"></scales>
<clustering>
<clus scale="   64.479">  2  9  1 -1</clus>
<clus scale="   80.637">  5  6 -1 -1</clus>
<clus scale="   92.156">  7  8 -1 -1</clus>
<clus scale="  115.254">  2  5  1 -1</clus>
<clus scale="   64.479">  2  5  1 -1</clus>
</clustering>
</event>
<event>
 9    1  0.2951046E-005  0.1108688E+03  0.7546771E-02  0.1263331E+00
         -2   -1    0    0    0  501 -0.00000000000E+00  0.00000000000E+00  0.25622566036E+03  0.25622566036E+03  0.00000000000E+00 0.  1.
          1   -1    0    0  502    0  0.00000000000E+00 -0.00000000000E+00 -0.66043495491E+02  0.66043495491E+02  0.00000000000E+00 0. -1.
        -24    2    1    2    0    0  0.18759801940E+02 -0.74874846558E+02  0.12285831292E+03  0.16620167080E+03  0.81059592317E+02 0.  0.
         23    2    1    2    0    0 -0.56639978904E+01  0.41259734276E+02  0.64249665589E+02  0.11986076635E+03  0.92217879162E+02 0.  0.
         13    1    3    3    0    0 -0.85849128603E+01 -0.26142086577E+02 -0.37880024810E+01  0.27775139644E+02  0.00000000000E+00 0. -1.
        -14    1    3    3    0    0  0.27344714801E+02 -0.48732759981E+02  0.12664631540E+03  0.13842653115E+03  0.00000000000E+00 0.  1.
        -11    1    4    4    0    0 -0.48202873131E+02  0.26007986872E+02  0.44381042224E+02  0.70495455655E+02  0.00000000000E+00 0. -1.
         11    1    4    4    0    0  0.42538875240E+02  0.15251747404E+02  0.19868623365E+02  0.49365310695E+02  0.00000000000E+00 0.  1.
         21    1    1    2  502  501 -0.13095804050E+02  0.33615112282E+02  0.30741863610E+01  0.36206718703E+02  0.00000000000E+00 0. -1.
<scales pt_clust_5="13000.00000" pt_clust_6="13000.00000" pt_clust_7="13000.00000" pt_clust_8="13000.00000" pt_clust_9="36.07597"></scales>
<clustering>
<clus scale="   36.076">  2  9  1 -1</clus>
<clus scale="   81.060">  5  6 -1 -1</clus>
<clus scale="   92.218">  7  8 -1 -1</clus>
<clus scale="  101.776">  1  5  2 -1</clus>
<clus scale="   36.076">  2  5  1 -1</clus>
</clustering>
</event>
<event>
 9    1  0.2951046E-005  0.1271585E+03  0.7546771E-02  0.1241667E+00
          1   -1    0    0  502    0  0.00000000000E+00  0.00000000000E+00  0.10473101558E+04  0.10473101558E+04  0.00000000000E+00 0. -1.
         -2   -1    0    0    0  501 -0.00000000000E+00 -0.00000000000E+00 -0.55806832523E+02  0.55806832523E+02  0.00000000000E+00 0.  1.
        -24    2    1    2    0    0 -0.41390411878E+02 -0.48772227997E+02  0.22231547045E+02  0.10616613195E+03  0.81762518730E+02 0.  0.
         23    2    1    2    0    0  0.20467124788E+02 -0.67438493693E+02  0.51586590916E+03  0.52842167258E+03  0.90249510723E+02 0.  0.
         13    1    3    3    0    0  0.18689198472E+02 -0.16580880444E+02  0.28282801338E+02  0.37737628268E+02  0.00000000000E+00 0. -1.
        -14    1    3    3    0    0 -0.60079610349E+02 -0.32191347553E+02 -0.60512542923E+01  0.68428503677E+02  0.00000000000E+00 0.  1.
        -11    1    4    4    0    0 -0.33805109379E+02 -0.43583546464E+02  0.23966388787E+03  0.24592903466E+03  0.00000000000E+00 0.  1.
         11    1    4    4    0    0  0.54272234168E+02 -0.23854947229E+02  0.27620202129E+03  0.28249263792E+03  0.00000000000E+00 0. -1.
         21    1    1    2  502  501  0.20923287089E+02  0.11621072169E+03  0.45340586703E+03  0.46852918376E+03  0.00000000000E+00 0. -1.
<scales pt_clust_5="13000.00000" pt_clust_6="13000.00000" pt_clust_7="13000.00000" pt_clust_8="13000.00000" pt_clust_9="89.57849"></scales>
<clustering>
<clus scale="   81.763">  5  6 -1 -1</clus>
<clus scale="   90.250">  7  8 -1 -1</clus>
<clus scale="  103.812">  2  5  1 -1</clus>
<clus scale="   89.578">  2  9  1 -1</clus>
<clus scale="  127.158">  1  5  2 -1</clus>
</clustering>
</event>
<event>
 9    1  0.2951046E-005  0.1319792E+03  0.7546771E-02  0.1228448E+00
          1   -1    0    0  502    0  0.00000000000E+00  0.00000000000E+00  0.67893267508E+03  0.67893267508E+03  0.00000000000E+00 0. -1.
         -2   -1    0    0    0  501 -0.00000000000E+00 -0.00000000000E+00 -0.11107624123E+03  0.11107624123E+03  0.00000000000E+00 0.  1.
         23    2    1    2    0    0  0.29257332589E+02  0.90122775975E+02 -0.60610987581E+02  0.14679740886E+03  0.94327520764E+02 0.  0.
        -24    2    1    2    0    0 -0.97429774963E+01 -0.67658951586E+02  0.43238405167E+03  0.44488319037E+03  0.79324810670E+02 0.  0.
         11    1    4    4    0    0 -0.13231211439E+02 -0.79255162982E+02  0.41979332712E+03  0.42741418239E+03  0.00000000000E+00 0. -1.
        -12    1    4    4    0    0  0.34882339426E+01  0.11596211397E+02  0.12590724554E+02  0.17469007974E+02  0.00000000000E+00 0.  1.
        -13    1    3    3    0    0  0.55999086691E+02  0.22835284619E+02 -0.19544927675E+02  0.63555897694E+02  0.00000000000E+00 0. -1.
         13    1    3    3    0    0 -0.26741754102E+02  0.67287491356E+02 -0.41066059906E+02  0.83241511169E+02  0.00000000000E+00 0.  1.
         21    1    1    2  502  501 -0.19514355092E+02 -0.22463824389E+02  0.19608336975E+03  0.19832831708E+03  0.00000000000E+00 0.  1.
<scales pt_clust_5="13000.00000" pt_clust_6="13000.00000" pt_clust_7="13000.00000" pt_clust_8="13000.00000" pt_clust_9="29.75623"></scales>
<clustering>
<clus scale="   29.756">  1  9  2 -1</clus>
<clus scale="   79.325">  5  6 -1 -1</clus>
<clus scale="   94.328">  7  8 -1 -1</clus>
<clus scale="  121.710">  1  5  2 -1</clus>
<clus scale="   29.756">  1  5  2 -1</clus>
</clustering>
</event>
<event>
 9    1  0.2951046E-005  0.9961812E+02  0.7546771E-02  0.1285321E+00
          1   -1    0    0  502    0  0.00000000000E+00  0.00000000000E+00  0.53634377578E+03  0.53634377578E+03  0.00000000000E+00 0. -1.
         -2   -1    0    0    0  501 -0.00000000000E+00 -0.00000000000E+00 -0.13686590509E+03  0.13686590509E+03  0.00000000000E+00 0.  1.
        -24    2    1    2    0    0  0.43105894223E+02 -0.81809603719E+01 -0.10996411659E+03  0.14306885946E+03  0.80321512559E+02 0.  0.
         23    2    1    2    0    0 -0.66761231914E+02 -0.10239998329E+02  0.33482080082E+03  0.35296445310E+03  0.88977619886E+02 0.  0.
         13    1    3    3    0    0  0.25795107565E+02 -0.18713514763E+02 -0.63162793457E+00  0.31874475101E+02  0.00000000000E+00 0. -1.
        -14    1    3    3    0    0  0.17310786658E+02  0.10532554392E+02 -0.10933248866E+03  0.11119438436E+03  0.00000000000E+00 0.  1.
        -11    1    4    4    0    0  0.20221443932E+02 -0.79047831895E+00  0.10747335157E+03  0.10936202700E+03  0.00000000000E+00 0.  1.
         11    1    4    4    0    0 -0.86982675846E+02 -0.94495200100E+01  0.22734744924E+03  0.24360242610E+03  0.00000000000E+00 0. -1.
         21    1    1    2  502  501  0.23655337691E+02  0.18420958701E+02  0.17462118647E+03  0.17717636830E+03  0.00000000000E+00 0. -1.
<scales pt_clust_5="13000.00000" pt_clust_6="13000.00000" pt_clust_7="13000.00000" pt_clust_8="13000.00000" pt_clust_9="29.98177"></scales>
<clustering>
<clus scale="   29.982">  1  9  2 -1</clus>
<clus scale="   80.322">  5  6 -1 -1</clus>
<clus scale="   88.978">  7  8 -1 -1</clus>
<clus scale="   91.969">  2  5  1 -1</clus>
<clus scale="   29.982">  1  5  2 -1</clus>
</clustering>
</event>
<event>
 9    1  0.2951046E-005  0.1301427E+03  0.7546771E-02  0.1231164E+00
         -2   -1    0    0    0  501 -0.00000000000E+00  0.00000000000E+00  0.96932440861E+02  0.96932440861E+02  0.00000000000E+00 0.  1.
          1   -1    0    0  502    0  0.00000000000E+00 -0.00000000000E+00 -0.29576633200E+03  0.29576633200E+03  0.00000000000E+00 0. -1.
         23    2    1    2    0    0 -0.45574625143E+02 -0.61960470457E+02 -0.28991938593E+02  0.12278938091E+03  0.91217066412E+02 0.  0.
        -24    2    1    2    0    0  0.76666645849E+02  0.84499041774E+02 -0.53160484481E+02  0.14707101872E+03  0.76065661044E+02 0.  0.
         13    1    4    4    0    0  0.70719175116E+02  0.71140221607E+02 -0.71815583278E+02  0.12336778697E+03  0.00000000000E+00 0. -1.
        -14    1    4    4    0    0  0.59474707331E+01  0.13358820167E+02  0.18655098797E+02  0.23703231752E+02  0.00000000000E+00 0.  1.
        -11    1    3    3    0    0 -0.53608174989E+02 -0.42305278666E+02 -0.56083532138E+02  0.88368182089E+02  0.00000000000E+00 0. -1.
         11    1    3    3    0    0  0.80335498462E+01 -0.19655191791E+02  0.27091593545E+02  0.34421198821E+02  0.00000000000E+00 0.  1.
         21    1    1    2  502  501 -0.31092020706E+02 -0.22538571317E+02 -0.11668146806E+03  0.12283837323E+03  0.00000000000E+00 0. -1.
<scales pt_clust_5="13000.00000" pt_clust_6="13000.00000" pt_clust_7="13000.00000" pt_clust_8="13000.00000" pt_clust_9="38.40184"></scales>
<clustering>
<clus scale="   38.402">  2  9  1 -1</clus>
<clus scale="   76.066">  5  6 -1 -1</clus>
<clus scale="   91.217">  7  8 -1 -1</clus>
<clus scale="  120.011">  2  5  1 -1</clus>
<clus scale="   38.402">  2  5  1 -1</clus>
</clustering>
</event>
<event>
 9    1  0.2951046E-005  0.9876868E+02  0.7546771E-02  0.1287308E+00
          3   -1    0    0  502    0  0.00000000000E+00  0.00000000000E+00  0.72566212297E+03  0.72566212297E+03  0.00000000000E+00 0. -1.
         -4   -1    0    0    0  501 -0.00000000000E+00 -0.00000000000E+00 -0.61887241489E+02  0.61887241489E+02  0.00000000000E+00 0.  1.
        -24    2    1    2    0    0  0.12587822385E+02  0.50713904600E+02 -0.95439453969E+01  0.95408704624E+02  0.79255161549E+02 0.  0.
         23    2    1    2    0    0 -0.42298838832E+01  0.19263867092E+01  0.24321867979E+03  0.25875054466E+03  0.88175480042E+02 0.  0.
         11    1    3    3    0    0  0.11339840354E+02  0.36877123922E+02  0.32927865763E+02  0.50722367765E+02  0.00000000000E+00 0. -1.
        -12    1    3    3    0    0  0.12479820309E+01  0.13836780678E+02 -0.42471811160E+02  0.44686336859E+02  0.00000000000E+00 0.  1.
        -13    1    4    4    0    0  0.92659147784E+01  0.39771283793E+02  0.17388757532E+03  0.17861831105E+03  0.00000000000E+00 0.  1.
         13    1    4    4    0    0 -0.13495798662E+02 -0.37844897084E+02  0.69331104467E+02  0.80132233611E+02  0.00000000000E+00 0. -1.
         21    1    1    2  502  501 -0.83579385019E+01 -0.52640291309E+02  0.43010014709E+03  0.43339011517E+03  0.00000000000E+00 0. -1.
<scales pt_clust_5="13000.00000" pt_clust_6="13000.00000" pt_clust_7="13000.00000" pt_clust_8="13000.00000" pt_clust_9="53.29968"></scales>
<clustering>
<clus scale="   53.300">  1  9  2 -1</clus>
<clus scale="   79.255">  5  6 -1 -1</clus>
<clus scale="   88.175">  7  8 -1 -1</clus>
<clus scale="   90.894">  2  5  1 -1</clus>
<clus scale="   53.300">  1  5  2 -1</clus>
</clustering>
</event>
<event>
 9    1  0.2951046E-005  0.9966038E+02  0.7546771E-02  0.1288262E+00
          1   -1    0    0  502    0  0.00000000000E+00  0.00000000000E+00  0.41210317592E+03  0.41210317592E+03  0.00000000000E+00 0. -1.
         -2   -1    0    0    0  501 -0.00000000000E+00 -0.00000000000E+00 -0.60350429647E+02  0.60350429647E+02  0.00000000000E+00 0.  1.
        -24    2    1    2    0    0 -0.20744016693E+02 -0.20443434191E-01 -0.10467791471E+02  0.84647896809E+02  0.81396419635E+02 0.  0.
         23    2    1    2    0    0  0.18808500699E+02 -0.27453398024E+02  0.33210005616E+03  0.34699147597E+03  0.94895670810E+02 0.  0.
         13    1    3    3    0    0  0.23124169123E+02 -0.14171067133E+02  0.16006400322E+02  0.31492081427E+02  0.00000000000E+00 0. -1.
        -14    1    3    3    0    0 -0.43868185816E+02  0.14150623699E+02 -0.26474191792E+02  0.53155815382E+02  0.00000000000E+00 0.  1.
        -11    1    4    4    0    0  0.23581327103E+02 -0.59294375169E+02  0.26488837918E+03  0.27246606273E+03  0.00000000000E+00 0. -1.
         11    1    4    4    0    0 -0.47728264037E+01  0.31840977145E+02  0.67211676975E+02  0.74525413244E+02  0.00000000000E+00 0.  1.
         21    1    1    2  502  501  0.19355159940E+01  0.27473841458E+02  0.30120481590E+02  0.40814232786E+02  0.00000000000E+00 0. -1.
<scales pt_clust_5="13000.00000" pt_clust_6="13000.00000" pt_clust_7="13000.00000" pt_clust_8="13000.00000" pt_clust_9="27.54194"></scales>
<clustering>
<clus scale="   27.542">  2  9  1 -1</clus>
<clus scale="   81.396">  5  6 -1 -1</clus>
<clus scale="   86.904">  2  5  1 -1</clus>
<clus scale="   94.896">  7  8 -1 -1</clus>
<clus scale="   99.660">  1  5  2 -1</clus>
</clustering>
</event>
<event>
 9    1  0.2951046E-005  0.1292935E+03  0.7546771E-02  0.1230237E+00
         -2   -1    0    0    0  501 -0.00000000000E+00  0.00000000000E+00  0.18353449417E+03  0.18353449417E+03  0.00000000000E+00 0.  1.
          1   -1    0    0  502    0  0.00000000000E+00 -0.00000000000E+00 -0.28749202575E+03  0.28749202575E+03  0.00000000000E+00 0. -1.
         23    2    1    2    0    0  0.55978176796E+02  0.70946218732E+02  0.46342548429E+02  0.13603437445E+03  0.90503022082E+02 0.  0.
        -24    2    1    2    0    0 -0.79786063714E+02 -0.54234116378E+02  0.46511428229E+02  0.13604270562E+03  0.83887719324E+02 0.  0.
         11    1    4    4    0    0 -0.63984049487E+02 -0.73007972626E+02  0.18539033284E+02  0.98832274135E+02  0.00000000000E+00 0. -1.
        -12    1    4    4    0    0 -0.15802014227E+02  0.18773856248E+02  0.27972394946E+02  0.37210431481E+02  0.00000000000E+00 0.  1.
        -13    1    3    3    0    0  0.39753829287E+02  0.21539187005E+02 -0.21898064588E+02  0.50237722406E+02  0.00000000000E+00 0. -1.
         13    1    3    3    0    0  0.16224347508E+02  0.49407031727E+02  0.68240613017E+02  0.85796652039E+02  0.00000000000E+00 0.  1.
         21    1    1    2  502  501  0.23807886918E+02 -0.16712102354E+02 -0.19681150824E+03  0.19894943986E+03  0.00000000000E+00 0. -1.
<scales pt_clust_5="13000.00000" pt_clust_6="13000.00000" pt_clust_7="13000.00000" pt_clust_8="13000.00000" pt_clust_9="29.08797"></scales>
<clustering>
<clus scale="   29.088">  2  9  1 -1</clus>
<clus scale="   83.888">  5  6 -1 -1</clus>
<clus scale="   90.503">  7  8 -1 -1</clus>
<clus scale="  124.752">  2  5  1 -1</clus>
<clus scale="   29.088">  2  5  1 -1</clus>
</clustering>
</event>
<event>
 9    1  0.2951046E-005  0.1717684E+03  0.7546771E-02  0.1177200E+00
         -2   -1    0    0    0  501 -0.00000000000E+00  0.00000000000E+00  0.96924314976E+02  0.96924314976E+02  0.00000000000E+00 0.  1.
          1   -1    0    0  502    0  0.00000000000E+00 -0.00000000000E+00 -0.12602928314E+04  0.12602928314E+04  0.00000000000E+00 0. -1.
         23    2    1    2    0    0 -0.29100321341E+02 -0.13108144820E+03 -0.25581203011E+02  0.16428125751E+03  0.91130449681E+02 0.  0.
        -24    2    1    2    0    0  0.86722610985E+02  0.19116069338E+03 -0.48474723249E+03  0.53461135548E+03  0.82256914902E+02 0.  0.
         13    1    4    4    0    0 -0.14381595982E+02  0.48492403409E+02 -0.10638438347E+03  0.11779635197E+03  0.00000000000E+00 0. -1.
        -14    1    4    4    0    0  0.10110420697E+03  0.14266828997E+03 -0.37836284902E+03  0.41681500350E+03  0.00000000000E+00 0.  1.
        -11    1    3    3    0    0  0.28063290087E+02 -0.16743857339E+02  0.44214329911E+01  0.32976568633E+02  0.00000000000E+00 0.  1.
         11    1    3    3    0    0 -0.57163611428E+02 -0.11433759086E+03 -0.30002636003E+02  0.13130468888E+03  0.00000000000E+00 0. -1.
         21    1    1    2  502  501 -0.57622289645E+02 -0.60079245180E+02 -0.65304008094E+03  0.65832453340E+03  0.00000000000E+00 0. -1.
<scales pt_clust_5="13000.00000" pt_clust_6="13000.00000" pt_clust_7="13000.00000" pt_clust_8="13000.00000" pt_clust_9="83.24568"></scales>
<clustering>
<clus scale="   82.257">  5  6 -1 -1</clus>
<clus scale="   83.246">  2  9  1 -1</clus>
<clus scale="   91.130">  7  8 -1 -1</clus>
<clus scale="  167.230">  2  5  1 -1</clus>
<clus scale="   83.246">  2  5  1 -1</clus>
</clustering>
</event>
<event>
 9    1  0.2951046E-005  0.1108849E+03  0.7546771E-02  0.1261156E+00
          1   -1    0    0  502    0  0.00000000000E+00  0.00000000000E+00  0.53974369985E+03  0.53974369985E+03  0.00000000000E+00 0. -1.
         -2   -1    0    0    0  501 -0.00000000000E+00 -0.00000000000E+00 -0.75329385897E+02  0.75329385897E+02  0.00000000000E+00 0.  1.
         23    2    1    2    0    0  0.63587998400E+02  0.29078165265E+02 -0.97854869895E+01  0.11535413094E+03  0.91224155430E+02 0.  0.
        -24    2    1    2    0    0 -0.75770302411E+01 -0.46157340216E+02  0.25933981936E+03  0.27702243831E+03  0.85418838561E+02 0.  0.
         13    1    4    4    0    0  0.72514923537E+01 -0.62754846306E+02  0.23780551830E+03  0.24605328571E+03  0.00000000000E+00 0. -1.
        -14    1    4    4    0    0 -0.14828522595E+02  0.16597506090E+02  0.21534301063E+02  0.30969152604E+02  0.00000000000E+00 0.  1.
        -13    1    3    3    0    0  0.69569999977E+02  0.54750143424E+02 -0.89486759310E+01  0.88981132284E+02  0.00000000000E+00 0.  1.
         13    1    3    3    0    0 -0.59820015765E+01 -0.25671978159E+02 -0.83681105854E+00  0.26372998657E+02  0.00000000000E+00 0. -1.
         21    1    1    2  502  501 -0.56010968159E+02  0.17079174950E+02  0.21485998158E+03  0.22269651649E+03  0.00000000000E+00 0.  1.
<scales pt_clust_5="13000.00000" pt_clust_6="13000.00000" pt_clust_7="13000.00000" pt_clust_8="13000.00000" pt_clust_9="58.55704"></scales>
<clustering>
<clus scale="   58.557">  1  9  2 -1</clus>
<clus scale="   85.419">  5  6 -1 -1</clus>
<clus scale="   91.224">  7  8 -1 -1</clus>
<clus scale="  106.160">  1  5  2 -1</clus>
<clus scale="   58.557">  1  5  2 -1</clus>
</clustering>
</event>
<event>
 9    1  0.2951046E-005  0.9751004E+02  0.7546771E-02  0.1292762E+00
         -4   -1    0    0    0  501 -0.00000000000E+00  0.00000000000E+00  0.40020100761E+03  0.40020100761E+03  0.00000000000E+00 0.  1.
          3   -1    0    0  502    0  0.00000000000E+00 -0.00000000000E+00 -0.15033786325E+03  0.15033786325E+03  0.00000000000E+00 0. -1.
        -24    2    1    2    0    0  0.28044759263E+02  0.14745841242E+02  0.37058635929E+03  0.38036055012E+03  0.79598681176E+02 0.  0.
         23    2    1    2    0    0 -0.53788803674E+01 -0.66917840456E+00 -0.10012206654E+03  0.13646924455E+03  0.92574544798E+02 0.  0.
         13    1    3    3    0    0  0.29948683405E+02  0.34834928873E+02  0.11294528686E+03  0.12193044628E+03  0.00000000000E+00 0. -1.
        -14    1    3    3    0    0 -0.19039241425E+01 -0.20089087631E+02  0.25764107243E+03  0.25843010384E+03  0.00000000000E+00 0.  1.
        -11    1    4    4    0    0 -0.14512171204E+02  0.28985044160E+02 -0.10033338355E+03  0.10543966878E+03  0.00000000000E+00 0. -1.
         11    1    4    4    0    0  0.91332908368E+01 -0.29654222565E+02  0.21131700513E+00  0.31029575767E+02  0.00000000000E+00 0.  1.
         21    1    1    2  502  501 -0.22665878895E+02 -0.14076662837E+02 -0.20601148377E+02  0.33709076184E+02  0.00000000000E+00 0.  1.
<scales pt_clust_5="13000.00000" pt_clust_6="13000.00000" pt_clust_7="13000.00000" pt_clust_8="13000.00000" pt_clust_9="26.68135"></scales>
<clustering>
<clus scale="   26.681">  2  9  1 -1</clus>
<clus scale="   79.599">  5  6 -1 -1</clus>
<clus scale="   85.288">  1  5  2 -1</clus>
<clus scale="   92.575">  7  8 -1 -1</clus>
<clus scale="   26.681">  2  5  1 -1</clus>
</clustering>
</event>
<event>
 9    1  0.2951046E-005  0.9546081E+02  0.7546771E-02  0.1294230E+00
         -4   -1    0    0    0  501 -0.00000000000E+00  0.00000000000E+00  0.21984006399E+03  0.21984006399E+03  0.00000000000E+00 0.  1.
          3   -1    0    0  502    0  0.00000000000E+00 -0.00000000000E+00 -0.83313400887E+02  0.83313400887E+02  0.00000000000E+00 0. -1.
         23    2    1    2    0    0 -0.18051372000E+02  0.26020451294E+02  0.15416158330E+03  0.18067818393E+03  0.88746247616E+02 0.  0.
        -24    2    1    2    0    0  0.31178950548E+02 -0.41576151799E+02 -0.26986742243E+02  0.10007506416E+03  0.81154364353E+02 0.  0.
         11    1    4    4    0    0  0.13204003831E+02 -0.65289693015E+02 -0.18616575467E+02  0.69164055790E+02  0.00000000000E+00 0. -1.
        -12    1    4    4    0    0  0.17974946717E+02  0.23713541216E+02 -0.83701667760E+01  0.30911008368E+02  0.00000000000E+00 0.  1.
        -11    1    3    3    0    0  0.16727168931E+02  0.46199238835E+02  0.55423810876E+02  0.74067311692E+02  0.00000000000E+00 0.  1.
         11    1    3    3    0    0 -0.34778540931E+02 -0.20178787541E+02  0.98737772423E+02  0.10661087224E+03  0.00000000000E+00 0. -1.
         21    1    1    2  502  501 -0.13127578548E+02  0.15555700504E+02  0.93518220478E+01  0.22400216792E+02  0.00000000000E+00 0.  1.
<scales pt_clust_5="13000.00000" pt_clust_6="13000.00000" pt_clust_7="13000.00000" pt_clust_8="13000.00000" pt_clust_9="20.35468"></scales>
<clustering>
<clus scale="   20.355">  2  9  1 -1</clus>
<clus scale="   81.154">  5  6 -1 -1</clus>
<clus scale="   88.447">  2  5  1 -1</clus>
<clus scale="   88.746">  7  8 -1 -1</clus>
<clus scale="   20.355">  2  5  1 -1</clus>
</clustering>
</event>
<event>
 9    1  0.2951046E-005  0.1833363E+03  0.7546771E-02  0.1197013E+00
         -2   -1    0    0    0  501 -0.00000000000E+00  0.00000000000E+00  0.79011367473E+02  0.79011367473E+02  0.00000000000E+00 0.  1.
          1   -1    0    0  502    0  0.00000000000E+00 -0.00000000000E+00 -0.90453377543E+03  0.90453377543E+03  0.00000000000E+00 0. -1.
        -24    2    1    2    0    0  0.38938231334E+02  0.16205331190E+02 -0.35228304583E+02  0.95327103137E+02  0.77893674520E+02 0.  0.
         23    2    1    2    0    0 -0.92181992833E+02  0.11145050753E+03 -0.17263173560E+03  0.25525855302E+03  0.12015189272E+03 0.  0.
         11    1    3    3    0    0  0.26738626935E+02 -0.75107663661E+01 -0.55343814489E+02  0.61921753722E+02  0.00000000000E+00 0. -1.
        -12    1    3    3    0    0  0.12199604399E+02  0.23716097556E+02  0.20115509906E+02  0.33405349415E+02  0.00000000000E+00 0.  1.
        -11    1    4    4    0    0 -0.11646930784E+03  0.10403892735E+03 -0.12044274722E+03  0.19721980993E+03  0.00000000000E+00 0.  1.
         11    1    4    4    0    0  0.24287315007E+02  0.74115801786E+01 -0.52188988387E+02  0.58038743093E+02  0.00000000000E+00 0. -1.
         21    1    1    2  502  501  0.53243761500E+02 -0.12765583872E+03 -0.61766236777E+03  0.63295948674E+03  0.00000000000E+00 0. -1.
<scales pt_clust_5="13000.00000" pt_clust_6="13000.00000" pt_clust_7="13000.00000" pt_clust_8="13000.00000" pt_clust_9="138.47646"></scales>
<clustering>
<clus scale="   77.894">  5  6 -1 -1</clus>
<clus scale="   88.579">  1  5  2 -1</clus>
<clus scale="  120.152">  7  8 -1 -1</clus>
<clus scale="  138.476">  2  9  1 -1</clus>
<clus scale="  138.476">  2  5  1 -1</clus>
</clustering>
</event>
<event>
 9    1  0.8723844E-005  0.1316631E+03  0.7546771E-02  0.1227105E+00
         -2   -1    0    0    0  501 -0.00000000000E+00  0.00000000000E+00  0.18416363085E+03  0.18416363085E+03  0.00000000000E+00 0.  1.
          1   -1    0    0  502    0  0.00000000000E+00 -0.00000000000E+00 -0.75968707674E+03  0.75968707674E+03  0.00000000000E+00 0. -1.
         23    2    1    2    0    0  0.67383279092E+02 -0.65975456185E+02  0.14445417529E+03  0.19514691432E+03  0.91225228372E+02 0.  0.
        -24    2    1    2    0    0 -0.10294256814E+03  0.54695145055E+02 -0.67629634129E+03  0.69126023253E+03  0.82917046539E+02 0.  0.
         13    1    4    4    0    0 -0.10779064675E+03  0.30674209511E+02 -0.45445468604E+03  0.46806921745E+03  0.00000000000E+00 0. -1.
        -14    1    4    4    0    0  0.48480786080E+01  0.24020935545E+02 -0.22184165524E+03  0.22319101508E+03  0.00000000000E+00 0.  1.
        -13    1    3    3    0    0  0.52839681023E+02 -0.88706049671E+02  0.10425850306E+03  0.14673319528E+03  0.00000000000E+00 0.  1.
         13    1    3    3    0    0  0.14543598069E+02  0.22730593485E+02  0.40195672233E+02  0.48413719040E+02  0.00000000000E+00 0. -1.
         21    1    1    2  502  501  0.35559289049E+02  0.11280311130E+02 -0.43681279890E+02  0.57443560733E+02  0.00000000000E+00 0.  1.
<scales pt_clust_5="13000.00000" pt_clust_6="13000.00000" pt_clust_7="13000.00000" pt_clust_8="13000.00000" pt_clust_9="37.30561"></scales>
<clustering>
<clus scale="   37.306">  2  9  1 -1</clus>
<clus scale="   82.917">  5  6 -1 -1</clus>
<clus scale="   91.225">  7  8 -1 -1</clus>
<clus scale="  126.049">  2  5  1 -1</clus>
<clus scale="   37.306">  2  5  1 -1</clus>
</clustering>
</event>
<event>
 9    1  0.2951046E-005  0.1487268E+03  0.7546771E-02  0.1204236E+00
         -2   -1    0    0    0  501 -0.00000000000E+00  0.00000000000E+00  0.14881990155E+03  0.14881990155E+03  0.00000000000E+00 0.  1.
          1   -1    0    0  502    0  0.00000000000E+00 -0.00000000000E+00 -0.69940151045E+03  0.69940151045E+03  0.00000000000E+00 0. -1.
        -24    2    1    2    0    0 -0.13432740722E+03 -0.27563731214E+01  0.59792850211E+02  0.16711065668E+03  0.79368360926E+02 0.  0.
         23    2    1    2    0    0  0.40683410372E+02 -0.10450110183E+03 -0.19989230483E+03  0.24663525191E+03  0.91084541990E+02 0.  0.
         13    1    3    3    0    0 -0.11806688278E+03  0.32438691103E+01  0.14973587508E+02  0.11905679241E+03  0.00000000000E+00 0. -1.
        -14    1    3    3    0    0 -0.16260524439E+02 -0.60002422317E+01  0.44819262703E+02  0.48053864268E+02  0.00000000000E+00 0.  1.
        -11    1    4    4    0    0  0.63370161048E+02 -0.37274088627E+02 -0.10183607142E+03  0.12560143485E+03  0.00000000000E+00 0.  1.
         11    1    4    4    0    0 -0.22686750677E+02 -0.67227013206E+02 -0.98056233414E+02  0.12103381706E+03  0.00000000000E+00 0. -1.
         21    1    1    2  502  501  0.93643996847E+02  0.10725747495E+03 -0.41048215428E+03  0.43447550341E+03  0.00000000000E+00 0. -1.
<scales pt_clust_5="13000.00000" pt_clust_6="13000.00000" pt_clust_7="13000.00000" pt_clust_8="13000.00000" pt_clust_9="142.38456"></scales>
<clustering>
<clus scale="   79.368">  5  6 -1 -1</clus>
<clus scale="   91.085">  7  8 -1 -1</clus>
<clus scale="  142.385">  2  9  1 -1</clus>
<clus scale="  141.854">  1  5  2 -1</clus>
<clus scale="  142.385">  2  5  1 -1</clus>
</clustering>
</event>
<event>
 9    1  0.2951046E-005  0.1998074E+03  0.7546771E-02  0.1151093E+00
         -2   -1    0    0    0  501 -0.00000000000E+00  0.00000000000E+00  0.10385923261E+03  0.10385923261E+03  0.00000000000E+00 0.  1.
          1   -1    0    0  502    0  0.00000000000E+00 -0.00000000000E+00 -0.64014840761E+03  0.64014840761E+03  0.00000000000E+00 0. -1.
         23    2    1    2    0    0  0.41263778127E+02  0.20241302977E+03 -0.95468132569E+02  0.24624108821E+03  0.94057297320E+02 0.  0.
        -24    2    1    2    0    0 -0.27675154001E+02 -0.12067402514E+03 -0.27758429241E+03  0.31470330573E+03  0.81590420684E+02 0.  0.
         11    1    4    4    0    0 -0.88953266469E+01 -0.62226259448E+02 -0.22580795147E+03  0.23439382489E+03  0.00000000000E+00 0. -1.
        -12    1    4    4    0    0 -0.18779827354E+02 -0.58447765694E+02 -0.51776340942E+02  0.80309480832E+02  0.00000000000E+00 0.  1.
        -11    1    3    3    0    0 -0.89380105120E+01  0.12502535751E+03 -0.19731020004E+02  0.12688790802E+03  0.00000000000E+00 0.  1.
         11    1    3    3    0    0  0.50201788639E+02  0.77387672265E+02 -0.75737112565E+02  0.11935318019E+03  0.00000000000E+00 0. -1.
         21    1    1    2  502  501 -0.13588624126E+02 -0.81739004630E+02 -0.16323675002E+03  0.18306324629E+03  0.00000000000E+00 0. -1.
<scales pt_clust_5="13000.00000" pt_clust_6="13000.00000" pt_clust_7="13000.00000" pt_clust_8="13000.00000" pt_clust_9="82.86082"></scales>
<clustering>
<clus scale="   81.590">  5  6 -1 -1</clus>
<clus scale="   82.861">  2  9  1 -1</clus>
<clus scale="   94.057">  7  8 -1 -1</clus>
<clus scale="  194.250">  2  5  1 -1</clus>
<clus scale="   82.861">  2  5  1 -1</clus>
</clustering>
</event>
<event>
 9    1  0.2951046E-005  0.2706592E+03  0.7546771E-02  0.1101403E+00
         -2   -1    0    0    0  501 -0.00000000000E+00  0.00000000000E+00  0.14202730794E+04  0.14202730794E+04  0.00000000000E+00 0.  1.
          1   -1    0    0  502    0  0.00000000000E+00 -0.00000000000E+00 -0.27515760974E+03  0.27515760974E+03  0.00000000000E+00 0. -1.
        -24    2    1    2    0    0 -0.29734633735E+02  0.25376923981E+03  0.13084727751E+04  0.13354875270E+04  0.78377012547E+02 0.  0.
         23    2    1    2    0    0 -0.24900038007E+01 -0.25618319665E+03 -0.10074065182E+03  0.28947969805E+03  0.89519753639E+02 0.  0.
         13    1    3    3    0    0  0.14621896124E+02  0.16876306294E+03  0.75489870996E+03  0.77367101119E+03  0.00000000000E+00 0. -1.
        -14    1    3    3    0    0 -0.44356529859E+02  0.85006176870E+02  0.55357406512E+03  0.56181651580E+03  0.00000000000E+00 0.  1.
        -11    1    4    4    0    0 -0.81415374629E+01 -0.12597877170E+03 -0.24881795026E+01  0.12626609438E+03  0.00000000000E+00 0.  1.
         11    1    4    4    0    0  0.56515336622E+01 -0.13020442495E+03 -0.98252472320E+02  0.16321360368E+03  0.00000000000E+00 0. -1.
         21    1    1    2  502  501  0.32224637536E+02  0.24139568392E+01 -0.62616653643E+02  0.70463464046E+02  0.00000000000E+00 0. -1.
<scales pt_clust_5="13000.00000" pt_clust_6="13000.00000" pt_clust_7="13000.00000" pt_clust_8="13000.00000" pt_clust_9="32.31493"></scales>
<clustering>
<clus scale="   32.315">  2  9  1 -1</clus>
<clus scale="   78.377">  5  6 -1 -1</clus>
<clus scale="   89.520">  7  8 -1 -1</clus>
<clus scale="  267.181">  1  5  2 -1</clus>
<clus scale="   32.315">  2  5  1 -1</clus>
</clustering>
</event>
<event>
 9    1  0.2951046E-005  0.1271962E+03  0.7546771E-02  0.1238985E+00
          1   -1    0    0  502    0  0.00000000000E+00  0.00000000000E+00  0.50627476729E+03  0.50627476729E+03  0.00000000000E+00 0. -1.
         -2   -1    0    0    0  501 -0.00000000000E+00 -0.00000000000E+00 -0.36889454417E+02  0.36889454417E+02  0.00000000000E+00 0.  1.
        -24    2    1    2    0    0  0.71398005506E+02 -0.40006133020E+01  0.12951370944E+03  0.16831987156E+03  0.80275140190E+02 0.  0.
         23    2    1    2    0    0 -0.80331872698E+02 -0.20195968720E+02  0.28043554945E+03  0.31005289177E+03  0.10309030691E+03 0.  0.
         11    1    3    3    0    0  0.34890096049E+02 -0.25008843352E+02  0.11661977287E+03  0.12426959593E+03  0.00000000000E+00 0. -1.
        -12    1    3    3    0    0  0.36507909458E+02  0.21008230050E+02  0.12893936565E+02  0.44050275629E+02  0.00000000000E+00 0.  1.
        -13    1    4    4    0    0 -0.84979463102E+02 -0.40500569978E+02  0.27155522096E+03  0.28740919149E+03  0.00000000000E+00 0. -1.
         13    1    4    4    0    0  0.46475904040E+01  0.20304601258E+02  0.88803284854E+01  0.22643700290E+02  0.00000000000E+00 0.  1.
         21    1    1    2  502  501  0.89338671918E+01  0.24196582022E+02  0.59436053984E+02  0.64791458370E+02  0.00000000000E+00 0.  1.
<scales pt_clust_5="13000.00000" pt_clust_6="13000.00000" pt_clust_7="13000.00000" pt_clust_8="13000.00000" pt_clust_9="25.79319"></scales>
<clustering>
<clus scale="   25.793">  1  9  2 -1</clus>
<clus scale="   80.275">  5  6 -1 -1</clus>
<clus scale="  103.090">  7  8 -1 -1</clus>
<clus scale="  109.523">  2  5  1 -1</clus>
<clus scale="   25.793">  1  5  2 -1</clus>
</clustering>
</event>
<event>
 9    1  0.2951046E-005  0.8711140E+02  0.7546771E-02  0.1313360E+00
          1   -1    0    0  502    0  0.00000000000E+00  0.00000000000E+00  0.32067150379E+03  0.32067150379E+03  0.00000000000E+00 0. -1.
         -2   -1    0    0    0  501 -0.00000000000E+00 -0.00000000000E+00 -0.38243316845E+03  0.38243316845E+03  0.00000000000E+00 0.  1.
        -24    2    1    2    0    0 -0.24012102367E+02 -0.61181486935E+01 -0.32142431343E+03  0.33155880053E+03  0.77483134578E+02 0.  0.
         23    2    1    2    0    0  0.32458031144E+02  0.43140412915E+02 -0.98072374605E+01  0.99413548480E+02  0.82899051277E+02 0.  0.
         11    1    3    3    0    0  0.37512996438E+01  0.21443581709E+02 -0.27650490427E+02  0.35191605055E+02  0.00000000000E+00 0. -1.
        -12    1    3    3    0    0 -0.27763402011E+02 -0.27561730402E+02 -0.29377382300E+03  0.29636719547E+03  0.00000000000E+00 0.  1.
        -13    1    4    4    0    0 -0.33870683782E+01  0.47473760491E+02  0.20932614935E+02  0.51994274063E+02  0.00000000000E+00 0. -1.
         13    1    4    4    0    0  0.35845099522E+02 -0.43333475760E+01 -0.30739852395E+02  0.47419274417E+02  0.00000000000E+00 0.  1.
         21    1    1    2  502  501 -0.84459287767E+01 -0.37022264221E+02  0.26946988623E+03  0.27213232323E+03  0.00000000000E+00 0. -1.
<scales pt_clust_5="13000.00000" pt_clust_6="13000.00000" pt_clust_7="13000.00000" pt_clust_8="13000.00000" pt_clust_9="37.97343"></scales>
<clustering>
<clus scale="   37.973">  1  9  2 -1</clus>
<clus scale="   77.483">  5  6 -1 -1</clus>
<clus scale="   81.974">  2  5  1 -1</clus>
<clus scale="   82.899">  7  8 -1 -1</clus>
<clus scale="   37.973">  1  5  2 -1</clus>
</clustering>
</event>
<event>
 9    1  0.2951046E-005  0.9986424E+02  0.7546771E-02  0.1285244E+00
         -2   -1    0    0    0  501 -0.00000000000E+00  0.00000000000E+00  0.48190752705E+02  0.48190752705E+02  0.00000000000E+00 0.  1.
          1   -1    0    0  502    0  0.00000000000E+00 -0.00000000000E+00 -0.30587080402E+03  0.30587080402E+03  0.00000000000E+00 0. -1.
        -24    2    1    2    0    0 -0.30492247609E+02  0.22498636512E+02 -0.38090147701E+02  0.99550577003E+02  0.83806277931E+02 0.  0.
         23    2    1    2    0    0  0.88083100046E+01 -0.39119121026E+02 -0.16818238773E+03  0.19629443272E+03  0.92942438201E+02 0.  0.
         11    1    3    3    0    0 -0.29800415457E+02  0.19160002910E+02 -0.64142318733E+02  0.73276241207E+02  0.00000000000E+00 0. -1.
        -12    1    3    3    0    0 -0.69183215248E+00  0.33386336020E+01  0.26052171032E+02  0.26274335797E+02  0.00000000000E+00 0.  1.
        -13    1    4    4    0    0  0.44328880961E+01 -0.65581426986E+02 -0.15033716846E+03  0.16407875634E+03  0.00000000000E+00 0. -1.
         13    1    4    4    0    0  0.43754219085E+01  0.26462305960E+02 -0.17845219271E+02  0.32215676377E+02  0.00000000000E+00 0.  1.
         21    1    1    2  502  501  0.21683937604E+02  0.16620484514E+02 -0.51407515883E+02  0.58216547001E+02  0.00000000000E+00 0. -1.
<scales pt_clust_5="13000.00000" pt_clust_6="13000.00000" pt_clust_7="13000.00000" pt_clust_8="13000.00000" pt_clust_9="27.32094"></scales>
<clustering>
<clus scale="   27.321">  2  9  1 -1</clus>
<clus scale="   83.806">  5  6 -1 -1</clus>
<clus scale="   91.422">  1  5  2 -1</clus>
<clus scale="   92.942">  7  8 -1 -1</clus>
<clus scale="   27.321">  2  5  1 -1</clus>
</clustering>
</event>
<event>
 9    1  0.2951046E-005  0.1163043E+03  0.7546771E-02  0.1259481E+00
          3   -1    0    0  502    0  0.00000000000E+00  0.00000000000E+00  0.56584470463E+02  0.56584470463E+02  0.00000000000E+00 0. -1.
         -4   -1    0    0    0  501 -0.00000000000E+00 -0.00000000000E+00 -0.78283931677E+03  0.78283931677E+03  0.00000000000E+00 0.  1.
        -24    2    1    2    0    0  0.73376659569E+02  0.71274399124E+02 -0.44505516662E+03  0.46339821812E+03  0.78737748826E+02 0.  0.
         23    2    1    2    0    0 -0.17951455908E+02 -0.42717443497E+02 -0.29981227987E+02  0.11718553474E+03  0.10337572622E+03 0.  0.
         13    1    3    3    0    0 -0.15237543749E+02  0.21449019651E+02 -0.69069091430E+02  0.73910639115E+02  0.00000000000E+00 0. -1.
        -14    1    3    3    0    0  0.88614203318E+02  0.49825379473E+02 -0.37598607519E+03  0.38948757901E+03  0.00000000000E+00 0.  1.
        -13    1    4    4    0    0  0.32716275249E+02 -0.31642126484E+02  0.15624800290E+02  0.48121858014E+02  0.00000000000E+00 0. -1.
         13    1    4    4    0    0 -0.50667731157E+02 -0.11075317014E+02 -0.45606028277E+02  0.69063676725E+02  0.00000000000E+00 0.  1.
         21    1    1    2  502  501 -0.55425203661E+02 -0.28556955627E+02 -0.25121845170E+03  0.25884003437E+03  0.00000000000E+00 0.  1.
<scales pt_clust_5="13000.00000" pt_clust_6="13000.00000" pt_clust_7="13000.00000" pt_clust_8="13000.00000" pt_clust_9="62.34944"></scales>
<clustering>
<clus scale="   62.349">  2  9  1 -1</clus>
<clus scale="   78.738">  5  6 -1 -1</clus>
<clus scale="   95.078">  2  5  1 -1</clus>
<clus scale="  103.376">  7  8 -1 -1</clus>
<clus scale="  116.304">  1  5  2 -1</clus>
</clustering>
</event>
<event>
 9    1  0.2951046E-005  0.1398169E+03  0.7546771E-02  0.1224083E+00
          1   -1    0    0  502    0  0.00000000000E+00  0.00000000000E+00  0.47850303577E+02  0.47850303577E+02  0.00000000000E+00 0. -1.
         -2   -1    0    0    0  501 -0.00000000000E+00 -0.00000000000E+00 -0.95403342685E+03  0.95403342685E+03  0.00000000000E+00 0.  1.
        -24    2    1    2    0    0  0.37558944431E+02 -0.10132313795E+03 -0.57689364497E+03  0.59325860850E+03  0.86443312999E+02 0.  0.
         23    2    1    2    0    0 -0.53452323685E+01  0.12976902624E+02 -0.27397078881E+03  0.29952453555E+03  0.12024135212E+03 0.  0.
         13    1    3    3    0    0  0.29572491475E+02  0.16943180788E+01 -0.71183177699E+02  0.77100244832E+02  0.00000000000E+00 0. -1.
        -14    1    3    3    0    0  0.79864529555E+01 -0.10301745603E+03 -0.50571046727E+03  0.51615836367E+03  0.00000000000E+00 0.  1.
        -11    1    4    4    0    0  0.15034816792E+02 -0.43869358502E+02 -0.52876349348E+02  0.70331178376E+02  0.00000000000E+00 0.  1.
         11    1    4    4    0    0 -0.20380049161E+02  0.56846261126E+02 -0.22109443947E+03  0.22919335717E+03  0.00000000000E+00 0. -1.
         21    1    1    2  502  501 -0.32213712062E+02  0.88346235327E+02 -0.55318689485E+02  0.10910058638E+03  0.00000000000E+00 0. -1.
<scales pt_clust_5="13000.00000" pt_clust_6="13000.00000" pt_clust_7="13000.00000" pt_clust_8="13000.00000" pt_clust_9="94.03606"></scales>
<clustering>
<clus scale="   86.443">  5  6 -1 -1</clus>
<clus scale="   94.036">  1  9  2 -1</clus>
<clus scale="  112.086">  2  5  1 -1</clus>
<clus scale="  120.241">  7  8 -1 -1</clus>
<clus scale="   94.036">  1  5  2 -1</clus>
</clustering>
</event>
<event>
 9    1  0.2951046E-005  0.1313471E+03  0.7546771E-02  0.1228090E+00
          1   -1    0    0  502    0  0.00000000000E+00  0.00000000000E+00  0.86299418828E+03  0.86299418828E+03  0.00000000000E+00 0. -1.
         -2   -1    0    0    0  501 -0.00000000000E+00 -0.00000000000E+00 -0.33557847880E+02  0.33557847880E+02  0.00000000000E+00 0.  1.
         23    2    1    2    0    0 -0.80476949629E+02  0.25736224010E+02  0.26195150011E+03  0.29030078833E+03  0.92287955055E+02 0.  0.
        -24    2    1    2    0    0  0.10587370988E+03  0.19742418096E+02  0.24814428983E+03  0.28269029610E+03  0.82092687943E+02 0.  0.
         11    1    4    4    0    0  0.30722938154E+02  0.46186375678E+02  0.11088226622E+03  0.12398369727E+03  0.00000000000E+00 0. -1.
        -12    1    4    4    0    0  0.75150771730E+02 -0.26443957582E+02  0.13726202361E+03  0.15870659883E+03  0.00000000000E+00 0.  1.
        -13    1    3    3    0    0 -0.10101836527E+03  0.26614451604E+02  0.21447329139E+03  0.23856200845E+03  0.00000000000E+00 0. -1.
         13    1    3    3    0    0  0.20541415643E+02 -0.87822759308E+00  0.47478208724E+02  0.51738779884E+02  0.00000000000E+00 0.  1.
         21    1    1    2  502  501 -0.25396760255E+02 -0.45478642106E+02  0.31934055046E+03  0.32356095173E+03  0.00000000000E+00 0. -1.
<scales pt_clust_5="13000.00000" pt_clust_6="13000.00000" pt_clust_7="13000.00000" pt_clust_8="13000.00000" pt_clust_9="52.08937"></scales>
<clustering>
<clus scale="   52.089">  1  9  2 -1</clus>
<clus scale="   82.093">  5  6 -1 -1</clus>
<clus scale="   92.288">  7  8 -1 -1</clus>
<clus scale="  124.395">  1  5  2 -1</clus>
<clus scale="   52.089">  1  5  2 -1</clus>
</clustering>
</event>
<event>
 9    1  0.2951046E-005  0.9916174E+02  0.7546771E-02  0.1286711E+00
          1   -1    0    0  502    0  0.00000000000E+00  0.00000000000E+00  0.40826214597E+03  0.40826214597E+03  0.00000000000E+00 0. -1.
         -2   -1    0    0    0  501 -0.00000000000E+00 -0.00000000000E+00 -0.12656226106E+03  0.12656226106E+03  0.00000000000E+00 0.  1.
        -24    2    1    2    0    0  0.22887812447E+02  0.38210559096E+01 -0.85704184095E+02  0.12556795136E+03  0.88789925159E+02 0.  0.
         23    2    1    2    0    0  0.29726688747E+02  0.41145246063E+02  0.24896465129E+03  0.27207719442E+03  0.97293344223E+02 0.  0.
         13    1    3    3    0    0 -0.18800289182E+02  0.31264429000E+02 -0.57902065529E+02  0.68436573457E+02  0.00000000000E+00 0. -1.
        -14    1    3    3    0    0  0.41688101629E+02 -0.27443373090E+02 -0.27802118566E+02  0.57131377900E+02  0.00000000000E+00 0.  1.
        -11    1    4    4    0    0 -0.17953433788E+02  0.56084891246E+02  0.11734125017E+03  0.13128903154E+03  0.00000000000E+00 0. -1.
         11    1    4    4    0    0  0.47680122535E+02 -0.14939645183E+02  0.13162340112E+03  0.14078816288E+03  0.00000000000E+00 0.  1.
         21    1    1    2  502  501 -0.52614501195E+02 -0.44966301973E+02  0.11843941772E+03  0.13717926126E+03  0.00000000000E+00 0. -1.
<scales pt_clust_5="13000.00000" pt_clust_6="13000.00000" pt_clust_7="13000.00000" pt_clust_8="13000.00000" pt_clust_9="69.21166"></scales>
<clustering>
<clus scale="   69.212">  1  9  2 -1</clus>
<clus scale="   88.790">  5  6 -1 -1</clus>
<clus scale="   90.833">  2  5  1 -1</clus>
<clus scale="   97.293">  7  8 -1 -1</clus>
<clus scale="   69.212">  1  5  2 -1</clus>
</clustering>
</event>
<event>
 9    1  0.2951046E-005  0.9464291E+02  0.7546771E-02  0.1292278E+00
          1   -1    0    0  502    0  0.00000000000E+00  0.00000000000E+00  0.63478357658E+03  0.63478357658E+03  0.00000000000E+00 0. -1.
         -2   -1    0    0    0  501 -0.00000000000E+00 -0.00000000000E+00 -0.12307787467E+03  0.12307787467E+03  0.00000000000E+00 0.  1.
        -24    2    1    2    0    0  0.15054434046E+02 -0.12384316964E+02 -0.97593322320E+02  0.13546756828E+03  0.91907552485E+02 0.  0.
         23    2    1    2    0    0 -0.22083976850E+02  0.35951484531E+02  0.46067465731E+03  0.47174851031E+03  0.92440823343E+02 0.  0.
         13    1    3    3    0    0  0.26801102891E+02  0.29839634021E+02 -0.16663652207E+02  0.43432478395E+02  0.00000000000E+00 0. -1.
        -14    1    3    3    0    0 -0.11746668845E+02 -0.42223950985E+02 -0.80929670114E+02  0.92035089887E+02  0.00000000000E+00 0.  1.
        -11    1    4    4    0    0 -0.55775527982E+02  0.24320152108E+02  0.35623814786E+03  0.36139728459E+03  0.00000000000E+00 0. -1.
         11    1    4    4    0    0  0.33691551132E+02  0.11631332424E+02  0.10443650944E+03  0.11035122571E+03  0.00000000000E+00 0.  1.
         21    1    1    2  502  501  0.70295428043E+01 -0.23567167568E+02  0.14862436693E+03  0.15064537266E+03  0.00000000000E+00 0.  1.
<scales pt_clust_5="13000.00000" pt_clust_6="13000.00000" pt_clust_7="13000.00000" pt_clust_8="13000.00000" pt_clust_9="24.59321"></scales>
<clustering>
<clus scale="   24.593">  1  9  2 -1</clus>
<clus scale="   91.908">  5  6 -1 -1</clus>
<clus scale="   92.441">  7  8 -1 -1</clus>
<clus scale="   94.122">  2  5  1 -1</clus>
<clus scale="   24.593">  1  5  2 -1</clus>
</clustering>
</event>
<event>
 9    1  0.2951046E-005  0.9267538E+02  0.7546771E-02  0.1301442E+00
          3   -1    0    0  502    0  0.00000000000E+00  0.00000000000E+00  0.12156835517E+03  0.12156835517E+03  0.00000000000E+00 0. -1.
         -4   -1    0    0    0  501 -0.00000000000E+00 -0.00000000000E+00 -0.26106757047E+03  0.26106757047E+03  0.00000000000E+00 0.  1.
        -24    2    1    2    0    0 -0.24709139991E+02  0.73662600106E+01 -0.22196242663E+03  0.23758957298E+03  0.80725974579E+02 0.  0.
         23    2    1    2    0    0  0.24474182216E+02  0.13704046866E+02  0.49086574546E+02  0.10557468029E+03  0.89161285443E+02 0.  0.
         11    1    3    3    0    0 -0.62793686042E+01 -0.36516934687E+02 -0.91620264290E+02  0.98829093984E+02  0.00000000000E+00 0. -1.
        -12    1    3    3    0    0 -0.18429771387E+02  0.43883194698E+02 -0.13034216233E+03  0.13876047900E+03  0.00000000000E+00 0.  1.
        -11    1    4    4    0    0  0.52096960726E+02  0.31080607885E+02  0.34941615749E+02  0.70007242586E+02  0.00000000000E+00 0. -1.
         11    1    4    4    0    0 -0.27622778509E+02 -0.17376561019E+02  0.14144958797E+02  0.35567437703E+02  0.00000000000E+00 0.  1.
         21    1    1    2  502  501  0.23495777439E+00 -0.21070306877E+02  0.33376636778E+02  0.39471672369E+02  0.00000000000E+00 0. -1.
<scales pt_clust_5="13000.00000" pt_clust_6="13000.00000" pt_clust_7="13000.00000" pt_clust_8="13000.00000" pt_clust_9="21.07162"></scales>
<clustering>
<clus scale="   21.072">  1  9  2 -1</clus>
<clus scale="   80.726">  5  6 -1 -1</clus>
<clus scale="   84.591">  2  5  1 -1</clus>
<clus scale="   89.161">  7  8 -1 -1</clus>
<clus scale="   21.072">  1  5  2 -1</clus>
</clustering>
</event>
<event>
 9    1  0.2951046E-005  0.8889991E+02  0.7546771E-02  0.1305601E+00
         -2   -1    0    0    0  501 -0.00000000000E+00  0.00000000000E+00  0.38860097590E+03  0.38860097590E+03  0.00000000000E+00 0.  1.
          1   -1    0    0  502    0  0.00000000000E+00 -0.00000000000E+00 -0.54768797316E+02  0.54768797316E+02  0.00000000000E+00 0. -1.
         23    2    1    2    0    0 -0.39933940249E+02  0.58929768876E+02  0.22430727524E+03  0.24807193363E+03  0.78476068245E+02 0.  0.
        -24    2    1    2    0    0  0.39631582912E+02 -0.10975427071E+01  0.22580605093E+02  0.90875769110E+02  0.78591696259E+02 0.  0.
         13    1    4    4    0    0  0.63289246641E+02  0.19980880200E+01  0.10686898186E+02  0.64216282117E+02  0.00000000000E+00 0. -1.
        -14    1    4    4    0    0 -0.23657663729E+02 -0.30956307271E+01  0.11893706908E+02  0.26659486993E+02  0.00000000000E+00 0.  1.
        -13    1    3    3    0    0  0.22450626422E+02  0.81363306665E+01  0.71493769042E+02  0.75376319328E+02  0.00000000000E+00 0. -1.
         13    1    3    3    0    0 -0.62384566671E+02  0.50793438210E+02  0.15281350620E+03  0.17269561431E+03  0.00000000000E+00 0.  1.
         21    1    1    2  502  501  0.30235733681E+00 -0.57832226169E+02  0.86944298247E+02  0.10442207047E+03  0.00000000000E+00 0. -1.
<scales pt_clust_5="13000.00000" pt_clust_6="13000.00000" pt_clust_7="13000.00000" pt_clust_8="13000.00000" pt_clust_9="57.83302"></scales>
<clustering>
<clus scale="   57.833">  1  9  2 -1</clus>
<clus scale="   78.476">  7  8 -1 -1</clus>
<clus scale="   78.592">  5  6 -1 -1</clus>
<clus scale="   88.798">  1  7  2 -1</clus>
<clus scale="   88.900">  2  5  1 -1</clus>
</clustering>
</event>
<event>
 9    1  0.2951046E-005  0.9324344E+02  0.7546771E-02  0.1301129E+00
         -2   -1    0    0    0  501 -0.00000000000E+00  0.00000000000E+00  0.37975011822E+03  0.37975011822E+03  0.00000000000E+00 0.  1.
          1   -1    0    0  502    0  0.00000000000E+00 -0.00000000000E+00 -0.37260964177E+02  0.37260964177E+02  0.00000000000E+00 0. -1.
        -24    2    1    2    0    0 -0.26012987413E+02  0.14681996275E+02  0.19719127282E+03  0.21524761656E+03  0.80962348208E+02 0.  0.
         23    2    1    2    0    0  0.11922547890E+02  0.25667341751E+02  0.83748851603E+02  0.12683087872E+03  0.90946369209E+02 0.  0.
         11    1    3    3    0    0  0.75118037891E+01  0.40080600026E+02  0.67029447067E+02  0.78459087866E+02  0.00000000000E+00 0. -1.
        -12    1    3    3    0    0 -0.33524791202E+02 -0.25398603750E+02  0.13016182576E+03  0.13678852869E+03  0.00000000000E+00 0.  1.
        -11    1    4    4    0    0 -0.11796467013E+02  0.27842897345E+02 -0.86176371320E+01  0.31442761270E+02  0.00000000000E+00 0. -1.
         11    1    4    4    0    0  0.23719014903E+02 -0.21755555943E+01  0.92366488735E+02  0.95388117454E+02  0.00000000000E+00 0.  1.
         21    1    1    2  502  501  0.14090439523E+02 -0.40349338026E+02  0.61549029619E+02  0.74932587117E+02  0.00000000000E+00 0.  1.
<scales pt_clust_5="13000.00000" pt_clust_6="13000.00000" pt_clust_7="13000.00000" pt_clust_8="13000.00000" pt_clust_9="42.73885"></scales>
<clustering>
<clus scale="   42.739">  1  9  2 -1</clus>
<clus scale="   80.962">  5  6 -1 -1</clus>
<clus scale="   83.534">  1  5  2 -1</clus>
<clus scale="   90.946">  7  8 -1 -1</clus>
<clus scale="   93.243">  2  5  1 -1</clus>
</clustering>
</event>
<event>
 9    1  0.2951046E-005  0.1405552E+03  0.7546771E-02  0.1215373E+00
         -2   -1    0    0    0  501 -0.00000000000E+00  0.00000000000E+00  0.13557403484E+03  0.13557403484E+03  0.00000000000E+00 0.  1.
          1   -1    0    0  502    0  0.00000000000E+00 -0.00000000000E+00 -0.34790528276E+03  0.34790528276E+03  0.00000000000E+00 0. -1.
        -24    2    1    2    0    0 -0.84711938720E+02  0.14184255075E+03 -0.96138159844E+02  0.20657666790E+03  0.78332318849E+02 0.  0.
         23    2    1    2    0    0  0.25043859827E+02 -0.79383653676E+02 -0.14055789177E+03  0.18715279108E+03  0.91327361104E+02 0.  0.
         11    1    3    3    0    0 -0.63279972118E+02  0.43923108679E+02 -0.67260887008E+02  0.10226251155E+03  0.00000000000E+00 0. -1.
        -12    1    3    3    0    0 -0.21431966601E+02  0.97919442072E+02 -0.28877272835E+02  0.10431415635E+03  0.00000000000E+00 0.  1.
        -11    1    4    4    0    0  0.26315774242E+02  0.38393588978E+00 -0.92280713418E+00  0.26334748029E+02  0.00000000000E+00 0.  1.
         11    1    4    4    0    0 -0.12719144151E+01 -0.79767589565E+02 -0.13963508463E+03  0.16081804306E+03  0.00000000000E+00 0. -1.
         21    1    1    2  502  501  0.59668078893E+02 -0.62458897075E+02  0.24364803698E+02  0.89749858617E+02  0.00000000000E+00 0. -1.
<scales pt_clust_5="13000.00000" pt_clust_6="13000.00000" pt_clust_7="13000.00000" pt_clust_8="13000.00000" pt_clust_9="86.37936"></scales>
<clustering>
<clus scale="   78.332">  5  6 -1 -1</clus>
<clus scale="   86.379">  1  9  2 -1</clus>
<clus scale="   91.327">  7  8 -1 -1</clus>
<clus scale="  132.480">  1  5  2 -1</clus>
<clus scale="  140.555">  2  5  1 -1</clus>
</clustering>
</event>
<event>
 9    1  0.2951046E-005  0.9304608E+02  0.7546771E-02  0.1302021E+00
          1   -1    0    0  502    0  0.00000000000E+00  0.00000000000E+00  0.18921157519E+03  0.18921157519E+03  0.00000000000E+00 0. -1.
         -2   -1    0    0    0  501 -0.00000000000E+00 -0.00000000000E+00 -0.83672360852E+02  0.83672360852E+02  0.00000000000E+00 0.  1.
        -24    2    1    2    0    0 -0.26324710644E+02  0.15704092390E+01 -0.27684885865E+02  0.88369835786E+02  0.79670059595E+02 0.  0.
         23    2    1    2    0    0  0.35218600947E+01  0.21440660126E+02  0.11305427272E+03  0.14635258499E+03  0.90364291336E+02 0.  0.
         13    1    3    3    0    0  0.16408428984E+02 -0.25743007690E+02  0.12771212891E+00  0.30527942889E+02  0.00000000000E+00 0. -1.
        -14    1    3    3    0    0 -0.42733139627E+02  0.27313416929E+02 -0.27812597994E+02  0.57841892897E+02  0.00000000000E+00 0.  1.
        -13    1    4    4    0    0 -0.37445148964E+02  0.41658337922E+01  0.18729694213E+02  0.42074871330E+02  0.00000000000E+00 0. -1.
         13    1    4    4    0    0  0.40967009059E+02  0.17274826333E+02  0.94324578509E+02  0.10427771366E+03  0.00000000000E+00 0.  1.
         21    1    1    2  502  501  0.22802850549E+02 -0.23011069365E+02  0.20169827481E+02  0.38161515262E+02  0.00000000000E+00 0. -1.
<scales pt_clust_5="13000.00000" pt_clust_6="13000.00000" pt_clust_7="13000.00000" pt_clust_8="13000.00000" pt_clust_9="32.39567"></scales>
<clustering>
<clus scale="   32.396">  1  9  2 -1</clus>
<clus scale="   79.670">  5  6 -1 -1</clus>
<clus scale="   82.699">  2  5  1 -1</clus>
<clus scale="   90.364">  7  8 -1 -1</clus>
<clus scale="   32.396">  1  5  2 -1</clus>
</clustering>
</event>
<event>
 9    1  0.2951046E-005  0.1063724E+03  0.7546771E-02  0.1272237E+00
          1   -1    0    0  502    0  0.00000000000E+00  0.00000000000E+00  0.33518259821E+03  0.33518259821E+03  0.00000000000E+00 0. -1.
         -2   -1    0    0    0  501 -0.00000000000E+00 -0.00000000000E+00 -0.60726030949E+02  0.60726030949E+02  0.00000000000E+00 0.  1.
         23    2    1    2    0    0  0.19405910958E+02 -0.30115593680E+02  0.31522625404E+02  0.10384177698E+03  0.92227438281E+02 0.  0.
        -24    2    1    2    0    0  0.25397936021E+02  0.58771335665E+02  0.19384689392E+03  0.21969230881E+03  0.81172453554E+02 0.  0.
         11    1    4    4    0    0  0.30615062814E+02  0.64751180014E+02  0.19812702447E+03  0.21067585341E+03  0.00000000000E+00 0. -1.
        -12    1    4    4    0    0 -0.52171267931E+01 -0.59798443488E+01 -0.42801305493E+01  0.90164553972E+01  0.00000000000E+00 0.  1.
        -13    1    3    3    0    0  0.55760305513E+02 -0.78499884667E+01  0.17782113299E+02  0.59051143454E+02  0.00000000000E+00 0. -1.
         13    1    3    3    0    0 -0.36354394555E+02 -0.22265605214E+02  0.13740512106E+02  0.44790633529E+02  0.00000000000E+00 0.  1.
         21    1    1    2  502  501 -0.44803846979E+02 -0.28655741985E+02  0.49087047933E+02  0.72374543367E+02  0.00000000000E+00 0. -1.
<scales pt_clust_5="13000.00000" pt_clust_6="13000.00000" pt_clust_7="13000.00000" pt_clust_8="13000.00000" pt_clust_9="53.18398"></scales>
<clustering>
<clus scale="   53.184">  2  9  1 -1</clus>
<clus scale="   81.172">  5  6 -1 -1</clus>
<clus scale="   92.227">  7  8 -1 -1</clus>
<clus scale="   96.944">  1  5  2 -1</clus>
<clus scale="   96.944">  1  5  2 -1</clus>
</clustering>
</event>
<event>
 9    1  0.2951046E-005  0.1485590E+03  0.7546771E-02  0.1203849E+00
          1   -1    0    0  502    0  0.00000000000E+00  0.00000000000E+00  0.25218494155E+03  0.25218494155E+03  0.00000000000E+00 0. -1.
         -2   -1    0    0    0  501 -0.00000000000E+00 -0.00000000000E+00 -0.52168215778E+03  0.52168215778E+03  0.00000000000E+00 0.  1.
        -24    2    1    2    0    0  0.97792556655E+02  0.74765814591E+02 -0.47206246572E+03  0.49445617255E+03  0.80564408130E+02 0.  0.
         23    2    1    2    0    0 -0.77981476407E+02 -0.42561399942E+01  0.11398953433E+03  0.16447724839E+03  0.89218416879E+02 0.  0.
         11    1    3    3    0    0  0.89816004991E+02  0.86581533821E+02 -0.35009076659E+03  0.37165416936E+03  0.00000000000E+00 0. -1.
        -12    1    3    3    0    0  0.79765516634E+01 -0.11815719230E+02 -0.12197169914E+03  0.12280200319E+03  0.00000000000E+00 0.  1.
        -11    1    4    4    0    0 -0.10677545350E+02 -0.37504240115E+02  0.18917231885E+02  0.43340969803E+02  0.00000000000E+00 0.  1.
         11    1    4    4    0    0 -0.67303931057E+02  0.33248100121E+02  0.95072302444E+02  0.12113627859E+03  0.00000000000E+00 0. -1.
         21    1    1    2  502  501 -0.19811080247E+02 -0.70509674597E+02  0.88575715163E+02  0.11493367839E+03  0.00000000000E+00 0. -1.
<scales pt_clust_5="13000.00000" pt_clust_6="13000.00000" pt_clust_7="13000.00000" pt_clust_8="13000.00000" pt_clust_9="73.23997"></scales>
<clustering>
<clus scale="   73.240">  1  9  2 -1</clus>
<clus scale="   80.564">  5  6 -1 -1</clus>
<clus scale="   89.218">  7  8 -1 -1</clus>
<clus scale="  143.529">  2  5  1 -1</clus>
<clus scale="   73.240">  1  5  2 -1</clus>
</clustering>
</event>
<event>
 9    1  0.2951046E-005  0.1025835E+03  0.7546771E-02  0.1284750E+00
         -2   -1    0    0    0  501 -0.00000000000E+00  0.00000000000E+00  0.32960807460E+03  0.32960807460E+03  0.00000000000E+00 0.  1.
          1   -1    0    0  502    0  0.00000000000E+00 -0.00000000000E+00 -0.64780487684E+02  0.64780487684E+02  0.00000000000E+00 0. -1.
        -24    2    1    2    0    0  0.13790631037E+02  0.37946723105E+02  0.19366426171E+03  0.20991425763E+03  0.70199814795E+02 0.  0.
         23    2    1    2    0    0 -0.36358920492E+02 -0.76094128260E+02  0.64801732231E+02  0.13969683181E+03  0.90574018695E+02 0.  0.
         13    1    3    3    0    0 -0.29363624188E+01  0.52252756046E+02  0.91535241262E+02  0.10544037714E+03  0.00000000000E+00 0. -1.
        -14    1    3    3    0    0  0.16726993455E+02 -0.14306032941E+02  0.10212902044E+03  0.10447388049E+03  0.00000000000E+00 0.  1.
        -13    1    4    4    0    0 -0.46153713094E+01 -0.61842247098E+02  0.80422224192E+02  0.10155540026E+03  0.00000000000E+00 0.  1.
         13    1    4    4    0    0 -0.31743549183E+02 -0.14251881162E+02 -0.15620491961E+02  0.38141431548E+02  0.00000000000E+00 0. -1.
         21    1    1    2  502  501  0.22568289456E+02  0.38147405155E+02  0.63615929838E+01  0.44777472844E+02  0.00000000000E+00 0. -1.
<scales pt_clust_5="13000.00000" pt_clust_6="13000.00000" pt_clust_7="13000.00000" pt_clust_8="13000.00000" pt_clust_9="44.32327"></scales>
<clustering>
<clus scale="   44.323">  2  9  1 -1</clus>
<clus scale="   70.200">  5  6 -1 -1</clus>
<clus scale="   85.134">  1  5  2 -1</clus>
<clus scale="   90.574">  7  8 -1 -1</clus>
<clus scale="   44.323">  2  5  1 -1</clus>
</clustering>
</event>
<event>
 9    1  0.2951046E-005  0.9659717E+02  0.7546771E-02  0.1294019E+00
          1   -1    0    0  502    0  0.00000000000E+00  0.00000000000E+00  0.43373962305E+03  0.43373962305E+03  0.00000000000E+00 0. -1.
         -2   -1    0    0    0  501 -0.00000000000E+00 -0.00000000000E+00 -0.13700424410E+03  0.13700424410E+03  0.00000000000E+00 0.  1.
        -24    2    1    2    0    0 -0.36115825534E+02 -0.28545180225E+01 -0.85946688907E+02  0.12409218927E+03  0.81850699305E+02 0.  0.
         23    2    1    2    0    0 -0.47826790639E+02  0.31660591976E+02  0.92787923923E+02  0.14347719447E+03  0.93200383690E+02 0.  0.
         11    1    3    3    0    0  0.26081743021E+02  0.57550836960E+01 -0.26510774923E+02  0.37632426103E+02  0.00000000000E+00 0. -1.
        -12    1    3    3    0    0 -0.62197568555E+02 -0.86096017185E+01 -0.59435913984E+02  0.86459763168E+02  0.00000000000E+00 0.  1.
        -11    1    4    4    0    0 -0.38170534561E+02 -0.12486312186E+02  0.89582633909E+02  0.98173041100E+02  0.00000000000E+00 0. -1.
         11    1    4    4    0    0 -0.96562560780E+01  0.44146904162E+02  0.32052900141E+01  0.45304153371E+02  0.00000000000E+00 0.  1.
         21    1    1    2  502  501  0.83942616173E+02 -0.28806073954E+02  0.28989414393E+03  0.30317448342E+03  0.00000000000E+00 0. -1.
<scales pt_clust_5="13000.00000" pt_clust_6="13000.00000" pt_clust_7="13000.00000" pt_clust_8="13000.00000" pt_clust_9="88.74769"></scales>
<clustering>
<clus scale="   81.851">  5  6 -1 -1</clus>
<clus scale="   88.748">  1  9  2 -1</clus>
<clus scale="   85.699">  2  5  1 -1</clus>
<clus scale="   93.200">  7  8 -1 -1</clus>
<clus scale="   88.748">  1  5  2 -1</clus>
</clustering>
</event>
<event>
 9    1  0.2951046E-005  0.9856970E+02  0.7546771E-02  0.1289033E+00
         -2   -1    0    0    0  501 -0.00000000000E+00  0.00000000000E+00  0.12555059054E+03  0.12555059054E+03  0.00000000000E+00 0.  1.
          1   -1    0    0  502    0  0.00000000000E+00 -0.00000000000E+00 -0.24252084020E+03  0.24252084020E+03  0.00000000000E+00 0. -1.
        -24    2    1    2    0    0  0.21003119396E+02 -0.13871968940E+02  0.88753761941E+02  0.12206484345E+03  0.79931428118E+02 0.  0.
         23    2    1    2    0    0 -0.18484562396E+02  0.35252656542E+02 -0.20069631541E+03  0.22389879092E+03  0.90924302108E+02 0.  0.
         13    1    3    3    0    0  0.32563492479E+02  0.14704973746E+02  0.94174931516E+01  0.36950053756E+02  0.00000000000E+00 0. -1.
        -14    1    3    3    0    0 -0.11560373083E+02 -0.28576942686E+02  0.79336268789E+02  0.85114789693E+02  0.00000000000E+00 0.  1.
        -13    1    4    4    0    0 -0.48180302426E+02  0.17579781011E+02 -0.59585191846E+02  0.78617970780E+02  0.00000000000E+00 0. -1.
         13    1    4    4    0    0  0.29695740031E+02  0.17672875530E+02 -0.14111112356E+03  0.14528082013E+03  0.00000000000E+00 0.  1.
         21    1    1    2  502  501 -0.25185570002E+01 -0.21380687602E+02 -0.50276961807E+01  0.22107796376E+02  0.00000000000E+00 0.  1.
<scales pt_clust_5="13000.00000" pt_clust_6="13000.00000" pt_clust_7="13000.00000" pt_clust_8="13000.00000" pt_clust_9="21.52851"></scales>
<clustering>
<clus scale="   21.529">  1  9  2 -1</clus>
<clus scale="   79.931">  5  6 -1 -1</clus>
<clus scale="   88.531">  1  5  2 -1</clus>
<clus scale="   90.924">  7  8 -1 -1</clus>
<clus scale="   98.570">  2  5  1 -1</clus>
</clustering>
</event>
<event>
 9    1  0.2951046E-005  0.1069236E+03  0.7546771E-02  0.1268105E+00
         -2   -1    0    0    0  501 -0.00000000000E+00  0.00000000000E+00  0.79888441713E+02  0.79888441713E+02  0.00000000000E+00 0.  1.
          1   -1    0    0  502    0  0.00000000000E+00 -0.00000000000E+00 -0.38907171856E+03  0.38907171856E+03  0.00000000000E+00 0. -1.
         23    2    1    2    0    0 -0.74167150016E+02 -0.85329778374E+01  0.12823857357E+02  0.11298505433E+03  0.83830742172E+02 0.  0.
        -24    2    1    2    0    0  0.28418921387E+02  0.41487997840E+02 -0.17627093266E+03  0.19971258898E+03  0.79276651280E+02 0.  0.
         13    1    4    4    0    0  0.54432784317E+02  0.14536028215E+02 -0.10174491538E+03  0.11630241584E+03  0.00000000000E+00 0. -1.
        -14    1    4    4    0    0 -0.26013862930E+02  0.26951969625E+02 -0.74526017284E+02  0.83410173141E+02  0.00000000000E+00 0.  1.
        -11    1    3    3    0    0 -0.62198691653E+02  0.17257828486E+02  0.38089451134E+02  0.74948756995E+02  0.00000000000E+00 0.  1.
         11    1    3    3    0    0 -0.11968458363E+02 -0.25790806324E+02 -0.25265593777E+02  0.38036297340E+02  0.00000000000E+00 0. -1.
         21    1    1    2  502  501  0.45748228630E+02 -0.32955020003E+02 -0.14573620154E+03  0.15626251696E+03  0.00000000000E+00 0. -1.
<scales pt_clust_5="13000.00000" pt_clust_6="13000.00000" pt_clust_7="13000.00000" pt_clust_8="13000.00000" pt_clust_9="56.38203"></scales>
<clustering>
<clus scale="   56.382">  2  9  1 -1</clus>
<clus scale="   79.277">  5  6 -1 -1</clus>
<clus scale="   83.831">  7  8 -1 -1</clus>
<clus scale="  103.392">  2  5  1 -1</clus>
<clus scale="   56.382">  2  5  1 -1</clus>
</clustering>
</event>
<event>
 9    1  0.2951046E-005  0.1302117E+03  0.7546771E-02  0.1229696E+00
         -2   -1    0    0    0  501 -0.00000000000E+00  0.00000000000E+00  0.34539743619E+03  0.34539743619E+03  0.00000000000E+00 0.  1.
          1   -1    0    0  502    0  0.00000000000E+00 -0.00000000000E+00 -0.83346180132E+02  0.83346180132E+02  0.00000000000E+00 0. -1.
        -24    2    1    2    0    0 -0.28469336441E+02 -0.10212532542E+03  0.16578315231E+03  0.21192718227E+03  0.78670145442E+02 0.  0.
         23    2    1    2    0    0  0.13860384828E+02  0.82844497426E+02  0.12794304778E+03  0.17696077104E+03  0.88827754614E+02 0.  0.
         11    1    3    3    0    0  0.26144016446E+02 -0.47637008716E+02  0.59260096112E+02  0.80402445153E+02  0.00000000000E+00 0. -1.
        -12    1    3    3    0    0 -0.54613352888E+02 -0.54488316702E+02  0.10652305620E+03  0.13152473711E+03  0.00000000000E+00 0.  1.
        -13    1    4    4    0    0 -0.22246231514E+02  0.19984372286E+02  0.90616414103E+02  0.95423290957E+02  0.00000000000E+00 0.  1.
         13    1    4    4    0    0  0.36106616342E+02  0.62860125140E+02  0.37326633680E+02  0.81537480083E+02  0.00000000000E+00 0. -1.
         21    1    1    2  502  501  0.14608951613E+02  0.19280827993E+02 -0.31674944033E+02  0.39855663020E+02  0.00000000000E+00 0. -1.
<scales pt_clust_5="13000.00000" pt_clust_6="13000.00000" pt_clust_7="13000.00000" pt_clust_8="13000.00000" pt_clust_9="24.19032"></scales>
<clustering>
<clus scale="   24.190">  2  9  1 -1</clus>
<clus scale="   78.670">  5  6 -1 -1</clus>
<clus scale="   88.828">  7  8 -1 -1</clus>
<clus scale="  123.506">  1  5  2 -1</clus>
<clus scale="   24.190">  2  5  1 -1</clus>
</clustering>
</event>
<event>
 9    1  0.2951046E-005  0.1131312E+03  0.7546771E-02  0.1256186E+00
         -4   -1    0    0    0  501 -0.00000000000E+00  0.00000000000E+00  0.11548920122E+03  0.11548920122E+03  0.00000000000E+00 0.  1.
          3   -1    0    0  502    0  0.00000000000E+00 -0.00000000000E+00 -0.28120949978E+03  0.28120949978E+03  0.00000000000E+00 0. -1.
        -24    2    1    2    0    0  0.47846847375E+02 -0.47489648934E+02  0.58774009340E+02  0.12989703498E+03  0.94203333079E+02 0.  0.
         23    2    1    2    0    0 -0.19028646533E+02  0.28433126582E+02 -0.20586204598E+03  0.22754862883E+03  0.90711986155E+02 0.  0.
         13    1    3    3    0    0 -0.12929042343E+02  0.17902896562E+02  0.27575768828E+02  0.35328414452E+02  0.00000000000E+00 0. -1.
        -14    1    3    3    0    0  0.60775889718E+02 -0.65392545496E+02  0.31198240512E+02  0.94568620528E+02  0.00000000000E+00 0.  1.
        -13    1    4    4    0    0 -0.28837243835E+02 -0.23224778361E+02 -0.44798535935E+02  0.58119581759E+02  0.00000000000E+00 0.  1.
         13    1    4    4    0    0  0.98085973013E+01  0.51657904942E+02 -0.16106351005E+03  0.16942904708E+03  0.00000000000E+00 0. -1.
         21    1    1    2  502  501 -0.28818200842E+02  0.19056522352E+02 -0.18632261924E+02  0.39253037186E+02  0.00000000000E+00 0.  1.
<scales pt_clust_5="13000.00000" pt_clust_6="13000.00000" pt_clust_7="13000.00000" pt_clust_8="13000.00000" pt_clust_9="34.54909"></scales>
<clustering>
<clus scale="   34.549">  2  9  1 -1</clus>
<clus scale="   90.712">  7  8 -1 -1</clus>
<clus scale="   94.203">  5  6 -1 -1</clus>
<clus scale="  110.241">  2  7  1 -1</clus>
<clus scale="   34.549">  2  5  1 -1</clus>
</clustering>
</event>
<event>
 9    1  0.2951046E-005  0.1085981E+03  0.7546771E-02  0.1267972E+00
         -2   -1    0    0    0  501 -0.00000000000E+00  0.00000000000E+00  0.81904093359E+02  0.81904093359E+02  0.00000000000E+00 0.  1.
          1   -1    0    0  502    0  0.00000000000E+00 -0.00000000000E+00 -0.24033713905E+03  0.24033713905E+03  0.00000000000E+00 0. -1.
         23    2    1    2    0    0  0.52531198613E+02 -0.44810974404E+02  0.50475222628E+01  0.11427279750E+03  0.90913390171E+02 0.  0.
        -24    2    1    2    0    0 -0.15774272017E+02  0.32817972019E+02 -0.13181957536E+03  0.15799521998E+03  0.79121691978E+02 0.  0.
         13    1    4    4    0    0 -0.36575238824E+02  0.43710684471E+02 -0.11723219550E+03  0.13035244414E+03  0.00000000000E+00 0. -1.
        -14    1    4    4    0    0  0.20800966807E+02 -0.10892712452E+02 -0.14587379866E+02  0.27642775838E+02  0.00000000000E+00 0.  1.
        -11    1    3    3    0    0  0.73363325808E+02 -0.29228572137E+02  0.23481626823E+02  0.82388553823E+02  0.00000000000E+00 0.  1.
         11    1    3    3    0    0 -0.20832127195E+02 -0.15582402267E+02 -0.18434104560E+02  0.31884243676E+02  0.00000000000E+00 0. -1.
         21    1    1    2  502  501 -0.36756926596E+02  0.11993002385E+02 -0.31660992595E+02  0.49973214937E+02  0.00000000000E+00 0.  1.
<scales pt_clust_5="13000.00000" pt_clust_6="13000.00000" pt_clust_7="13000.00000" pt_clust_8="13000.00000" pt_clust_9="38.66399"></scales>
<clustering>
<clus scale="   38.664">  2  9  1 -1</clus>
<clus scale="   79.122">  5  6 -1 -1</clus>
<clus scale="   90.913">  7  8 -1 -1</clus>
<clus scale="   98.937">  2  5  1 -1</clus>
<clus scale="   38.664">  2  5  1 -1</clus>
</clustering>
</event>
<event>
 9    1  0.2951046E-005  0.1109875E+03  0.7546771E-02  0.1264860E+00
         -2   -1    0    0    0  501 -0.00000000000E+00  0.00000000000E+00  0.73771151970E+02  0.73771151970E+02  0.00000000000E+00 0.  1.
          1   -1    0    0  502    0  0.00000000000E+00 -0.00000000000E+00 -0.30847219281E+03  0.30847219281E+03  0.00000000000E+00 0. -1.
        -24    2    1    2    0    0  0.16803695923E+02  0.22183945153E+02 -0.20706207706E+02  0.81939161940E+02  0.74234679245E+02 0.  0.
         23    2    1    2    0    0 -0.46152773729E+01 -0.97126677055E+02 -0.15605109712E+03  0.20479268010E+03  0.90184282054E+02 0.  0.
         11    1    3    3    0    0 -0.12380738829E+02  0.40703442475E+02 -0.20839471862E+02  0.47374428870E+02  0.00000000000E+00 0. -1.
        -12    1    3    3    0    0  0.29184434752E+02 -0.18519497322E+02  0.13326415566E+00  0.34564733070E+02  0.00000000000E+00 0.  1.
        -13    1    4    4    0    0  0.26585887132E+02 -0.83333383190E+01 -0.73570925753E+01  0.28816327547E+02  0.00000000000E+00 0.  1.
         13    1    4    4    0    0 -0.31201164505E+02 -0.88793338737E+02 -0.14869400455E+03  0.17597635256E+03  0.00000000000E+00 0. -1.
         21    1    1    2  502  501 -0.12188418550E+02  0.74942731903E+02 -0.57943736005E+02  0.95511502731E+02  0.00000000000E+00 0. -1.
<scales pt_clust_5="13000.00000" pt_clust_6="13000.00000" pt_clust_7="13000.00000" pt_clust_8="13000.00000" pt_clust_9="75.92740"></scales>
<clustering>
<clus scale="   74.235">  5  6 -1 -1</clus>
<clus scale="   75.927">  1  9  2 -1</clus>
<clus scale="   90.184">  7  8 -1 -1</clus>
<clus scale="   98.467">  1  5  2 -1</clus>
<clus scale="  110.988">  2  5  1 -1</clus>
</clustering>
</event>
<event>
 9    1  0.2951046E-005  0.1264307E+03  0.7546771E-02  0.1236300E+00
         -2   -1    0    0    0  501 -0.00000000000E+00  0.00000000000E+00  0.17341688327E+03  0.17341688327E+03  0.00000000000E+00 0.  1.
          1   -1    0    0  502    0  0.00000000000E+00 -0.00000000000E+00 -0.13279899977E+03  0.13279899977E+03  0.00000000000E+00 0. -1.
        -24    2    1    2    0    0 -0.93352685123E+02  0.23524652448E+02  0.88709205745E+02  0.15293352294E+03  0.79064569587E+02 0.  0.
         23    2    1    2    0    0  0.66248674786E+02 -0.13615230521E+02 -0.25285000785E+02  0.11649985994E+03  0.91425514432E+02 0.  0.
         11    1    3    3    0    0 -0.14255787844E+02 -0.16546440054E+02 -0.65423831972E+01  0.22799450507E+02  0.00000000000E+00 0. -1.
        -12    1    3    3    0    0 -0.79096897278E+02  0.40071092501E+02  0.95251588942E+02  0.13013407244E+03  0.00000000000E+00 0.  1.
        -13    1    4    4    0    0  0.22893965492E+02  0.28670314950E+02 -0.39895140280E+02  0.54200948638E+02  0.00000000000E+00 0.  1.
         13    1    4    4    0    0  0.43354709294E+02 -0.42285545471E+02  0.14610139495E+02  0.62298911306E+02  0.00000000000E+00 0. -1.
         21    1    1    2  502  501  0.27104010336E+02 -0.99094219264E+01 -0.22806321463E+02  0.36782500159E+02  0.00000000000E+00 0. -1.
<scales pt_clust_5="13000.00000" pt_clust_6="13000.00000" pt_clust_7="13000.00000" pt_clust_8="13000.00000" pt_clust_9="28.85869"></scales>
<clustering>
<clus scale="   28.859">  2  9  1 -1</clus>
<clus scale="   79.065">  5  6 -1 -1</clus>
<clus scale="   91.426">  7  8 -1 -1</clus>
<clus scale="  117.802">  1  5  2 -1</clus>
<clus scale="   28.859">  2  5  1 -1</clus>
</clustering>
</event>
<event>
 9    1  0.2951046E-005  0.9421656E+02  0.7546771E-02  0.1299832E+00
         -2   -1    0    0    0  501 -0.00000000000E+00  0.00000000000E+00  0.13471188230E+03  0.13471188230E+03  0.00000000000E+00 0.  1.
          1   -1    0    0  502    0  0.00000000000E+00 -0.00000000000E+00 -0.18144852551E+03  0.18144852551E+03  0.00000000000E+00 0. -1.
        -24    2    1    2    0    0  0.13363056709E+00 -0.12481786975E+00  0.74787414352E+02  0.11155278726E+03  0.82769762374E+02 0.  0.
         23    2    1    2    0    0 -0.74572265474E+01 -0.20218233764E+02 -0.17157367723E+02  0.98024879192E+02  0.94075047006E+02 0.  0.
         13    1    3    3    0    0 -0.26824785615E+02 -0.17337633455E+02  0.19470113181E+01  0.31999273588E+02  0.00000000000E+00 0. -1.
        -14    1    3    3    0    0  0.26958416182E+02  0.17212815586E+02  0.72840403034E+02  0.79553513672E+02  0.00000000000E+00 0.  1.
        -11    1    4    4    0    0 -0.41501046698E+02 -0.87163329297E+01 -0.37606520870E+02  0.56679464965E+02  0.00000000000E+00 0.  1.
         11    1    4    4    0    0  0.34043820150E+02 -0.11501900834E+02  0.20449153146E+02  0.41345414227E+02  0.00000000000E+00 0. -1.
         21    1    1    2  502  501  0.73235959804E+01  0.20343051634E+02 -0.10436668984E+03  0.10658274136E+03  0.00000000000E+00 0. -1.
<scales pt_clust_5="13000.00000" pt_clust_6="13000.00000" pt_clust_7="13000.00000" pt_clust_8="13000.00000" pt_clust_9="21.62117"></scales>
<clustering>
<clus scale="   21.621">  2  9  1 -1</clus>
<clus scale="   82.770">  5  6 -1 -1</clus>
<clus scale="   82.931">  1  5  2 -1</clus>
<clus scale="   94.075">  7  8 -1 -1</clus>
<clus scale="   21.621">  2  5  1 -1</clus>
</clustering>
</event>
<event>
 9    1  0.2951046E-005  0.1099203E+03  0.7546771E-02  0.1264257E+00
          1   -1    0    0  502    0  0.00000000000E+00  0.00000000000E+00  0.25506075358E+03  0.25506075358E+03  0.00000000000E+00 0. -1.
         -2   -1    0    0    0  501 -0.00000000000E+00 -0.00000000000E+00 -0.66489149254E+02  0.66489149254E+02  0.00000000000E+00 0.  1.
        -24    2    1    2    0    0  0.51516924705E+02  0.25453378339E+01  0.13063346577E+02  0.97146604934E+02  0.81279391919E+02 0.  0.
         23    2    1    2    0    0 -0.65909424471E+02  0.16679827528E+02  0.15954082848E+03  0.19556391805E+03  0.90386399479E+02 0.  0.
         13    1    3    3    0    0 -0.30667684744E+01  0.30420306416E+02  0.18301943256E+02  0.35633709297E+02  0.00000000000E+00 0. -1.
        -14    1    3    3    0    0  0.54583693179E+02 -0.27874968582E+02 -0.52385966783E+01  0.61512895637E+02  0.00000000000E+00 0.  1.
        -13    1    4    4    0    0 -0.47139005156E+02  0.53596964551E+02  0.93877020255E+02  0.11793055307E+03  0.00000000000E+00 0. -1.
         13    1    4    4    0    0 -0.18770419316E+02 -0.36917137022E+02  0.65663808221E+02  0.77633364975E+02  0.00000000000E+00 0.  1.
         21    1    1    2  502  501  0.14392499767E+02 -0.19225165362E+02  0.15967429274E+02  0.28839379854E+02  0.00000000000E+00 0. -1.
<scales pt_clust_5="13000.00000" pt_clust_6="13000.00000" pt_clust_7="13000.00000" pt_clust_8="13000.00000" pt_clust_9="24.01564"></scales>
<clustering>
<clus scale="   24.016">  2  9  1 -1</clus>
<clus scale="   81.279">  5  6 -1 -1</clus>
<clus scale="   90.386">  7  8 -1 -1</clus>
<clus scale="  102.563">  2  5  1 -1</clus>
<clus scale="  109.920">  1  5  2 -1</clus>
</clustering>
</event>
<event>
 9    1  0.2951046E-005  0.9701425E+02  0.7546771E-02  0.1293004E+00
         -2   -1    0    0    0  501 -0.00000000000E+00  0.00000000000E+00  0.18204570279E+03  0.18204570279E+03  0.00000000000E+00 0.  1.
          1   -1    0    0  502    0  0.00000000000E+00 -0.00000000000E+00 -0.12731880016E+03  0.12731880016E+03  0.00000000000E+00 0. -1.
        -24    2    1    2    0    0  0.49230520917E+01  0.26254785723E+02  0.11019857860E+03  0.13874662443E+03  0.79958419515E+02 0.  0.
         23    2    1    2    0    0  0.14335106895E+02 -0.55594055580E+02 -0.37161275658E+01  0.10808543707E+03  0.91501135494E+02 0.  0.
         11    1    3    3    0    0 -0.17832970855E+02  0.10526821261E+02 -0.41326685894E+01  0.21116528243E+02  0.00000000000E+00 0. -1.
        -12    1    3    3    0    0  0.22756022946E+02  0.15727964462E+02  0.11433124718E+03  0.11763009619E+03  0.00000000000E+00 0.  1.
        -13    1    4    4    0    0  0.22339937017E+02 -0.18853576835E+02  0.40560089359E+02  0.49996509820E+02  0.00000000000E+00 0.  1.
         13    1    4    4    0    0 -0.80048301218E+01 -0.36740478745E+02 -0.44276216925E+02  0.58088927248E+02  0.00000000000E+00 0. -1.
         21    1    1    2  502  501 -0.19258158987E+02  0.29339269857E+02 -0.51755548398E+02  0.62532441447E+02  0.00000000000E+00 0.  1.
<scales pt_clust_5="13000.00000" pt_clust_6="13000.00000" pt_clust_7="13000.00000" pt_clust_8="13000.00000" pt_clust_9="35.09515"></scales>
<clustering>
<clus scale="   35.095">  2  9  1 -1</clus>
<clus scale="   79.958">  5  6 -1 -1</clus>
<clus scale="   86.213">  1  5  2 -1</clus>
<clus scale="   91.501">  7  8 -1 -1</clus>
<clus scale="   35.095">  2  5  1 -1</clus>
</clustering>
</event>
<event>
 9    1  0.2951046E-005  0.3098265E+03  0.7546771E-02  0.1080578E+00
          1   -1    0    0  502    0  0.00000000000E+00  0.00000000000E+00  0.10299285230E+03  0.10299285230E+03  0.00000000000E+00 0. -1.
         -2   -1    0    0    0  501 -0.00000000000E+00 -0.00000000000E+00 -0.11839343137E+04  0.11839343137E+04  0.00000000000E+00 0.  1.
        -24    2    1    2    0    0  0.30733164690E+03 -0.29703172932E+02 -0.62790574902E+03  0.70449772665E+03  0.81953630441E+02 0.  0.
         23    2    1    2    0    0 -0.27776920852E+03  0.66686860126E+02 -0.44278101178E+03  0.53398473102E+03  0.86497387529E+02 0.  0.
         13    1    3    3    0    0  0.22716887484E+03 -0.56119578750E+02 -0.43522911774E+03  0.49414521120E+03  0.00000000000E+00 0. -1.
        -14    1    3    3    0    0  0.80162772060E+02  0.26416405818E+02 -0.19267663127E+03  0.21035251546E+03  0.00000000000E+00 0.  1.
        -11    1    4    4    0    0 -0.25188710689E+03  0.77682118331E+02 -0.42680832006E+03  0.50164426459E+03  0.00000000000E+00 0. -1.
         11    1    4    4    0    0 -0.25882101630E+02 -0.10995258205E+02 -0.15972691724E+02  0.32340466427E+02  0.00000000000E+00 0.  1.
         21    1    1    2  502  501 -0.29562438378E+02 -0.36983687194E+02 -0.10254700613E+02  0.48444708338E+02  0.00000000000E+00 0.  1.
<scales pt_clust_5="13000.00000" pt_clust_6="13000.00000" pt_clust_7="13000.00000" pt_clust_8="13000.00000" pt_clust_9="47.34692"></scales>
<clustering>
<clus scale="   47.347">  1  9  2 -1</clus>
<clus scale="   81.954">  5  6 -1 -1</clus>
<clus scale="   86.497">  7  8 -1 -1</clus>
<clus scale="  308.589">  2  5  1 -1</clus>
<clus scale="   47.347">  1  5  2 -1</clus>
</clustering>
</event>
<event>
 9    1  0.2951046E-005  0.1399768E+03  0.7546771E-02  0.1215702E+00
         -2   -1    0    0    0  501 -0.00000000000E+00  0.00000000000E+00  0.30476552732E+03  0.30476552732E+03  0.00000000000E+00 0.  1.
          1   -1    0    0  502    0  0.00000000000E+00 -0.00000000000E+00 -0.56372581476E+03  0.56372581476E+03  0.00000000000E+00 0. -1.
         23    2    1    2    0    0  0.49955840060E+02 -0.97724243547E+02  0.19264487531E+03  0.23980901112E+03  0.91382165084E+02 0.  0.
        -24    2    1    2    0    0 -0.13215723216E+03  0.23529630825E+02  0.71538182535E+01  0.15674831854E+03  0.80620597315E+02 0.  0.
         11    1    4    4    0    0 -0.72887824267E+02  0.39297622321E+02  0.34361866576E+02  0.89653086511E+02  0.00000000000E+00 0. -1.
        -12    1    4    4    0    0 -0.59269407894E+02 -0.15767991496E+02 -0.27208048323E+02  0.67095232032E+02  0.00000000000E+00 0.  1.
        -11    1    3    3    0    0  0.64541888224E+02 -0.40983971592E+02  0.69000454952E+02  0.10298739751E+03  0.00000000000E+00 0. -1.
         11    1    3    3    0    0 -0.14586048164E+02 -0.56740271955E+02  0.12364442036E+03  0.13682161360E+03  0.00000000000E+00 0.  1.
         21    1    1    2  502  501  0.82201392101E+02  0.74194612722E+02 -0.45875898101E+03  0.47193401242E+03  0.00000000000E+00 0. -1.
<scales pt_clust_5="13000.00000" pt_clust_6="13000.00000" pt_clust_7="13000.00000" pt_clust_8="13000.00000" pt_clust_9="110.73351"></scales>
<clustering>
<clus scale="   80.621">  5  6 -1 -1</clus>
<clus scale="   91.382">  7  8 -1 -1</clus>
<clus scale="  110.734">  2  9  1 -1</clus>
<clus scale="  133.201">  2  5  1 -1</clus>
<clus scale="  110.734">  2  5  1 -1</clus>
</clustering>
</event>
<event>
 9    1  0.2951046E-005  0.1072755E+03  0.7546771E-02  0.1271273E+00
         -4   -1    0    0    0  501 -0.00000000000E+00  0.00000000000E+00  0.29505140410E+03  0.29505140410E+03  0.00000000000E+00 0.  1.
          3   -1    0    0  502    0  0.00000000000E+00 -0.00000000000E+00 -0.11026611540E+03  0.11026611540E+03  0.00000000000E+00 0. -1.
         23    2    1    2    0    0 -0.12136462298E+02 -0.75669844983E+02  0.16903656664E+03  0.20798109971E+03  0.93859244706E+02 0.  0.
        -24    2    1    2    0    0 -0.49184431608E+02  0.25839387104E+02 -0.33958948190E+02  0.10398665256E+03  0.81075467988E+02 0.  0.
         11    1    4    4    0    0 -0.38235035460E+02 -0.18785359798E+02 -0.39007748974E+02  0.57761684181E+02  0.00000000000E+00 0. -1.
        -12    1    4    4    0    0 -0.10949396148E+02  0.44624746902E+02  0.50488007843E+01  0.46224968377E+02  0.00000000000E+00 0.  1.
        -13    1    3    3    0    0 -0.46876509797E+02 -0.56294063586E+02  0.70291037685E+02  0.10152467062E+03  0.00000000000E+00 0. -1.
         13    1    3    3    0    0  0.34740047499E+02 -0.19375781397E+02  0.98745528958E+02  0.10645642909E+03  0.00000000000E+00 0.  1.
         21    1    1    2  502  501  0.61320893905E+02  0.49830457880E+02  0.49707670246E+02  0.93349767237E+02  0.00000000000E+00 0.  1.
<scales pt_clust_5="13000.00000" pt_clust_6="13000.00000" pt_clust_7="13000.00000" pt_clust_8="13000.00000" pt_clust_9="79.01472"></scales>
<clustering>
<clus scale="   79.015">  1  9  2 -1</clus>
<clus scale="   81.075">  5  6 -1 -1</clus>
<clus scale="   93.859">  7  8 -1 -1</clus>
<clus scale="   96.290">  2  5  1 -1</clus>
<clus scale="   96.290">  2  5  1 -1</clus>
</clustering>
</event>
<event>
 9    1  0.2951046E-005  0.1002321E+03  0.7546771E-02  0.1285659E+00
          1   -1    0    0  502    0  0.00000000000E+00  0.00000000000E+00  0.43593015356E+03  0.43593015356E+03  0.00000000000E+00 0. -1.
         -2   -1    0    0    0  501 -0.00000000000E+00 -0.00000000000E+00 -0.42982356511E+02  0.42982356511E+02  0.00000000000E+00 0.  1.
         23    2    1    2    0    0  0.28958723537E+02 -0.27090136642E+02  0.49693953447E+02  0.11034568350E+03  0.90189787033E+02 0.  0.
        -24    2    1    2    0    0 -0.59724241214E+02  0.14419363834E+02  0.23237817609E+03  0.25280638770E+03  0.78336134054E+02 0.  0.
         11    1    4    4    0    0 -0.38621780709E+02 -0.21485146413E+01  0.21979513775E+03  0.22317293886E+03  0.00000000000E+00 0. -1.
        -12    1    4    4    0    0 -0.21102460505E+02  0.16567878475E+02  0.12583038340E+02  0.29633448844E+02  0.00000000000E+00 0.  1.
        -13    1    3    3    0    0 -0.11304852217E+02 -0.50097607459E+02  0.19122175340E+02  0.54801711164E+02  0.00000000000E+00 0. -1.
         13    1    3    3    0    0  0.40263575754E+02  0.23007470817E+02  0.30571778107E+02  0.55543972332E+02  0.00000000000E+00 0.  1.
         21    1    1    2  502  501  0.30765517677E+02  0.12670772808E+02  0.11087566752E+03  0.11576043888E+03  0.00000000000E+00 0. -1.
<scales pt_clust_5="13000.00000" pt_clust_6="13000.00000" pt_clust_7="13000.00000" pt_clust_8="13000.00000" pt_clust_9="33.27259"></scales>
<clustering>
<clus scale="   33.273">  1  9  2 -1</clus>
<clus scale="   78.336">  5  6 -1 -1</clus>
<clus scale="   89.715">  1  5  2 -1</clus>
<clus scale="   90.190">  7  8 -1 -1</clus>
<clus scale="   33.273">  1  5  2 -1</clus>
</clustering>
</event>
<event>
 9    1  0.2951046E-005  0.1132802E+03  0.7546771E-02  0.1265269E+00
         -2   -1    0    0    0  501 -0.00000000000E+00  0.00000000000E+00  0.11122159201E+03  0.11122159201E+03  0.00000000000E+00 0.  1.
          1   -1    0    0  502    0  0.00000000000E+00 -0.00000000000E+00 -0.35460371758E+03  0.35460371758E+03  0.00000000000E+00 0. -1.
        -24    2    1    2    0    0 -0.26734444261E+02 -0.40197373816E+02  0.56279538902E+02  0.10933264453E+03  0.80347254402E+02 0.  0.
         23    2    1    2    0    0  0.40619321949E+02 -0.21128950565E+02 -0.25541058215E+03  0.27960400414E+03  0.10415119678E+03 0.  0.
         13    1    3    3    0    0  0.20434172155E+02 -0.42061823333E+01 -0.75497891060E+01  0.22186632846E+02  0.00000000000E+00 0. -1.
        -14    1    3    3    0    0 -0.47168616416E+02 -0.35991191482E+02  0.63829328008E+02  0.87146011687E+02  0.00000000000E+00 0.  1.
        -13    1    4    4    0    0 -0.19064758063E+02  0.21756175217E+02 -0.26666436893E+02  0.39343296972E+02  0.00000000000E+00 0.  1.
         13    1    4    4    0    0  0.59684080012E+02 -0.42885125783E+02 -0.22874414526E+03  0.24026070717E+03  0.00000000000E+00 0. -1.
         21    1    1    2  502  501 -0.13884877688E+02  0.61326324381E+02 -0.44251082321E+02  0.76888660914E+02  0.00000000000E+00 0.  1.
<scales pt_clust_5="13000.00000" pt_clust_6="13000.00000" pt_clust_7="13000.00000" pt_clust_8="13000.00000" pt_clust_9="62.87852"></scales>
<clustering>
<clus scale="   62.879">  2  9  1 -1</clus>
<clus scale="   80.347">  5  6 -1 -1</clus>
<clus scale="   91.873">  1  5  2 -1</clus>
<clus scale="  104.151">  7  8 -1 -1</clus>
<clus scale="   62.879">  2  5  1 -1</clus>
</clustering>
</event>
<event>
 9    1  0.2951046E-005  0.1021972E+03  0.7546771E-02  0.1281184E+00
          1   -1    0    0  502    0  0.00000000000E+00  0.00000000000E+00  0.24770430480E+03  0.24770430480E+03  0.00000000000E+00 0. -1.
         -2   -1    0    0    0  501 -0.00000000000E+00 -0.00000000000E+00 -0.83689680517E+02  0.83689680517E+02  0.00000000000E+00 0.  1.
         23    2    1    2    0    0  0.38047231550E+02 -0.50879543371E+02 -0.75739991932E+01  0.11168077049E+03  0.91536382224E+02 0.  0.
        -24    2    1    2    0    0 -0.20079076189E+02  0.37114211866E+02  0.17478562803E+03  0.19685364798E+03  0.80129326297E+02 0.  0.
         11    1    4    4    0    0  0.27992146525E+02  0.83688337032E+01  0.94852370785E+02  0.99250037220E+02  0.00000000000E+00 0. -1.
        -12    1    4    4    0    0 -0.48071222715E+02  0.28745378163E+02  0.79933257246E+02  0.97603610757E+02  0.00000000000E+00 0.  1.
        -11    1    3    3    0    0 -0.27794234334E+02 -0.13852588097E+02  0.12569643957E+02  0.33502382131E+02  0.00000000000E+00 0.  1.
         11    1    3    3    0    0  0.65841465885E+02 -0.37026955274E+02 -0.20143643150E+02  0.78178388357E+02  0.00000000000E+00 0. -1.
         21    1    1    2  502  501 -0.17968155361E+02  0.13765331505E+02 -0.31970045545E+01  0.22859566851E+02  0.00000000000E+00 0.  1.
<scales pt_clust_5="13000.00000" pt_clust_6="13000.00000" pt_clust_7="13000.00000" pt_clust_8="13000.00000" pt_clust_9="22.63491"></scales>
<clustering>
<clus scale="   22.635">  2  9  1 -1</clus>
<clus scale="   80.129">  5  6 -1 -1</clus>
<clus scale="   91.536">  7  8 -1 -1</clus>
<clus scale="   92.120">  1  5  2 -1</clus>
<clus scale="   92.120">  1  5  2 -1</clus>
</clustering>
</event>
<event>
 9    1  0.2951046E-005  0.9276091E+02  0.7546771E-02  0.1301629E+00
          1   -1    0    0  502    0  0.00000000000E+00  0.00000000000E+00  0.40327078419E+03  0.40327078419E+03  0.00000000000E+00 0. -1.
         -2   -1    0    0    0  501 -0.00000000000E+00 -0.00000000000E+00 -0.57728490651E+02  0.57728490651E+02  0.00000000000E+00 0.  1.
         23    2    1    2    0    0 -0.15609035944E+02 -0.23780640121E+02 -0.70908044570E+01  0.93855773783E+02  0.89159777461E+02 0.  0.
        -24    2    1    2    0    0  0.72981243302E+01  0.52215127373E+01  0.25552040114E+03  0.26792460996E+03  0.80077427569E+02 0.  0.
         13    1    4    4    0    0 -0.17736872819E+02  0.33086249578E+02  0.17685911129E+03  0.18079945192E+03  0.00000000000E+00 0. -1.
        -14    1    4    4    0    0  0.25034997149E+02 -0.27864736841E+02  0.78661289855E+02  0.87125158038E+02  0.00000000000E+00 0.  1.
        -11    1    3    3    0    0  0.18889985990E+02 -0.28510455886E+02 -0.35219149169E+02  0.49092424402E+02  0.00000000000E+00 0.  1.
         11    1    3    3    0    0 -0.34499021934E+02  0.47298157644E+01  0.28128344712E+02  0.44763349381E+02  0.00000000000E+00 0. -1.
         21    1    1    2  502  501  0.83109116136E+01  0.18559127384E+02  0.97112696853E+02  0.99218891100E+02  0.00000000000E+00 0. -1.
<scales pt_clust_5="13000.00000" pt_clust_6="13000.00000" pt_clust_7="13000.00000" pt_clust_8="13000.00000" pt_clust_9="20.33501"></scales>
<clustering>
<clus scale="   20.335">  1  9  2 -1</clus>
<clus scale="   80.077">  5  6 -1 -1</clus>
<clus scale="   84.069">  1  5  2 -1</clus>
<clus scale="   89.160">  7  8 -1 -1</clus>
<clus scale="   20.335">  1  5  2 -1</clus>
</clustering>
</event>
<event>
 9    1  0.2951046E-005  0.1119245E+03  0.7546771E-02  0.1266797E+00
          1   -1    0    0  502    0  0.00000000000E+00  0.00000000000E+00  0.73558386690E+02  0.73558386690E+02  0.00000000000E+00 0. -1.
         -2   -1    0    0    0  501 -0.00000000000E+00 -0.00000000000E+00 -0.20374896207E+03  0.20374896207E+03  0.00000000000E+00 0.  1.
         23    2    1    2    0    0 -0.35172284371E+02 -0.27391236601E+02 -0.11581196930E+03  0.16054560058E+03  0.10185827508E+03 0.  0.
        -24    2    1    2    0    0  0.50279780940E+02  0.13909856132E+02 -0.13979516250E+02  0.96509752105E+02  0.79982278710E+02 0.  0.
         11    1    4    4    0    0  0.50259826812E+02  0.48113800465E+01  0.25100405827E+02  0.56384660519E+02  0.00000000000E+00 0. -1.
        -12    1    4    4    0    0  0.19954127920E-01  0.90984760852E+01 -0.39079922077E+02  0.40125091586E+02  0.00000000000E+00 0.  1.
        -13    1    3    3    0    0 -0.13082493690E+02 -0.59109616365E+02 -0.10363190191E+03  0.12001945459E+03  0.00000000000E+00 0.  1.
         13    1    3    3    0    0 -0.22089790680E+02  0.31718379764E+02 -0.12180067394E+02  0.40526145991E+02  0.00000000000E+00 0. -1.
         21    1    1    2  502  501 -0.15107496570E+02  0.13481380470E+02 -0.39908982316E+00  0.20251996066E+02  0.00000000000E+00 0.  1.
<scales pt_clust_5="13000.00000" pt_clust_6="13000.00000" pt_clust_7="13000.00000" pt_clust_8="13000.00000" pt_clust_9="20.24806"></scales>
<clustering>
<clus scale="   20.248">  1  9  2 -1</clus>
<clus scale="   79.982">  5  6 -1 -1</clus>
<clus scale="   92.462">  1  5  2 -1</clus>
<clus scale="  101.858">  7  8 -1 -1</clus>
<clus scale="   20.248">  1  5  2 -1</clus>
</clustering>
</event>
<event>
 9    1  0.2951046E-005  0.4583945E+03  0.7546771E-02  0.1025248E+00
          1   -1    0    0  502    0  0.00000000000E+00  0.00000000000E+00  0.12993748272E+04  0.12993748272E+04  0.00000000000E+00 0. -1.
         -2   -1    0    0    0  501 -0.00000000000E+00 -0.00000000000E+00 -0.16119156818E+03  0.16119156818E+03  0.00000000000E+00 0.  1.
        -24    2    1    2    0    0  0.13398403500E+02  0.17672224255E+03  0.23721423737E+03  0.30676914547E+03  0.80165116941E+02 0.  0.
         23    2    1    2    0    0 -0.85049724043E+02  0.19886091543E+03  0.66300250451E+03  0.70343663490E+03  0.92041616027E+02 0.  0.
         11    1    3    3    0    0  0.27279581436E+02  0.17732542546E+03  0.22787979004E+03  0.29003048252E+03  0.00000000000E+00 0. -1.
        -12    1    3    3    0    0 -0.13881177936E+02 -0.60318291659E+00  0.93344473239E+01  0.16738662950E+02  0.00000000000E+00 0.  1.
        -11    1    4    4    0    0 -0.27453178885E+02  0.34226803439E+02  0.52056750415E+02  0.68081248287E+02  0.00000000000E+00 0.  1.
         11    1    4    4    0    0 -0.57596545158E+02  0.16463411199E+03  0.61094575410E+03  0.63535538661E+03  0.00000000000E+00 0. -1.
         21    1    1    2  502  501  0.71651320543E+02 -0.37558315797E+03  0.23796651717E+03  0.45036061504E+03  0.00000000000E+00 0.  1.
<scales pt_clust_5="13000.00000" pt_clust_6="13000.00000" pt_clust_7="13000.00000" pt_clust_8="13000.00000" pt_clust_9="382.35667"></scales>
<clustering>
<clus scale="   80.165">  5  6 -1 -1</clus>
<clus scale="   92.042">  7  8 -1 -1</clus>
<clus scale="  189.668">  5  7 -1 -1</clus>
<clus scale="  382.357">  2  9  1 -1</clus>
<clus scale="  458.395">  1  5  2 -1</clus>
</clustering>
</event>
<event>
 9    1  0.2951046E-005  0.1600082E+03  0.7546771E-02  0.1190373E+00
         -2   -1    0    0    0  501 -0.00000000000E+00  0.00000000000E+00  0.11758659598E+03  0.11758659598E+03  0.00000000000E+00 0.  1.
          1   -1    0    0  502    0  0.00000000000E+00 -0.00000000000E+00 -0.51208551497E+03  0.51208551497E+03  0.00000000000E+00 0. -1.
        -24    2    1    2    0    0 -0.60479782868E+02  0.11787514334E+03  0.40672111773E+02  0.16099936456E+03  0.81940351238E+02 0.  0.
         23    2    1    2    0    0  0.40252118708E+02 -0.11267990801E+03 -0.35592959876E+03  0.38672548644E+03  0.92486365802E+02 0.  0.
         13    1    3    3    0    0 -0.40902077913E+02  0.97579720833E+01 -0.43152789973E+01  0.42270789318E+02  0.00000000000E+00 0. -1.
        -14    1    3    3    0    0 -0.19577704955E+02  0.10811717125E+03  0.44987390770E+02  0.11872857524E+03  0.00000000000E+00 0.  1.
        -11    1    4    4    0    0 -0.28400709153E+02 -0.51587883410E+02 -0.15365955602E+03  0.16455749497E+03  0.00000000000E+00 0.  1.
         11    1    4    4    0    0  0.68652827861E+02 -0.61092024598E+02 -0.20227004274E+03  0.22216799147E+03  0.00000000000E+00 0. -1.
         21    1    1    2  502  501  0.20227664159E+02 -0.51952353297E+01 -0.79241432003E+02  0.81947259950E+02  0.00000000000E+00 0.  1.
<scales pt_clust_5="13000.00000" pt_clust_6="13000.00000" pt_clust_7="13000.00000" pt_clust_8="13000.00000" pt_clust_9="20.88418"></scales>
<clustering>
<clus scale="   20.884">  2  9  1 -1</clus>
<clus scale="   81.940">  5  6 -1 -1</clus>
<clus scale="   92.486">  7  8 -1 -1</clus>
<clus scale="  154.153">  1  5  2 -1</clus>
<clus scale="   20.884">  2  5  1 -1</clus>
</clustering>
</event>
<event>
 9    1  0.2951046E-005  0.9729936E+02  0.7546771E-02  0.1291279E+00
          1   -1    0    0  502    0  0.00000000000E+00  0.00000000000E+00  0.61015483641E+03  0.61015483641E+03  0.00000000000E+00 0. -1.
         -2   -1    0    0    0  501 -0.00000000000E+00 -0.00000000000E+00 -0.31210152570E+02  0.31210152570E+02  0.00000000000E+00 0.  1.
        -24    2    1    2    0    0 -0.12027244784E+02 -0.38689094736E+02  0.59876356538E+02  0.10827983431E+03  0.80609204052E+02 0.  0.
         23    2    1    2    0    0  0.84761884579E+01  0.15652350386E+02  0.33142635237E+03  0.34400101374E+03  0.90423606269E+02 0.  0.
         13    1    3    3    0    0  0.28430401000E+02 -0.13480262262E+02 -0.35654408959E+00  0.31466367687E+02  0.00000000000E+00 0. -1.
        -14    1    3    3    0    0 -0.40457645784E+02 -0.25208832474E+02  0.60232900628E+02  0.76813466626E+02  0.00000000000E+00 0.  1.
        -13    1    4    4    0    0 -0.37067159524E+02 -0.33734380004E+01  0.20364287687E+03  0.20701636577E+03  0.00000000000E+00 0.  1.
         13    1    4    4    0    0  0.45543347982E+02  0.19025788387E+02  0.12778347550E+03  0.13698464797E+03  0.00000000000E+00 0. -1.
         21    1    1    2  502  501  0.35510563256E+01  0.23036744350E+02  0.18764197493E+03  0.18908414092E+03  0.00000000000E+00 0.  1.
<scales pt_clust_5="13000.00000" pt_clust_6="13000.00000" pt_clust_7="13000.00000" pt_clust_8="13000.00000" pt_clust_9="23.30883"></scales>
<clustering>
<clus scale="   23.309">  1  9  2 -1</clus>
<clus scale="   80.609">  5  6 -1 -1</clus>
<clus scale="   88.253">  2  5  1 -1</clus>
<clus scale="   90.424">  7  8 -1 -1</clus>
<clus scale="   23.309">  1  5  2 -1</clus>
</clustering>
</event>
<event>
 9    1  0.2951046E-005  0.1529720E+03  0.7546771E-02  0.1217169E+00
          3   -1    0    0  502    0  0.00000000000E+00  0.00000000000E+00  0.29099175334E+02  0.29099175334E+02  0.00000000000E+00 0. -1.
         -4   -1    0    0    0  501 -0.00000000000E+00 -0.00000000000E+00 -0.13757229079E+04  0.13757229079E+04  0.00000000000E+00 0.  1.
         23    2    1    2    0    0 -0.93293863660E+02 -0.63689285097E+02 -0.47507715542E+03  0.49719351799E+03  0.93504121267E+02 0.  0.
        -24    2    1    2    0    0  0.32953327986E+02 -0.52430047893E+02 -0.19638057059E+03  0.21989764683E+03  0.77167446689E+02 0.  0.
         11    1    4    4    0    0  0.47850355138E+02 -0.61066622921E+02 -0.13064129096E+03  0.15194056675E+03  0.00000000000E+00 0. -1.
        -12    1    4    4    0    0 -0.14897027152E+02  0.86365750274E+01 -0.65739279628E+02  0.67957080074E+02  0.00000000000E+00 0.  1.
        -11    1    3    3    0    0 -0.62167666216E+02 -0.53961316524E+02 -0.44590047552E+03  0.45343563653E+03  0.00000000000E+00 0.  1.
         11    1    3    3    0    0 -0.31126197444E+02 -0.97279685729E+01 -0.29176679900E+02  0.43757881460E+02  0.00000000000E+00 0. -1.
         21    1    1    2  502  501  0.60340535675E+02  0.11611933299E+03 -0.67516600660E+03  0.68773091846E+03  0.00000000000E+00 0. -1.
<scales pt_clust_5="13000.00000" pt_clust_6="13000.00000" pt_clust_7="13000.00000" pt_clust_8="13000.00000" pt_clust_9="121.06777"></scales>
<clustering>
<clus scale="   77.167">  5  6 -1 -1</clus>
<clus scale="   93.504">  7  8 -1 -1</clus>
<clus scale="   98.943">  1  5  2 -1</clus>
<clus scale="  121.068">  2  9  1 -1</clus>
<clus scale="   98.943">  1  5  2 -1</clus>
</clustering>
</event>
<event>
 9    1  0.2951046E-005  0.1230176E+03  0.7546771E-02  0.1256928E+00
         -2   -1    0    0    0  501 -0.00000000000E+00  0.00000000000E+00  0.12366083495E+03  0.12366083495E+03  0.00000000000E+00 0.  1.
          1   -1    0    0  502    0  0.00000000000E+00 -0.00000000000E+00 -0.35255486897E+03  0.35255486897E+03  0.00000000000E+00 0. -1.
        -24    2    1    2    0    0  0.24226669172E+02 -0.22444952469E+01  0.69520653357E+02  0.10941679903E+03  0.80913196746E+02 0.  0.
         23    2    1    2    0    0  0.65857159878E+02  0.63491727444E+01 -0.10650981762E+03  0.15476253143E+03  0.90717266183E+02 0.  0.
         11    1    3    3    0    0 -0.24596393009E+02  0.18525695279E+02  0.32163835392E+02  0.44527477379E+02  0.00000000000E+00 0. -1.
        -12    1    3    3    0    0  0.48823062181E+02 -0.20770190525E+02  0.37356817965E+02  0.64889321646E+02  0.00000000000E+00 0.  1.
        -13    1    4    4    0    0  0.40393515833E+02  0.36885575741E+02 -0.17757287065E+02  0.57510895168E+02  0.00000000000E+00 0.  1.
         13    1    4    4    0    0  0.25463644045E+02 -0.30536402997E+02 -0.88752530553E+02  0.97251636262E+02  0.00000000000E+00 0. -1.
         21    1    1    2  502  501 -0.90083829050E+02 -0.41046774975E+01 -0.19190486976E+03  0.21203637346E+03  0.00000000000E+00 0. -1.
<scales pt_clust_5="13000.00000" pt_clust_6="13000.00000" pt_clust_7="13000.00000" pt_clust_8="13000.00000" pt_clust_9="83.08855"></scales>
<clustering>
<clus scale="   80.913">  5  6 -1 -1</clus>
<clus scale="   84.492">  1  5  2 -1</clus>
<clus scale="   83.089">  2  9  1 -1</clus>
<clus scale="   90.717">  7  8 -1 -1</clus>
<clus scale="   83.089">  2  5  1 -1</clus>
</clustering>
</event>
<event>
 9    1  0.2951046E-005  0.1102957E+03  0.7546771E-02  0.1261712E+00
          3   -1    0    0  502    0  0.00000000000E+00  0.00000000000E+00  0.30584215890E+03  0.30584215890E+03  0.00000000000E+00 0. -1.
         -4   -1    0    0    0  501 -0.00000000000E+00 -0.00000000000E+00 -0.10073502273E+03  0.10073502273E+03  0.00000000000E+00 0.  1.
         23    2    1    2    0    0  0.17885133321E+02  0.65208121451E+02 -0.38144446460E+02  0.12224194801E+03  0.94425197695E+02 0.  0.
        -24    2    1    2    0    0  0.11263034795E+02 -0.22839100440E+02  0.13330373863E+03  0.16295451832E+03  0.90198713111E+02 0.  0.
         11    1    4    4    0    0 -0.32434841967E+02 -0.10766957179E+02  0.10275119710E+03  0.10828552464E+03  0.00000000000E+00 0. -1.
        -12    1    4    4    0    0  0.43697876763E+02 -0.12072143261E+02  0.30552541528E+02  0.54668993683E+02  0.00000000000E+00 0.  1.
        -11    1    3    3    0    0  0.36510542964E+02  0.74641481376E+02 -0.52205914275E+01  0.83256381523E+02  0.00000000000E+00 0.  1.
         11    1    3    3    0    0 -0.18625409643E+02 -0.94333599251E+01 -0.32923855032E+02  0.38985566483E+02  0.00000000000E+00 0. -1.
         21    1    1    2  502  501 -0.29148168117E+02 -0.42369021011E+02  0.10994784400E+03  0.12138071530E+03  0.00000000000E+00 0. -1.
<scales pt_clust_5="13000.00000" pt_clust_6="13000.00000" pt_clust_7="13000.00000" pt_clust_8="13000.00000" pt_clust_9="51.42713"></scales>
<clustering>
<clus scale="   51.427">  1  9  2 -1</clus>
<clus scale="   90.199">  5  6 -1 -1</clus>
<clus scale="   94.425">  7  8 -1 -1</clus>
<clus scale="  106.700">  1  5  2 -1</clus>
<clus scale="   51.427">  1  5  2 -1</clus>
</clustering>
</event>
<event>
 9    1  0.2951046E-005  0.1291522E+03  0.7546771E-02  0.1231509E+00
          1   -1    0    0  502    0  0.00000000000E+00  0.00000000000E+00  0.28378953215E+03  0.28378953215E+03  0.00000000000E+00 0. -1.
         -2   -1    0    0    0  501 -0.00000000000E+00 -0.00000000000E+00 -0.99914816421E+02  0.99914816421E+02  0.00000000000E+00 0.  1.
        -24    2    1    2    0    0 -0.14919829607E+02 -0.90070865639E+02 -0.17658458444E+02  0.12297758865E+03  0.80475486967E+02 0.  0.
         23    2    1    2    0    0  0.37577556101E+02  0.86744718993E+02  0.12655887877E+03  0.18233300512E+03  0.91057432229E+02 0.  0.
         13    1    3    3    0    0 -0.44818216420E+02 -0.63409458568E+02  0.33935067227E+01  0.77723534703E+02  0.00000000000E+00 0. -1.
        -14    1    3    3    0    0  0.29898386813E+02 -0.26661407071E+02 -0.21051965166E+02  0.45254053944E+02  0.00000000000E+00 0.  1.
        -13    1    4    4    0    0 -0.16994612464E+02  0.71665783384E+02  0.60372981925E+02  0.95234963681E+02  0.00000000000E+00 0. -1.
         13    1    4    4    0    0  0.54572168565E+02  0.15078935610E+02  0.66185896845E+02  0.87098041437E+02  0.00000000000E+00 0.  1.
         21    1    1    2  502  501 -0.22657726494E+02  0.33261466456E+01  0.74974295405E+02  0.78393754808E+02  0.00000000000E+00 0.  1.
<scales pt_clust_5="13000.00000" pt_clust_6="13000.00000" pt_clust_7="13000.00000" pt_clust_8="13000.00000" pt_clust_9="22.90056"></scales>
<clustering>
<clus scale="   22.901">  1  9  2 -1</clus>
<clus scale="   80.475">  5  6 -1 -1</clus>
<clus scale="   91.057">  7  8 -1 -1</clus>
<clus scale="  121.923">  2  5  1 -1</clus>
<clus scale="   22.901">  1  5  2 -1</clus>
</clustering>
</event>
<event>
 9    1  0.2951046E-005  0.1274202E+03  0.7546771E-02  0.1234570E+00
         -2   -1    0    0    0  501 -0.00000000000E+00  0.00000000000E+00  0.47604913392E+02  0.47604913392E+02  0.00000000000E+00 0.  1.
          1   -1    0    0  502    0  0.00000000000E+00 -0.00000000000E+00 -0.84844136936E+03  0.84844136936E+03  0.00000000000E+00 0. -1.
        -24    2    1    2    0    0 -0.78698587113E+02 -0.14166423426E+02 -0.68935456005E+02  0.13253463815E+03  0.80119773151E+02 0.  0.
         23    2    1    2    0    0  0.13344696310E+03  0.13869196817E+02 -0.53948190016E+03  0.56345519510E+03  0.91872682012E+02 0.  0.
         13    1    3    3    0    0 -0.81442539243E+01  0.26971398613E+02 -0.45570789901E+01  0.28540360615E+02  0.00000000000E+00 0. -1.
        -14    1    3    3    0    0 -0.70554333189E+02 -0.41137822039E+02 -0.64378377015E+02  0.10399427754E+03  0.00000000000E+00 0.  1.
        -11    1    4    4    0    0  0.92451297667E+02 -0.24430482936E+02 -0.23263461483E+03  0.25152128132E+03  0.00000000000E+00 0.  1.
         11    1    4    4    0    0  0.40995665438E+02  0.38299679753E+02 -0.30684728533E+03  0.31193391378E+03  0.00000000000E+00 0. -1.
         21    1    1    2  502  501 -0.54748375991E+02  0.29722660813E+00 -0.19241909980E+03  0.20005644949E+03  0.00000000000E+00 0. -1.
<scales pt_clust_5="13000.00000" pt_clust_6="13000.00000" pt_clust_7="13000.00000" pt_clust_8="13000.00000" pt_clust_9="54.74918"></scales>
<clustering>
<clus scale="   54.749">  2  9  1 -1</clus>
<clus scale="   80.120">  5  6 -1 -1</clus>
<clus scale="   91.873">  7  8 -1 -1</clus>
<clus scale="  119.225">  1  5  2 -1</clus>
<clus scale="   54.749">  2  5  1 -1</clus>
</clustering>
</event>
<event>
 9    1  0.2951046E-005  0.9373198E+02  0.7546771E-02  0.1301227E+00
          3   -1    0    0  502    0  0.00000000000E+00  0.00000000000E+00  0.14158974169E+03  0.14158974169E+03  0.00000000000E+00 0. -1.
         -4   -1    0    0    0  501 -0.00000000000E+00 -0.00000000000E+00 -0.13102725568E+03  0.13102725568E+03  0.00000000000E+00 0.  1.
         23    2    1    2    0    0 -0.12260705031E+02 -0.15938425222E+02 -0.81968583147E+02  0.12369604648E+03  0.90429558245E+02 0.  0.
        -24    2    1    2    0    0  0.26513896924E+02 -0.41399161078E+01  0.92734037201E+02  0.12429709121E+03  0.78294569360E+02 0.  0.
         13    1    4    4    0    0  0.48362278799E+02 -0.15356463727E+02  0.84180493112E+02  0.98290825663E+02  0.00000000000E+00 0. -1.
        -14    1    4    4    0    0 -0.21848381875E+02  0.11216547619E+02  0.85535440883E+01  0.26006265543E+02  0.00000000000E+00 0.  1.
        -13    1    3    3    0    0 -0.49145892854E+02  0.17799227177E+01 -0.58864078943E+02  0.76703759354E+02  0.00000000000E+00 0.  1.
         13    1    3    3    0    0  0.36885187823E+02 -0.17718347940E+02 -0.23104504204E+02  0.46992287122E+02  0.00000000000E+00 0. -1.
         21    1    1    2  502  501 -0.14253191893E+02  0.20078341330E+02 -0.20296803947E+00  0.24623859684E+02  0.00000000000E+00 0.  1.
<scales pt_clust_5="13000.00000" pt_clust_6="13000.00000" pt_clust_7="13000.00000" pt_clust_8="13000.00000" pt_clust_9="24.62302"></scales>
<clustering>
<clus scale="   24.623">  2  9  1 -1</clus>
<clus scale="   78.295">  5  6 -1 -1</clus>
<clus scale="   82.087">  1  5  2 -1</clus>
<clus scale="   90.430">  7  8 -1 -1</clus>
<clus scale="   82.087">  1  5  2 -1</clus>
</clustering>
</event>
<event>
 9    1  0.2951046E-005  0.9528566E+02  0.7546771E-02  0.1307317E+00
          1   -1    0    0  502    0  0.00000000000E+00  0.00000000000E+00  0.65495300401E+02  0.65495300401E+02  0.00000000000E+00 0. -1.
         -2   -1    0    0    0  501 -0.00000000000E+00 -0.00000000000E+00 -0.55747776051E+03  0.55747776051E+03  0.00000000000E+00 0.  1.
        -24    2    1    2    0    0 -0.25558683127E+01  0.29983058056E+02 -0.49927607404E+03  0.50420392989E+03  0.63556971121E+02 0.  0.
         23    2    1    2    0    0 -0.12261781121E+02 -0.86627638576E+01  0.10646099187E+02  0.92589810238E+02  0.90742155463E+02 0.  0.
         13    1    3    3    0    0 -0.10082496775E+02  0.40617206468E+02 -0.18569909219E+03  0.19035642107E+03  0.00000000000E+00 0. -1.
        -14    1    3    3    0    0  0.75266284625E+01 -0.10634148412E+02 -0.31357698185E+03  0.31384750882E+03  0.00000000000E+00 0.  1.
        -11    1    4    4    0    0  0.21018949030E+02  0.27002805187E+02 -0.15132480343E+02  0.37415767634E+02  0.00000000000E+00 0.  1.
         11    1    4    4    0    0 -0.33280730152E+02 -0.35665569045E+02  0.25778579529E+02  0.55174042604E+02  0.00000000000E+00 0. -1.
         21    1    1    2  502  501  0.14817649434E+02 -0.21320294198E+02 -0.33524852646E+01  0.26179320787E+02  0.00000000000E+00 0. -1.
<scales pt_clust_5="13000.00000" pt_clust_6="13000.00000" pt_clust_7="13000.00000" pt_clust_8="13000.00000" pt_clust_9="25.96378"></scales>
<clustering>
<clus scale="   25.964">  1  9  2 -1</clus>
<clus scale="   63.557">  5  6 -1 -1</clus>
<clus scale="   69.891">  2  5  1 -1</clus>
<clus scale="   90.742">  7  8 -1 -1</clus>
<clus scale="   25.964">  1  5  2 -1</clus>
</clustering>
</event>
<event>
 9    1  0.2951046E-005  0.1140678E+03  0.7546771E-02  0.1253404E+00
          1   -1    0    0  502    0  0.00000000000E+00  0.00000000000E+00  0.53770798880E+03  0.53770798880E+03  0.00000000000E+00 0. -1.
         -2   -1    0    0    0  501 -0.00000000000E+00 -0.00000000000E+00 -0.55296794893E+02  0.55296794893E+02  0.00000000000E+00 0.  1.
         23    2    1    2    0    0  0.77586970477E+02 -0.53272455792E+01  0.32288862621E+02  0.12224960482E+03  0.88624362874E+02 0.  0.
        -24    2    1    2    0    0 -0.46535149192E+02  0.58342115251E+01  0.27441108314E+03  0.29232055402E+03  0.89164486334E+02 0.  0.
         13    1    4    4    0    0 -0.52717577479E+02  0.28487922148E+02  0.10185652210E+03  0.11817552952E+03  0.00000000000E+00 0. -1.
        -14    1    4    4    0    0  0.61824282876E+01 -0.22653710623E+02  0.17255456104E+03  0.17414502450E+03  0.00000000000E+00 0.  1.
        -13    1    3    3    0    0  0.26217040207E+02  0.15445915684E+02  0.54607054465E+02  0.62512717952E+02  0.00000000000E+00 0. -1.
         13    1    3    3    0    0  0.51369930271E+02 -0.20773161263E+02 -0.22318191844E+02  0.59736886863E+02  0.00000000000E+00 0.  1.
         21    1    1    2  502  501 -0.31051821286E+02 -0.50696594590E+00  0.17571124815E+03  0.17843462485E+03  0.00000000000E+00 0. -1.
<scales pt_clust_5="13000.00000" pt_clust_6="13000.00000" pt_clust_7="13000.00000" pt_clust_8="13000.00000" pt_clust_9="31.05596"></scales>
<clustering>
<clus scale="   31.056">  1  9  2 -1</clus>
<clus scale="   88.624">  7  8 -1 -1</clus>
<clus scale="   89.164">  5  6 -1 -1</clus>
<clus scale="  113.646">  2  7  1 -1</clus>
<clus scale="   31.056">  1  5  2 -1</clus>
</clustering>
</event>
<event>
 9    1  0.2951046E-005  0.2105681E+03  0.7546771E-02  0.1142132E+00
         -2   -1    0    0    0  501 -0.00000000000E+00  0.00000000000E+00  0.45076257336E+03  0.45076257336E+03  0.00000000000E+00 0.  1.
          1   -1    0    0  502    0  0.00000000000E+00 -0.00000000000E+00 -0.13282996300E+03  0.13282996300E+03  0.00000000000E+00 0. -1.
        -24    2    1    2    0    0 -0.16581934524E+03 -0.47914511774E+02  0.18850703220E+03  0.26828197656E+03  0.81538101894E+02 0.  0.
         23    2    1    2    0    0  0.20413375113E+03  0.76173420118E+02  0.12339375291E+03  0.26732157653E+03  0.93604640597E+02 0.  0.
         13    1    3    3    0    0 -0.15321861502E+03 -0.13054896392E+02  0.14937020400E+03  0.21437777906E+03  0.00000000000E+00 0. -1.
        -14    1    3    3    0    0 -0.12600730220E+02 -0.34859615382E+02  0.39136828205E+02  0.53904197505E+02  0.00000000000E+00 0.  1.
        -13    1    4    4    0    0  0.43802491067E+02  0.50372896376E+02  0.69135728490E+02  0.96103256276E+02  0.00000000000E+00 0. -1.
         13    1    4    4    0    0  0.16033126006E+03  0.25800523742E+02  0.54258024422E+02  0.17121832026E+03  0.00000000000E+00 0.  1.
         21    1    1    2  502  501 -0.38314405885E+02 -0.28258908344E+02  0.60318252385E+01  0.47988983265E+02  0.00000000000E+00 0. -1.
<scales pt_clust_5="13000.00000" pt_clust_6="13000.00000" pt_clust_7="13000.00000" pt_clust_8="13000.00000" pt_clust_9="47.60840"></scales>
<clustering>
<clus scale="   47.608">  2  9  1 -1</clus>
<clus scale="   81.538">  5  6 -1 -1</clus>
<clus scale="   93.605">  7  8 -1 -1</clus>
<clus scale="  205.489">  1  5  2 -1</clus>
<clus scale="   47.608">  2  5  1 -1</clus>
</clustering>
</event>
<event>
 9    1  0.2951046E-005  0.1237217E+03  0.7546771E-02  0.1240626E+00
         -4   -1    0    0    0  501 -0.00000000000E+00  0.00000000000E+00  0.17920666719E+03  0.17920666719E+03  0.00000000000E+00 0.  1.
          3   -1    0    0  502    0  0.00000000000E+00 -0.00000000000E+00 -0.52242809951E+03  0.52242809951E+03  0.00000000000E+00 0. -1.
        -24    2    1    2    0    0 -0.47539959914E+02 -0.83067794431E+02  0.12900737525E+03  0.17756363937E+03  0.75667938371E+02 0.  0.
         23    2    1    2    0    0  0.40259261169E+02  0.30828427266E+02 -0.83070456815E+02  0.13135471309E+03  0.88216550704E+02 0.  0.
         11    1    3    3    0    0 -0.21419686974E+02  0.10427665239E+02  0.16576012742E+02  0.29022463555E+02  0.00000000000E+00 0. -1.
        -12    1    3    3    0    0 -0.26120272940E+02 -0.93495459669E+02  0.11243136250E+03  0.14854117581E+03  0.00000000000E+00 0.  1.
        -13    1    4    4    0    0 -0.47604152527E+01  0.48291330287E+02 -0.61839322525E+02  0.78605444752E+02  0.00000000000E+00 0. -1.
         13    1    4    4    0    0  0.45019676422E+02 -0.17462903021E+02 -0.21231134290E+02  0.52749268339E+02  0.00000000000E+00 0.  1.
         21    1    1    2  502  501  0.72806987449E+01  0.52239367165E+02 -0.38915835075E+03  0.39271641424E+03  0.00000000000E+00 0. -1.
<scales pt_clust_5="13000.00000" pt_clust_6="13000.00000" pt_clust_7="13000.00000" pt_clust_8="13000.00000" pt_clust_9="52.74429"></scales>
<clustering>
<clus scale="   52.744">  2  9  1 -1</clus>
<clus scale="   75.668">  5  6 -1 -1</clus>
<clus scale="   88.217">  7  8 -1 -1</clus>
<clus scale="  115.111">  1  5  2 -1</clus>
<clus scale="   52.744">  2  5  1 -1</clus>
</clustering>
</event>
<event>
 9    1  0.2951046E-005  0.1207242E+03  0.7546771E-02  0.1244995E+00
         -2   -1    0    0    0  501 -0.00000000000E+00  0.00000000000E+00  0.13915907321E+03  0.13915907321E+03  0.00000000000E+00 0.  1.
          1   -1    0    0  502    0  0.00000000000E+00 -0.00000000000E+00 -0.10459904004E+04  0.10459904004E+04  0.00000000000E+00 0. -1.
         23    2    1    2    0    0  0.35832032975E+02  0.69877983391E+02  0.99478613207E+02  0.15623371640E+03  0.91357060505E+02 0.  0.
        -24    2    1    2    0    0  0.26388971680E+02 -0.11077934110E+03 -0.65156983600E+03  0.66644518442E+03  0.81470807065E+02 0.  0.
         13    1    4    4    0    0 -0.22538942786E+02 -0.60459301107E+01 -0.81614789294E+02  0.84885399477E+02  0.00000000000E+00 0. -1.
        -14    1    4    4    0    0  0.48927914466E+02 -0.10473341099E+03 -0.56995504671E+03  0.58155978494E+03  0.00000000000E+00 0.  1.
        -13    1    3    3    0    0  0.56756587026E+02  0.24422186801E+02  0.83155217841E+02  0.10359799049E+03  0.00000000000E+00 0.  1.
         13    1    3    3    0    0 -0.20924554051E+02  0.45455796590E+02  0.16323395367E+02  0.52635725911E+02  0.00000000000E+00 0. -1.
         21    1    1    2  502  501 -0.62221004655E+02  0.40901357713E+02 -0.35474010444E+03  0.36247057285E+03  0.00000000000E+00 0. -1.
<scales pt_clust_5="13000.00000" pt_clust_6="13000.00000" pt_clust_7="13000.00000" pt_clust_8="13000.00000" pt_clust_9="74.46056"></scales>
<clustering>
<clus scale="   74.461">  2  9  1 -1</clus>
<clus scale="   81.471">  5  6 -1 -1</clus>
<clus scale="   91.357">  7  8 -1 -1</clus>
<clus scale="  113.427">  2  5  1 -1</clus>
<clus scale="   74.461">  2  5  1 -1</clus>
</clustering>
</event>
<event>
 9    1  0.2951046E-005  0.1121501E+03  0.7546771E-02  0.1262063E+00
          1   -1    0    0  502    0  0.00000000000E+00  0.00000000000E+00  0.23983019702E+03  0.23983019702E+03  0.00000000000E+00 0. -1.
         -2   -1    0    0    0  501 -0.00000000000E+00 -0.00000000000E+00 -0.24057769423E+03  0.24057769423E+03  0.00000000000E+00 0.  1.
        -24    2    1    2    0    0 -0.59524694819E+02 -0.16901981134E+02 -0.19847671436E+03  0.22207921741E+03  0.78085250875E+02 0.  0.
         23    2    1    2    0    0  0.93150583199E+02  0.76953099280E+01  0.15402136595E+03  0.20241946690E+03  0.92275730650E+02 0.  0.
         13    1    3    3    0    0 -0.70279768130E+02  0.11782745737E+00 -0.10426056616E+03  0.12573593499E+03  0.00000000000E+00 0. -1.
        -14    1    3    3    0    0  0.10755073311E+02 -0.17019808592E+02 -0.94216148202E+02  0.96343282426E+02  0.00000000000E+00 0.  1.
        -13    1    4    4    0    0  0.53715192466E+02 -0.31628584459E+02  0.12485976549E+03  0.13955518727E+03  0.00000000000E+00 0. -1.
         13    1    4    4    0    0  0.39435390733E+02  0.39323894387E+02  0.29161600461E+02  0.62864279630E+02  0.00000000000E+00 0.  1.
         21    1    1    2  502  501 -0.33625888380E+02  0.92066712064E+01  0.43707851200E+02  0.55909206939E+02  0.00000000000E+00 0.  1.
<scales pt_clust_5="13000.00000" pt_clust_6="13000.00000" pt_clust_7="13000.00000" pt_clust_8="13000.00000" pt_clust_9="34.86349"></scales>
<clustering>
<clus scale="   34.863">  1  9  2 -1</clus>
<clus scale="   78.085">  5  6 -1 -1</clus>
<clus scale="   92.276">  7  8 -1 -1</clus>
<clus scale="  100.798">  2  5  1 -1</clus>
<clus scale="   34.863">  1  5  2 -1</clus>
</clustering>
</event>
<event>
 9    1  0.2951046E-005  0.1496784E+03  0.7546771E-02  0.1202075E+00
         -2   -1    0    0    0  501 -0.00000000000E+00  0.00000000000E+00  0.13832879589E+03  0.13832879589E+03  0.00000000000E+00 0.  1.
          1   -1    0    0  502    0  0.00000000000E+00 -0.00000000000E+00 -0.52949587936E+03  0.52949587936E+03  0.00000000000E+00 0. -1.
        -24    2    1    2    0    0 -0.10139358613E+03 -0.72257405392E+02  0.73660852289E+02  0.16540695064E+03  0.80198168420E+02 0.  0.
         23    2    1    2    0    0  0.54903507558E+02  0.92506473695E+02 -0.36726143660E+03  0.39246057872E+03  0.87020113886E+02 0.  0.
         13    1    3    3    0    0 -0.20910372639E+02  0.13533144902E+02 -0.28659009267E+01  0.25071958100E+02  0.00000000000E+00 0. -1.
        -14    1    3    3    0    0 -0.80483213491E+02 -0.85790550294E+02  0.76526753216E+02  0.14033499254E+03  0.00000000000E+00 0.  1.
        -11    1    4    4    0    0  0.59487309013E+02  0.40789079784E+02 -0.12168601894E+03  0.14145662292E+03  0.00000000000E+00 0.  1.
         11    1    4    4    0    0 -0.45838014551E+01  0.51717393911E+02 -0.24557541766E+03  0.25100395580E+03  0.00000000000E+00 0. -1.
         21    1    1    2  502  501  0.46490078572E+02 -0.20249068303E+02 -0.97566499158E+02  0.10995714588E+03  0.00000000000E+00 0.  1.
<scales pt_clust_5="13000.00000" pt_clust_6="13000.00000" pt_clust_7="13000.00000" pt_clust_8="13000.00000" pt_clust_9="50.70850"></scales>
<clustering>
<clus scale="   50.709">  2  9  1 -1</clus>
<clus scale="   80.198">  5  6 -1 -1</clus>
<clus scale="   87.020">  7  8 -1 -1</clus>
<clus scale="  145.818">  1  5  2 -1</clus>
<clus scale="   50.709">  2  5  1 -1</clus>
</clustering>
</event>
<event>
 9    1  0.2951046E-005  0.3956214E+03  0.7546771E-02  0.1045512E+00
         -2   -1    0    0    0  501 -0.00000000000E+00  0.00000000000E+00  0.26892576323E+03  0.26892576323E+03  0.00000000000E+00 0.  1.
          1   -1    0    0  502    0  0.00000000000E+00 -0.00000000000E+00 -0.98268502254E+03  0.98268502254E+03  0.00000000000E+00 0. -1.
         23    2    1    2    0    0  0.44975805302E+01 -0.35229600129E+03  0.29260339715E+02  0.36516893780E+03  0.91430218751E+02 0.  0.
        -24    2    1    2    0    0  0.16973700997E+02  0.39310935327E+03 -0.73776843951E+03  0.84002719180E+03  0.80748637579E+02 0.  0.
         11    1    4    4    0    0 -0.28955476403E+02  0.18819348868E+03 -0.38425246417E+03  0.42884165495E+03  0.00000000000E+00 0. -1.
        -12    1    4    4    0    0  0.45929177401E+02  0.20491586459E+03 -0.35351597534E+03  0.41118553685E+03  0.00000000000E+00 0.  1.
        -11    1    3    3    0    0  0.36337605603E+02 -0.19333592013E+03  0.46485678840E+02  0.20213885804E+03  0.00000000000E+00 0.  1.
         11    1    3    3    0    0 -0.31840025073E+02 -0.15896008116E+03 -0.17225339124E+02  0.16303007976E+03  0.00000000000E+00 0. -1.
         21    1    1    2  502  501 -0.21471281528E+02 -0.40813351986E+02 -0.52511595116E+01  0.46414656166E+02  0.00000000000E+00 0.  1.
<scales pt_clust_5="13000.00000" pt_clust_6="13000.00000" pt_clust_7="13000.00000" pt_clust_8="13000.00000" pt_clust_9="46.11665"></scales>
<clustering>
<clus scale="   46.117">  1  9  2 -1</clus>
<clus scale="   80.749">  5  6 -1 -1</clus>
<clus scale="   91.430">  7  8 -1 -1</clus>
<clus scale="  393.290">  2  5  1 -1</clus>
<clus scale="  393.290">  2  5  1 -1</clus>
</clustering>
</event>
<event>
 9    1  0.2951046E-005  0.1268345E+03  0.7546771E-02  0.1249212E+00
          1   -1    0    0  502    0  0.00000000000E+00  0.00000000000E+00  0.62581933718E+03  0.62581933718E+03  0.00000000000E+00 0. -1.
         -2   -1    0    0    0  501 -0.00000000000E+00 -0.00000000000E+00 -0.15707775156E+03  0.15707775156E+03  0.00000000000E+00 0.  1.
        -24    2    1    2    0    0 -0.19835937646E+02 -0.39151682175E+02 -0.12131885341E+03  0.15098093838E+03  0.78426149470E+02 0.  0.
         23    2    1    2    0    0 -0.83286607437E+02  0.23707104125E+02  0.32983894220E+03  0.35158059838E+03  0.85536562954E+02 0.  0.
         13    1    3    3    0    0 -0.28558945894E+02 -0.15308087290E+02 -0.60674277437E+01  0.32966113002E+02  0.00000000000E+00 0. -1.
        -14    1    3    3    0    0  0.87230082476E+01 -0.23843594886E+02 -0.11525142567E+03  0.11801482537E+03  0.00000000000E+00 0.  1.
        -11    1    4    4    0    0  0.15724089060E+02  0.15448177987E+02  0.70283657203E+02  0.73659253660E+02  0.00000000000E+00 0.  1.
         11    1    4    4    0    0 -0.99010696497E+02  0.82589261373E+01  0.25955528499E+03  0.27792134472E+03  0.00000000000E+00 0. -1.
         21    1    1    2  502  501  0.10312254508E+03  0.15444578051E+02  0.26022149683E+03  0.28033555199E+03  0.00000000000E+00 0.  1.
<scales pt_clust_5="13000.00000" pt_clust_6="13000.00000" pt_clust_7="13000.00000" pt_clust_8="13000.00000" pt_clust_9="93.65090"></scales>
<clustering>
<clus scale="   78.426">  5  6 -1 -1</clus>
<clus scale="   85.537">  7  8 -1 -1</clus>
<clus scale="   89.872">  2  5  1 -1</clus>
<clus scale="   93.651">  2  9  1 -1</clus>
<clus scale="  126.835">  1  5  2 -1</clus>
</clustering>
</event>
<event>
 9    1  0.2951046E-005  0.9284624E+02  0.7546771E-02  0.1300406E+00
         -2   -1    0    0    0  501 -0.00000000000E+00  0.00000000000E+00  0.17112770930E+03  0.17112770930E+03  0.00000000000E+00 0.  1.
          1   -1    0    0  502    0  0.00000000000E+00 -0.00000000000E+00 -0.13415674977E+03  0.13415674977E+03  0.00000000000E+00 0. -1.
         23    2    1    2    0    0 -0.12982316363E+02 -0.28261951880E+02  0.12761913313E+03  0.15762079538E+03  0.87122864592E+02 0.  0.
        -24    2    1    2    0    0  0.28994022345E+02  0.15520179396E+02 -0.93427572413E+02  0.12701293604E+03  0.79511290611E+02 0.  0.
         11    1    4    4    0    0  0.32888307391E+02  0.14641150028E+02 -0.25958527193E+01  0.36093524191E+02  0.00000000000E+00 0. -1.
        -12    1    4    4    0    0 -0.38942850462E+01  0.87902936824E+00 -0.90831719694E+02  0.90919411850E+02  0.00000000000E+00 0.  1.
        -13    1    3    3    0    0 -0.12557411738E+02  0.28999304619E+02  0.67846777989E+02  0.74845397597E+02  0.00000000000E+00 0. -1.
         13    1    3    3    0    0 -0.42490462423E+00 -0.57261256499E+02  0.59772355139E+02  0.82775397786E+02  0.00000000000E+00 0.  1.
         21    1    1    2  502  501 -0.16011705982E+02  0.12741772484E+02  0.27793988201E+01  0.20650727646E+02  0.00000000000E+00 0. -1.
<scales pt_clust_5="13000.00000" pt_clust_6="13000.00000" pt_clust_7="13000.00000" pt_clust_8="13000.00000" pt_clust_9="20.46283"></scales>
<clustering>
<clus scale="   20.463">  1  9  2 -1</clus>
<clus scale="   79.511">  5  6 -1 -1</clus>
<clus scale="   85.744">  2  5  1 -1</clus>
<clus scale="   87.123">  7  8 -1 -1</clus>
<clus scale="   85.744">  2  5  1 -1</clus>
</clustering>
</event>
<event>
 9    1  0.2951046E-005  0.1294046E+03  0.7546771E-02  0.1231662E+00
          1   -1    0    0  502    0  0.00000000000E+00  0.00000000000E+00  0.31156017752E+03  0.31156017752E+03  0.00000000000E+00 0. -1.
         -2   -1    0    0    0  501 -0.00000000000E+00 -0.00000000000E+00 -0.17772318759E+03  0.17772318759E+03  0.00000000000E+00 0.  1.
        -24    2    1    2    0    0 -0.86244087028E+02 -0.12547090184E+02 -0.12121597484E+03  0.16933752893E+03  0.79915043184E+02 0.  0.
         23    2    1    2    0    0  0.12053130967E+03  0.15416591720E+01  0.17215272824E+03  0.22956230691E+03  0.92369462435E+02 0.  0.
         13    1    3    3    0    0 -0.58874434320E+02 -0.39285094355E+02 -0.44488163245E+02  0.83598530632E+02  0.00000000000E+00 0. -1.
        -14    1    3    3    0    0 -0.27369652708E+02  0.26738004170E+02 -0.76727811594E+02  0.85738998293E+02  0.00000000000E+00 0.  1.
        -11    1    4    4    0    0  0.27878312457E+02  0.35848633425E+02  0.23666767963E+02  0.51209771818E+02  0.00000000000E+00 0.  1.
         11    1    4    4    0    0  0.92652997214E+02 -0.34306974253E+02  0.14848596028E+03  0.17835253509E+03  0.00000000000E+00 0. -1.
         21    1    1    2  502  501 -0.34287222644E+02  0.11005431012E+02  0.82900236523E+02  0.90383529274E+02  0.00000000000E+00 0.  1.
<scales pt_clust_5="13000.00000" pt_clust_6="13000.00000" pt_clust_7="13000.00000" pt_clust_8="13000.00000" pt_clust_9="36.01018"></scales>
<clustering>
<clus scale="   36.010">  1  9  2 -1</clus>
<clus scale="   79.915">  5  6 -1 -1</clus>
<clus scale="   92.369">  7  8 -1 -1</clus>
<clus scale="  120.830">  2  5  1 -1</clus>
<clus scale="   36.010">  1  5  2 -1</clus>
</clustering>
</event>
<event>
 9    1  0.2951046E-005  0.3510244E+03  0.7546771E-02  0.1100357E+00
         -2   -1    0    0    0  501 -0.00000000000E+00  0.00000000000E+00  0.15285124378E+03  0.15285124378E+03  0.00000000000E+00 0.  1.
          1   -1    0    0  502    0  0.00000000000E+00 -0.00000000000E+00 -0.11991846313E+04  0.11991846313E+04  0.00000000000E+00 0. -1.
        -24    2    1    2    0    0  0.49676041584E+02 -0.33193315854E+03 -0.27766225809E+03  0.44292116295E+03  0.80221544346E+02 0.  0.
         23    2    1    2    0    0  0.85388424669E+02 -0.56424063138E+00 -0.17871524769E+03  0.21857516011E+03  0.92436245187E+02 0.  0.
         13    1    3    3    0    0 -0.20362535361E+02 -0.40276339987E+02 -0.37052861591E+02  0.58392901634E+02  0.00000000000E+00 0. -1.
        -14    1    3    3    0    0  0.70038576945E+02 -0.29165681856E+03 -0.24060939650E+03  0.38452826132E+03  0.00000000000E+00 0.  1.
        -11    1    4    4    0    0  0.93354540889E+02 -0.24726731536E+02 -0.16039168454E+03  0.18722172424E+03  0.00000000000E+00 0.  1.
         11    1    4    4    0    0 -0.79661162200E+01  0.24162490904E+02 -0.18323563149E+02  0.31353435869E+02  0.00000000000E+00 0. -1.
         21    1    1    2  502  501 -0.13506446625E+03  0.33249739918E+03 -0.58995588177E+03  0.69053955204E+03  0.00000000000E+00 0. -1.
<scales pt_clust_5="13000.00000" pt_clust_6="13000.00000" pt_clust_7="13000.00000" pt_clust_8="13000.00000" pt_clust_9="341.73469"></scales>
<clustering>
<clus scale="   80.222">  5  6 -1 -1</clus>
<clus scale="   92.436">  7  8 -1 -1</clus>
<clus scale="  125.841">  2  7  1 -1</clus>
<clus scale="  341.735">  2  9  1 -1</clus>
<clus scale="  125.841">  2  5  1 -1</clus>
</clustering>
</event>
<event>
 9    1  0.2951046E-005  0.1606377E+03  0.7546771E-02  0.1189075E+00
          1   -1    0    0  502    0  0.00000000000E+00  0.00000000000E+00  0.30472816809E+03  0.30472816809E+03  0.00000000000E+00 0. -1.
         -2   -1    0    0    0  501 -0.00000000000E+00 -0.00000000000E+00 -0.10344371562E+03  0.10344371562E+03  0.00000000000E+00 0.  1.
        -24    2    1    2    0    0 -0.12825276681E+03  0.45171767898E+02  0.36094330115E+02  0.16458254448E+03  0.85412835511E+02 0.  0.
         23    2    1    2    0    0  0.10932270674E+03 -0.59825718837E+02  0.14276150242E+03  0.21078494249E+03  0.92297749522E+02 0.  0.
         13    1    3    3    0    0 -0.47008428293E+02  0.39619146402E+02  0.53282933957E+02  0.81354410718E+02  0.00000000000E+00 0. -1.
        -14    1    3    3    0    0 -0.81244338519E+02  0.55526214959E+01 -0.17188603842E+02  0.83228133759E+02  0.00000000000E+00 0.  1.
        -11    1    4    4    0    0  0.48538088498E+02 -0.38367020503E+02  0.92922307994E+01  0.62564525496E+02  0.00000000000E+00 0.  1.
         11    1    4    4    0    0  0.60784618238E+02 -0.21458698334E+02  0.13346927162E+03  0.14822041700E+03  0.00000000000E+00 0. -1.
         21    1    1    2  502  501  0.18930060076E+02  0.14653950939E+02  0.22428619940E+02  0.32804396733E+02  0.00000000000E+00 0. -1.
<scales pt_clust_5="13000.00000" pt_clust_6="13000.00000" pt_clust_7="13000.00000" pt_clust_8="13000.00000" pt_clust_9="23.93920"></scales>
<clustering>
<clus scale="   23.939">  1  9  2 -1</clus>
<clus scale="   85.413">  5  6 -1 -1</clus>
<clus scale="   92.298">  7  8 -1 -1</clus>
<clus scale="  156.783">  2  5  1 -1</clus>
<clus scale="   23.939">  1  5  2 -1</clus>
</clustering>
</event>
<event>
 9    1  0.2951046E-005  0.1228482E+03  0.7546771E-02  0.1240765E+00
         -2   -1    0    0    0  501 -0.00000000000E+00  0.00000000000E+00  0.84798716653E+03  0.84798716653E+03  0.00000000000E+00 0.  1.
          1   -1    0    0  502    0  0.00000000000E+00 -0.00000000000E+00 -0.78044018746E+02  0.78044018746E+02  0.00000000000E+00 0. -1.
        -24    2    1    2    0    0 -0.76861753052E+02  0.24641415494E+02  0.74794562326E+03  0.75714209150E+03  0.85595344087E+02 0.  0.
         23    2    1    2    0    0  0.56450762921E+02 -0.58768720446E+02  0.61222376483E+00  0.12373809655E+03  0.93114395147E+02 0.  0.
         13    1    3    3    0    0 -0.15741175177E+02 -0.29261872258E+02  0.14781352890E+03  0.15150208279E+03  0.00000000000E+00 0. -1.
        -14    1    3    3    0    0 -0.61120577875E+02  0.53903287752E+02  0.60013209436E+03  0.60564000871E+03  0.00000000000E+00 0.  1.
        -11    1    4    4    0    0  0.47897297840E+01  0.23619556224E+02  0.98907230166E+01  0.26050937592E+02  0.00000000000E+00 0. -1.
         11    1    4    4    0    0  0.51661033137E+02 -0.82388276671E+02 -0.92784992518E+01  0.97687158962E+02  0.00000000000E+00 0.  1.
         21    1    1    2  502  501  0.20410990131E+02  0.34127304953E+02  0.21385300759E+02  0.45150997221E+02  0.00000000000E+00 0. -1.
<scales pt_clust_5="13000.00000" pt_clust_6="13000.00000" pt_clust_7="13000.00000" pt_clust_8="13000.00000" pt_clust_9="39.76533"></scales>
<clustering>
<clus scale="   39.765">  2  9  1 -1</clus>
<clus scale="   85.595">  5  6 -1 -1</clus>
<clus scale="   93.114">  7  8 -1 -1</clus>
<clus scale="  117.252">  1  5  2 -1</clus>
<clus scale="   39.765">  2  5  1 -1</clus>
</clustering>
</event>
<event>
 9    1  0.2951046E-005  0.2026724E+03  0.7546771E-02  0.1148340E+00
          3   -1    0    0  502    0  0.00000000000E+00  0.00000000000E+00  0.10143277503E+04  0.10143277503E+04  0.00000000000E+00 0. -1.
         -4   -1    0    0    0  501 -0.00000000000E+00 -0.00000000000E+00 -0.58617688969E+02  0.58617688969E+02  0.00000000000E+00 0.  1.
         23    2    1    2    0    0 -0.48348005531E+02 -0.16275737813E+03  0.24274791935E+03  0.30966834252E+03  0.90224366076E+02 0.  0.
        -24    2    1    2    0    0  0.31389110968E+02  0.20270337895E+03  0.50821488993E+03  0.55398131488E+03  0.80864001677E+02 0.  0.
         11    1    4    4    0    0  0.13388652124E+02  0.20187179928E+03  0.46078726000E+03  0.50324584283E+03  0.00000000000E+00 0. -1.
        -12    1    4    4    0    0  0.18000458844E+02  0.83157967056E+00  0.47427629924E+02  0.50735472044E+02  0.00000000000E+00 0.  1.
        -11    1    3    3    0    0 -0.44650373879E+02 -0.11032216108E+03  0.22437271706E+03  0.25398376183E+03  0.00000000000E+00 0.  1.
         11    1    3    3    0    0 -0.36976316522E+01 -0.52435217047E+02  0.18375202286E+02  0.55684580681E+02  0.00000000000E+00 0. -1.
         21    1    1    2  502  501  0.16958894563E+02 -0.39946000820E+02  0.20474725203E+03  0.20929578185E+03  0.00000000000E+00 0. -1.
<scales pt_clust_5="13000.00000" pt_clust_6="13000.00000" pt_clust_7="13000.00000" pt_clust_8="13000.00000" pt_clust_9="43.39686"></scales>
<clustering>
<clus scale="   43.397">  1  9  2 -1</clus>
<clus scale="   80.864">  5  6 -1 -1</clus>
<clus scale="   90.224">  7  8 -1 -1</clus>
<clus scale="  198.682">  1  5  2 -1</clus>
<clus scale="   43.397">  1  5  2 -1</clus>
</clustering>
</event>
<event>
 9    1  0.2951046E-005  0.1965908E+03  0.7546771E-02  0.1170935E+00
         -2   -1    0    0    0  501 -0.00000000000E+00  0.00000000000E+00  0.10414459382E+04  0.10414459382E+04  0.00000000000E+00 0.  1.
          1   -1    0    0  502    0  0.00000000000E+00 -0.00000000000E+00 -0.33562266646E+03  0.33562266646E+03  0.00000000000E+00 0. -1.
        -24    2    1    2    0    0 -0.73367713975E+02 -0.16064074080E+03  0.89212394412E+03  0.91298731135E+03  0.80451413660E+02 0.  0.
         23    2    1    2    0    0  0.67070357052E+02 -0.61577240181E+02 -0.20391021292E+03  0.24107774246E+03  0.90823530399E+02 0.  0.
         11    1    3    3    0    0 -0.12653146591E+02 -0.11907744221E+03  0.51316178406E+03  0.52694834280E+03  0.00000000000E+00 0. -1.
        -12    1    3    3    0    0 -0.60714567385E+02 -0.41563298591E+02  0.37896216006E+03  0.38603896855E+03  0.00000000000E+00 0.  1.
        -13    1    4    4    0    0  0.21080847740E+02 -0.68515315852E+02 -0.73710214331E+02  0.10281997055E+03  0.00000000000E+00 0. -1.
         13    1    4    4    0    0  0.45989509312E+02  0.69380756711E+01 -0.13019999859E+03  0.13825777191E+03  0.00000000000E+00 0.  1.
         21    1    1    2  502  501  0.62973569233E+01  0.22221798099E+03  0.17609540546E+02  0.22300355086E+03  0.00000000000E+00 0. -1.
<scales pt_clust_5="13000.00000" pt_clust_6="13000.00000" pt_clust_7="13000.00000" pt_clust_8="13000.00000" pt_clust_9="179.37536"></scales>
<clustering>
<clus scale="   80.451">  5  6 -1 -1</clus>
<clus scale="   90.824">  7  8 -1 -1</clus>
<clus scale="  128.604">  2  7  1 -1</clus>
<clus scale="  179.375">  2  9  1 -1</clus>
<clus scale="  128.604">  2  5  1 -1</clus>
</clustering>
</event>
<event>
 9    1  0.2951046E-005  0.1003879E+03  0.7546771E-02  0.1284169E+00
         -2   -1    0    0    0  501 -0.00000000000E+00  0.00000000000E+00  0.33405086439E+03  0.33405086439E+03  0.00000000000E+00 0.  1.
          1   -1    0    0  502    0  0.00000000000E+00 -0.00000000000E+00 -0.60229394520E+02  0.60229394520E+02  0.00000000000E+00 0. -1.
        -24    2    1    2    0    0  0.39185217555E+02  0.27249276289E+02  0.23621562375E+03  0.25426233877E+03  0.81077195814E+02 0.  0.
         23    2    1    2    0    0 -0.63777236245E+01 -0.26101749399E+02  0.64484156854E+01  0.94758291913E+02  0.90639809913E+02 0.  0.
         11    1    3    3    0    0  0.33182764488E+02 -0.24875008736E+02  0.11126982888E+03  0.11874694412E+03  0.00000000000E+00 0. -1.
        -12    1    3    3    0    0  0.60024530669E+01  0.52124285025E+02  0.12494579486E+03  0.13551539464E+03  0.00000000000E+00 0.  1.
        -11    1    4    4    0    0 -0.42389830198E+02 -0.43906854821E+01 -0.17836944038E+02  0.46198835438E+02  0.00000000000E+00 0. -1.
         11    1    4    4    0    0  0.36012106574E+02 -0.21711063917E+02  0.24285359723E+02  0.48559456475E+02  0.00000000000E+00 0.  1.
         21    1    1    2  502  501 -0.32807493930E+02 -0.11475268894E+01  0.31157430441E+02  0.45259628231E+02  0.00000000000E+00 0.  1.
<scales pt_clust_5="13000.00000" pt_clust_6="13000.00000" pt_clust_7="13000.00000" pt_clust_8="13000.00000" pt_clust_9="32.82756"></scales>
<clustering>
<clus scale="   32.828">  2  9  1 -1</clus>
<clus scale="   81.077">  5  6 -1 -1</clus>
<clus scale="   90.640">  7  8 -1 -1</clus>
<clus scale="   91.846">  1  5  2 -1</clus>
<clus scale="   32.828">  2  5  1 -1</clus>
</clustering>
</event>
<event>
 9    1  0.2951046E-005  0.9031982E+02  0.7546771E-02  0.1308002E+00
          1   -1    0    0  502    0  0.00000000000E+00  0.00000000000E+00  0.45347531803E+03  0.45347531803E+03  0.00000000000E+00 0. -1.
         -2   -1    0    0    0  501 -0.00000000000E+00 -0.00000000000E+00 -0.47056148699E+02  0.47056148699E+02  0.00000000000E+00 0.  1.
        -24    2    1    2    0    0 -0.63270105812E+01 -0.96989719360E+01  0.13111332951E+02  0.82133988488E+02  0.80249510239E+02 0.  0.
         23    2    1    2    0    0  0.33974011744E+02 -0.23939199057E+02  0.28683441022E+03  0.30336498849E+03  0.89604791324E+02 0.  0.
         11    1    3    3    0    0  0.90246845928E+00 -0.25970599305E+02  0.41298575258E+02  0.48794044677E+02  0.00000000000E+00 0. -1.
        -12    1    3    3    0    0 -0.72294790405E+01  0.16271627369E+02 -0.28187242307E+02  0.33339943811E+02  0.00000000000E+00 0.  1.
        -11    1    4    4    0    0  0.21960605127E+02 -0.51702007065E+02  0.24721930912E+03  0.25352071417E+03  0.00000000000E+00 0. -1.
         11    1    4    4    0    0  0.12013406617E+02  0.27762808008E+02  0.39615101106E+02  0.49844274322E+02  0.00000000000E+00 0.  1.
         21    1    1    2  502  501 -0.27647001163E+02  0.33638170993E+02  0.10647342616E+03  0.11503248976E+03  0.00000000000E+00 0.  1.
<scales pt_clust_5="13000.00000" pt_clust_6="13000.00000" pt_clust_7="13000.00000" pt_clust_8="13000.00000" pt_clust_9="43.54174"></scales>
<clustering>
<clus scale="   43.542">  1  9  2 -1</clus>
<clus scale="   80.250">  5  6 -1 -1</clus>
<clus scale="   81.047">  2  5  1 -1</clus>
<clus scale="   89.605">  7  8 -1 -1</clus>
<clus scale="   43.542">  1  5  2 -1</clus>
</clustering>
</event>
<event>
 9    1  0.2951046E-005  0.1578625E+03  0.7546771E-02  0.1219026E+00
          1   -1    0    0  502    0  0.00000000000E+00  0.00000000000E+00  0.70438358867E+03  0.70438358867E+03  0.00000000000E+00 0. -1.
         -2   -1    0    0    0  501 -0.00000000000E+00 -0.00000000000E+00 -0.98517330166E+02  0.98517330166E+02  0.00000000000E+00 0.  1.
        -24    2    1    2    0    0 -0.25256951815E+02  0.24811097383E+02 -0.36184139204E+02  0.93832018493E+02  0.79004123919E+02 0.  0.
         23    2    1    2    0    0  0.40666304252E+02  0.11529829862E+03  0.41192469109E+03  0.43920609847E+03  0.90953833524E+02 0.  0.
         13    1    3    3    0    0 -0.12896288952E+02  0.27686713133E+02 -0.59728763300E+02  0.67084972372E+02  0.00000000000E+00 0. -1.
        -14    1    3    3    0    0 -0.12360662864E+02 -0.28756157503E+01  0.23544624096E+02  0.26747046121E+02  0.00000000000E+00 0.  1.
        -13    1    4    4    0    0  0.14722743029E+02  0.31132881508E+02  0.25447237594E+02  0.42820291621E+02  0.00000000000E+00 0.  1.
         13    1    4    4    0    0  0.25943561223E+02  0.84165417112E+02  0.38647745350E+03  0.39638580685E+03  0.00000000000E+00 0. -1.
         21    1    1    2  502  501 -0.15409352436E+02 -0.14010939600E+03  0.23012570661E+03  0.26986280188E+03  0.00000000000E+00 0.  1.
<scales pt_clust_5="13000.00000" pt_clust_6="13000.00000" pt_clust_7="13000.00000" pt_clust_8="13000.00000" pt_clust_9="129.02695"></scales>
<clustering>
<clus scale="   79.004">  5  6 -1 -1</clus>
<clus scale="   86.575">  2  5  1 -1</clus>
<clus scale="   90.954">  7  8 -1 -1</clus>
<clus scale="  129.027">  2  9  1 -1</clus>
<clus scale="  157.862">  1  5  2 -1</clus>
</clustering>
</event>
<event>
 9    1  0.2951046E-005  0.9365210E+02  0.7546771E-02  0.1302523E+00
         -2   -1    0    0    0  501 -0.00000000000E+00  0.00000000000E+00  0.39786027271E+03  0.39786027271E+03  0.00000000000E+00 0.  1.
          1   -1    0    0  502    0  0.00000000000E+00 -0.00000000000E+00 -0.62868130682E+02  0.62868130682E+02  0.00000000000E+00 0. -1.
        -24    2    1    2    0    0 -0.36907230139E+02 -0.41172589801E+02  0.10816076904E+03  0.14544177042E+03  0.79982690862E+02 0.  0.
         23    2    1    2    0    0 -0.81874963209E+01 -0.11373494345E+02  0.19059558050E+02  0.96280349048E+02  0.93328706142E+02 0.  0.
         13    1    3    3    0    0 -0.61531302742E+01  0.23751781639E+02  0.36427857562E+02  0.43920347787E+02  0.00000000000E+00 0. -1.
        -14    1    3    3    0    0 -0.30754099865E+02 -0.64924371439E+02  0.71732911476E+02  0.10152142264E+03  0.00000000000E+00 0.  1.
        -13    1    4    4    0    0 -0.44322090167E+02  0.15776745619E+02 -0.45784027372E+00  0.47048517477E+02  0.00000000000E+00 0.  1.
         13    1    4    4    0    0  0.36134593846E+02 -0.27150239964E+02  0.19517398324E+02  0.49231831571E+02  0.00000000000E+00 0. -1.
         21    1    1    2  502  501  0.45094726460E+02  0.52546084145E+02  0.20777181494E+03  0.21900628392E+03  0.00000000000E+00 0. -1.
<scales pt_clust_5="13000.00000" pt_clust_6="13000.00000" pt_clust_7="13000.00000" pt_clust_8="13000.00000" pt_clust_9="69.24323"></scales>
<clustering>
<clus scale="   69.243">  1  9  2 -1</clus>
<clus scale="   79.983">  5  6 -1 -1</clus>
<clus scale="   80.360">  1  5  2 -1</clus>
<clus scale="   93.329">  7  8 -1 -1</clus>
<clus scale="   93.652">  2  5  1 -1</clus>
</clustering>
</event>
<event>
 9    1  0.2951046E-005  0.1228992E+03  0.7546771E-02  0.1240966E+00
          1   -1    0    0  502    0  0.00000000000E+00  0.00000000000E+00  0.57471228007E+02  0.57471228007E+02  0.00000000000E+00 0. -1.
         -2   -1    0    0    0  501 -0.00000000000E+00 -0.00000000000E+00 -0.65247341971E+03  0.65247341971E+03  0.00000000000E+00 0.  1.
        -24    2    1    2    0    0  0.34638300382E+02 -0.86362956104E+02 -0.48021768566E+03  0.49599952384E+03  0.82147002345E+02 0.  0.
         23    2    1    2    0    0  0.17860723904E+02  0.42899540254E+02 -0.32452197218E+02  0.10706282812E+03  0.90829114543E+02 0.  0.
         11    1    3    3    0    0 -0.21870545754E+02 -0.43018993219E+02 -0.13130212736E+03  0.13988996818E+03  0.00000000000E+00 0. -1.
        -12    1    3    3    0    0  0.56508846136E+02 -0.43343962885E+02 -0.34891555830E+03  0.35610955566E+03  0.00000000000E+00 0.  1.
        -13    1    4    4    0    0  0.14054880376E+02 -0.16027651189E+02 -0.42138481683E+02  0.47223690067E+02  0.00000000000E+00 0.  1.
         13    1    4    4    0    0  0.38058435273E+01  0.58927191443E+02  0.96862844647E+01  0.59839138054E+02  0.00000000000E+00 0. -1.
         21    1    1    2  502  501 -0.52499024286E+02  0.43463415850E+02 -0.82332308828E+02  0.10688229575E+03  0.00000000000E+00 0. -1.
<scales pt_clust_5="13000.00000" pt_clust_6="13000.00000" pt_clust_7="13000.00000" pt_clust_8="13000.00000" pt_clust_9="68.15582"></scales>
<clustering>
<clus scale="   68.156">  1  9  2 -1</clus>
<clus scale="   82.147">  5  6 -1 -1</clus>
<clus scale="   90.829">  7  8 -1 -1</clus>
<clus scale="  116.629">  2  5  1 -1</clus>
<clus scale="   68.156">  1  5  2 -1</clus>
</clustering>
</event>
<event>
 9    1  0.2951046E-005  0.1270642E+03  0.7546771E-02  0.1234601E+00
         -2   -1    0    0    0  501 -0.00000000000E+00  0.00000000000E+00  0.63464974033E+02  0.63464974033E+02  0.00000000000E+00 0.  1.
          1   -1    0    0  502    0  0.00000000000E+00 -0.00000000000E+00 -0.54657627566E+03  0.54657627566E+03  0.00000000000E+00 0. -1.
         23    2    1    2    0    0 -0.48138901023E+02  0.60211817850E+02 -0.52033938599E+02  0.12988077737E+03  0.90656873782E+02 0.  0.
        -24    2    1    2    0    0  0.73468055561E+02 -0.11038017559E+03 -0.31090657395E+03  0.34749755838E+03  0.80686535449E+02 0.  0.
         11    1    4    4    0    0  0.39222082688E+02 -0.10757847801E+03 -0.27455942538E+03  0.29748004768E+03  0.00000000000E+00 0. -1.
        -12    1    4    4    0    0  0.34245972873E+02 -0.28016975758E+01 -0.36347148565E+02  0.50017510695E+02  0.00000000000E+00 0.  1.
        -13    1    3    3    0    0 -0.63179767613E+02  0.74188678472E+02 -0.49174389242E+02  0.10915018830E+03  0.00000000000E+00 0.  1.
         13    1    3    3    0    0  0.15040866590E+02 -0.13976860622E+02 -0.28595493564E+01  0.20730589069E+02  0.00000000000E+00 0. -1.
         21    1    1    2  502  501 -0.25329154538E+02  0.50168357739E+02 -0.12017078908E+03  0.13266291394E+03  0.00000000000E+00 0.  1.
<scales pt_clust_5="13000.00000" pt_clust_6="13000.00000" pt_clust_7="13000.00000" pt_clust_8="13000.00000" pt_clust_9="56.19991"></scales>
<clustering>
<clus scale="   56.200">  2  9  1 -1</clus>
<clus scale="   80.687">  5  6 -1 -1</clus>
<clus scale="   90.657">  7  8 -1 -1</clus>
<clus scale="  120.154">  2  5  1 -1</clus>
<clus scale="   56.200">  2  5  1 -1</clus>
</clustering>
</event>
<event>
 9    1  0.2951046E-005  0.9748593E+02  0.7546771E-02  0.1290411E+00
          1   -1    0    0  502    0  0.00000000000E+00  0.00000000000E+00  0.19117013954E+03  0.19117013954E+03  0.00000000000E+00 0. -1.
         -2   -1    0    0    0  501 -0.00000000000E+00 -0.00000000000E+00 -0.90080127622E+02  0.90080127622E+02  0.00000000000E+00 0.  1.
        -24    2    1    2    0    0  0.41003123814E+02  0.34158543652E+01 -0.33986481446E+02  0.96766748698E+02  0.80720496214E+02 0.  0.
         23    2    1    2    0    0 -0.24546990364E+02  0.19116540696E+02  0.11894147703E+03  0.15225229281E+03  0.89809180167E+02 0.  0.
         11    1    3    3    0    0 -0.16660836921E+01  0.29172355100E+02 -0.36629482746E+02  0.46856388499E+02  0.00000000000E+00 0. -1.
        -12    1    3    3    0    0  0.42669207506E+02 -0.25756500735E+02  0.26430013001E+01  0.49910360199E+02  0.00000000000E+00 0.  1.
        -13    1    4    4    0    0 -0.49882039928E+02  0.31844175491E+02  0.10529612992E+03  0.12078718639E+03  0.00000000000E+00 0. -1.
         13    1    4    4    0    0  0.25335049564E+02 -0.12727634795E+02  0.13645347108E+02  0.31465106413E+02  0.00000000000E+00 0.  1.
         21    1    1    2  502  501 -0.16456133450E+02 -0.22532395062E+02  0.16135016330E+02  0.32231225656E+02  0.00000000000E+00 0. -1.
<scales pt_clust_5="13000.00000" pt_clust_6="13000.00000" pt_clust_7="13000.00000" pt_clust_8="13000.00000" pt_clust_9="27.90185"></scales>
<clustering>
<clus scale="   27.902">  1  9  2 -1</clus>
<clus scale="   80.720">  5  6 -1 -1</clus>
<clus scale="   89.183">  2  5  1 -1</clus>
<clus scale="   89.809">  7  8 -1 -1</clus>
<clus scale="   27.902">  1  5  2 -1</clus>
</clustering>
</event>
<event>
 9    1  0.2951046E-005  0.1818724E+03  0.7546771E-02  0.1166956E+00
         -2   -1    0    0    0  501 -0.00000000000E+00  0.00000000000E+00  0.11528694519E+03  0.11528694519E+03  0.00000000000E+00 0.  1.
          1   -1    0    0  502    0  0.00000000000E+00 -0.00000000000E+00 -0.44568929819E+03  0.44568929819E+03  0.00000000000E+00 0. -1.
        -24    2    1    2    0    0 -0.13347962390E+03 -0.64351405629E+02 -0.56549309331E+02  0.17973104417E+03  0.84542950337E+02 0.  0.
         23    2    1    2    0    0  0.15181796713E+03  0.74210421729E+02 -0.12216926177E+03  0.22813914210E+03  0.92554080392E+02 0.  0.
         13    1    3    3    0    0 -0.49154845002E+02 -0.40761297485E+02 -0.65787802259E+02  0.91682697854E+02  0.00000000000E+00 0. -1.
        -14    1    3    3    0    0 -0.84324778894E+02 -0.23590108145E+02  0.92384929277E+01  0.88048346319E+02  0.00000000000E+00 0.  1.
        -11    1    4    4    0    0  0.21276928422E+02 -0.19234478410E+02 -0.43612605363E+01  0.29011953334E+02  0.00000000000E+00 0.  1.
         11    1    4    4    0    0  0.13054103871E+03  0.93444900139E+02 -0.11780800123E+03  0.19912718876E+03  0.00000000000E+00 0. -1.
         21    1    1    2  502  501 -0.18338343238E+02 -0.98590161001E+01 -0.15168378191E+03  0.15310605711E+03  0.00000000000E+00 0.  1.
<scales pt_clust_5="13000.00000" pt_clust_6="13000.00000" pt_clust_7="13000.00000" pt_clust_8="13000.00000" pt_clust_9="20.82054"></scales>
<clustering>
<clus scale="   20.821">  2  9  1 -1</clus>
<clus scale="   84.543">  5  6 -1 -1</clus>
<clus scale="   92.554">  7  8 -1 -1</clus>
<clus scale="  177.929">  1  5  2 -1</clus>
<clus scale="   20.821">  2  5  1 -1</clus>
</clustering>
</event>
<event>
 9    1  0.2951046E-005  0.1067751E+03  0.7546771E-02  0.1271613E+00
         -4   -1    0    0    0  501 -0.00000000000E+00  0.00000000000E+00  0.35574045013E+03  0.35574045013E+03  0.00000000000E+00 0.  1.
          3   -1    0    0  502    0  0.00000000000E+00 -0.00000000000E+00 -0.14985258875E+03  0.14985258875E+03  0.00000000000E+00 0. -1.
         23    2    1    2    0    0  0.41634158016E+02  0.34942519365E+02  0.30562080297E+03  0.32336167452E+03  0.90577671455E+02 0.  0.
        -24    2    1    2    0    0 -0.68263458072E+02 -0.36821989905E+02 -0.41411392296E+02  0.11809046364E+03  0.78833340303E+02 0.  0.
         13    1    4    4    0    0 -0.66432172276E+02 -0.56111418914E+02 -0.20029159225E+02  0.89235038326E+02  0.00000000000E+00 0. -1.
        -14    1    4    4    0    0 -0.18312857964E+01  0.19289429010E+02 -0.21382233071E+02  0.28855425318E+02  0.00000000000E+00 0.  1.
        -13    1    3    3    0    0  0.65586102708E+02  0.44165843348E+02  0.21126017939E+03  0.22557265345E+03  0.00000000000E+00 0.  1.
         13    1    3    3    0    0 -0.23951944692E+02 -0.92233239831E+01  0.94360623580E+02  0.97789021072E+02  0.00000000000E+00 0. -1.
         21    1    1    2  502  501  0.26629300056E+02  0.18794705396E+01 -0.58321549296E+02  0.64140900706E+02  0.00000000000E+00 0. -1.
<scales pt_clust_5="13000.00000" pt_clust_6="13000.00000" pt_clust_7="13000.00000" pt_clust_8="13000.00000" pt_clust_9="26.69554"></scales>
<clustering>
<clus scale="   26.696">  2  9  1 -1</clus>
<clus scale="   78.833">  5  6 -1 -1</clus>
<clus scale="   90.578">  7  8 -1 -1</clus>
<clus scale="   97.012">  2  5  1 -1</clus>
<clus scale="   26.696">  2  5  1 -1</clus>
</clustering>
</event>
<event>
 9    1  0.2951046E-005  0.1024489E+03  0.7546771E-02  0.1279240E+00
          1   -1    0    0  502    0  0.00000000000E+00  0.00000000000E+00  0.36547356792E+03  0.36547356792E+03  0.00000000000E+00 0. -1.
         -2   -1    0    0    0  501 -0.00000000000E+00 -0.00000000000E+00 -0.47775614028E+02  0.47775614028E+02  0.00000000000E+00 0.  1.
         23    2    1    2    0    0 -0.14113569834E+02  0.40867248520E+02  0.42053136843E+02  0.10830597969E+03  0.89957734866E+02 0.  0.
        -24    2    1    2    0    0  0.24112190692E+02 -0.59974601717E+02  0.18881142414E+03  0.21547196952E+03  0.81240785141E+02 0.  0.
         11    1    4    4    0    0  0.50691589483E+02 -0.54362122837E+02  0.15652753016E+03  0.17327938522E+03  0.00000000000E+00 0. -1.
        -12    1    4    4    0    0 -0.26579398791E+02 -0.56124788800E+01  0.32283893984E+02  0.42192584301E+02  0.00000000000E+00 0.  1.
        -11    1    3    3    0    0 -0.21387721570E+02  0.67824726706E+02  0.24004934174E+02  0.75059077075E+02  0.00000000000E+00 0.  1.
         11    1    3    3    0    0  0.72741517355E+01 -0.26957478186E+02  0.18048202669E+02  0.33246902610E+02  0.00000000000E+00 0. -1.
         21    1    1    2  502  501 -0.99986208581E+01  0.19107353197E+02  0.86833392909E+02  0.89471232747E+02  0.00000000000E+00 0. -1.
<scales pt_clust_5="13000.00000" pt_clust_6="13000.00000" pt_clust_7="13000.00000" pt_clust_8="13000.00000" pt_clust_9="21.56533"></scales>
<clustering>
<clus scale="   21.565">  1  9  2 -1</clus>
<clus scale="   81.241">  5  6 -1 -1</clus>
<clus scale="   89.958">  7  8 -1 -1</clus>
<clus scale="   94.887">  1  5  2 -1</clus>
<clus scale="   21.565">  1  5  2 -1</clus>
</clustering>
</event>
<event>
 9    1  0.2951046E-005  0.2097143E+03  0.7546771E-02  0.1145261E+00
         -2   -1    0    0    0  501 -0.00000000000E+00  0.00000000000E+00  0.23847471180E+03  0.23847471180E+03  0.00000000000E+00 0.  1.
          1   -1    0    0  502    0  0.00000000000E+00 -0.00000000000E+00 -0.64866324948E+03  0.64866324948E+03  0.00000000000E+00 0. -1.
        -24    2    1    2    0    0  0.16214437496E+03  0.10918643537E+03 -0.19913578205E+03  0.28510834947E+03  0.58474227170E+02 0.  0.
         23    2    1    2    0    0 -0.20225949108E+03  0.79582101977E+02 -0.30427429959E+03  0.38770966526E+03  0.10243887183E+03 0.  0.
         13    1    3    3    0    0  0.56451206244E+02  0.44804484160E+02 -0.11408459159E+03  0.13494248599E+03  0.00000000000E+00 0. -1.
        -14    1    3    3    0    0  0.10569316871E+03  0.64381951207E+02 -0.85051190460E+02  0.15016586347E+03  0.00000000000E+00 0.  1.
        -13    1    4    4    0    0 -0.40504199498E+02  0.24176750323E+02 -0.11321239492E+02  0.48510575103E+02  0.00000000000E+00 0. -1.
         13    1    4    4    0    0 -0.16175529158E+03  0.55405351654E+02 -0.29295306010E+03  0.33919909016E+03  0.00000000000E+00 0.  1.
         21    1    1    2  502  501  0.40115116121E+02 -0.18876853734E+03  0.93221543958E+02  0.21431994655E+03  0.00000000000E+00 0.  1.
<scales pt_clust_5="13000.00000" pt_clust_6="13000.00000" pt_clust_7="13000.00000" pt_clust_8="13000.00000" pt_clust_9="192.98389"></scales>
<clustering>
<clus scale="   58.474">  5  6 -1 -1</clus>
<clus scale="  102.439">  7  8 -1 -1</clus>
<clus scale="  192.984">  1  9  2 -1</clus>
<clus scale="  192.984">  1  5  2 -1</clus>
<clus scale="  209.714">  2  5  1 -1</clus>
</clustering>
</event>
<event>
 9    1  0.2951046E-005  0.1335930E+03  0.7546771E-02  0.1225087E+00
          1   -1    0    0  502    0  0.00000000000E+00  0.00000000000E+00  0.21218999440E+03  0.21218999440E+03  0.00000000000E+00 0. -1.
         -2   -1    0    0    0  501 -0.00000000000E+00 -0.00000000000E+00 -0.12560123089E+03  0.12560123089E+03  0.00000000000E+00 0.  1.
        -24    2    1    2    0    0  0.43996438497E+02  0.90362699087E+02 -0.48508261593E+02  0.13849848260E+03  0.82022400918E+02 0.  0.
         23    2    1    2    0    0 -0.43868344775E+02 -0.67412294678E+02  0.10961768688E+03  0.16500084647E+03  0.93490068510E+02 0.  0.
         11    1    3    3    0    0  0.58244642992E+02  0.47213707929E+02 -0.42986941197E+01  0.75100275797E+02  0.00000000000E+00 0. -1.
        -12    1    3    3    0    0 -0.14248204495E+02  0.43148991158E+02 -0.44209567474E+02  0.63398206801E+02  0.00000000000E+00 0.  1.
        -11    1    4    4    0    0  0.23276908447E+02 -0.28103305139E+02  0.85963587797E+01  0.37490100171E+02  0.00000000000E+00 0.  1.
         11    1    4    4    0    0 -0.67145253222E+02 -0.39308989539E+02  0.10102132810E+03  0.12751074630E+03  0.00000000000E+00 0. -1.
         21    1    1    2  502  501 -0.12809372202E+00 -0.22950404409E+02  0.25479338218E+02  0.34291896223E+02  0.00000000000E+00 0. -1.
<scales pt_clust_5="13000.00000" pt_clust_6="13000.00000" pt_clust_7="13000.00000" pt_clust_8="13000.00000" pt_clust_9="22.95076"></scales>
<clustering>
<clus scale="   22.951">  1  9  2 -1</clus>
<clus scale="   82.022">  5  6 -1 -1</clus>
<clus scale="   93.490">  7  8 -1 -1</clus>
<clus scale="  125.835">  2  5  1 -1</clus>
<clus scale="   22.951">  1  5  2 -1</clus>
</clustering>
</event>
<event>
 9    1  0.2951046E-005  0.1587986E+03  0.7546771E-02  0.1190185E+00
          1   -1    0    0  502    0  0.00000000000E+00  0.00000000000E+00  0.50496446609E+03  0.50496446609E+03  0.00000000000E+00 0. -1.
         -2   -1    0    0    0  501 -0.00000000000E+00 -0.00000000000E+00 -0.87199145277E+02  0.87199145277E+02  0.00000000000E+00 0.  1.
        -24    2    1    2    0    0  0.48450563209E+02 -0.11306526586E+03  0.45807932654E+02  0.15831533090E+03  0.88510823550E+02 0.  0.
         23    2    1    2    0    0 -0.79489378017E+02  0.13396433603E+03  0.26135803014E+03  0.31709042354E+03  0.89293405343E+02 0.  0.
         11    1    3    3    0    0  0.64083321730E+02 -0.37259654546E+02  0.23508860915E+02  0.77766448564E+02  0.00000000000E+00 0. -1.
        -12    1    3    3    0    0 -0.15632758520E+02 -0.75805611311E+02  0.22299071740E+02  0.80548882337E+02  0.00000000000E+00 0.  1.
        -13    1    4    4    0    0 -0.22483472753E+02  0.40786735830E+02  0.17263858733E+02  0.49669962604E+02  0.00000000000E+00 0. -1.
         13    1    4    4    0    0 -0.57005905265E+02  0.93177600204E+02  0.24409417140E+03  0.26742046094E+03  0.00000000000E+00 0.  1.
         21    1    1    2  502  501  0.31038814808E+02 -0.20899070176E+02  0.11059935802E+03  0.11675785693E+03  0.00000000000E+00 0.  1.
<scales pt_clust_5="13000.00000" pt_clust_6="13000.00000" pt_clust_7="13000.00000" pt_clust_8="13000.00000" pt_clust_9="37.41897"></scales>
<clustering>
<clus scale="   37.419">  1  9  2 -1</clus>
<clus scale="   88.511">  5  6 -1 -1</clus>
<clus scale="   89.293">  7  8 -1 -1</clus>
<clus scale="  158.360">  2  5  1 -1</clus>
<clus scale="   37.419">  1  5  2 -1</clus>
</clustering>
</event>
<event>
 9    1  0.2951046E-005  0.9204865E+02  0.7546771E-02  0.1303436E+00
          1   -1    0    0  502    0  0.00000000000E+00  0.00000000000E+00  0.47364642415E+03  0.47364642415E+03  0.00000000000E+00 0. -1.
         -2   -1    0    0    0  501 -0.00000000000E+00 -0.00000000000E+00 -0.39152789908E+02  0.39152789908E+02  0.00000000000E+00 0.  1.
        -24    2    1    2    0    0  0.31576669138E+02 -0.33664272500E+02  0.49289542659E+02  0.10332862972E+03  0.78211108084E+02 0.  0.
         23    2    1    2    0    0 -0.19361481967E+02  0.15725302788E+02  0.37424913344E+03  0.38515950580E+03  0.87540155882E+02 0.  0.
         13    1    3    3    0    0  0.24577912333E+02  0.63316540286E+01  0.56638617171E+02  0.62065260592E+02  0.00000000000E+00 0. -1.
        -14    1    3    3    0    0  0.69987568056E+01 -0.39995926529E+02 -0.73490745112E+01  0.41263369129E+02  0.00000000000E+00 0.  1.
        -11    1    4    4    0    0  0.31007422207E+02 -0.11371802735E+02  0.16247557098E+03  0.16579833924E+03  0.00000000000E+00 0.  1.
         11    1    4    4    0    0 -0.50368904174E+02  0.27097105523E+02  0.21177356246E+03  0.21936116656E+03  0.00000000000E+00 0. -1.
         21    1    1    2  502  501 -0.12215187171E+02  0.17938969712E+02  0.10954958142E+02  0.24311078542E+02  0.00000000000E+00 0.  1.
<scales pt_clust_5="13000.00000" pt_clust_6="13000.00000" pt_clust_7="13000.00000" pt_clust_8="13000.00000" pt_clust_9="21.70294"></scales>
<clustering>
<clus scale="   21.703">  2  9  1 -1</clus>
<clus scale="   78.211">  5  6 -1 -1</clus>
<clus scale="   83.227">  2  5  1 -1</clus>
<clus scale="   87.540">  7  8 -1 -1</clus>
<clus scale="   92.049">  1  5  2 -1</clus>
</clustering>
</event>
<event>
 9    1  0.2951046E-005  0.1040626E+03  0.7546771E-02  0.1284215E+00
         -2   -1    0    0    0  501 -0.00000000000E+00  0.00000000000E+00  0.82131649128E+02  0.82131649128E+02  0.00000000000E+00 0.  1.
          1   -1    0    0  502    0  0.00000000000E+00 -0.00000000000E+00 -0.17618690657E+03  0.17618690657E+03  0.00000000000E+00 0. -1.
         23    2    1    2    0    0  0.44061894732E+02  0.34997333358E+02 -0.11962288929E+01  0.10690916930E+03  0.90894860180E+02 0.  0.
        -24    2    1    2    0    0 -0.91408297221E+01 -0.48992784997E+02 -0.66370302363E+02  0.10539845223E+03  0.64961288065E+02 0.  0.
         11    1    4    4    0    0 -0.77622583275E+01 -0.25585207441E+02  0.76038118458E+01  0.27797004312E+02  0.00000000000E+00 0. -1.
        -12    1    4    4    0    0 -0.13785713946E+01 -0.23407577556E+02 -0.73974114209E+02  0.77601447919E+02  0.00000000000E+00 0.  1.
        -11    1    3    3    0    0 -0.19726530416E+02 -0.14828134522E+02  0.67330020801E+01  0.25580126909E+02  0.00000000000E+00 0. -1.
         11    1    3    3    0    0  0.63788425148E+02  0.49825467880E+02 -0.79292309731E+01  0.81329042391E+02  0.00000000000E+00 0.  1.
         21    1    1    2  502  501 -0.34921065010E+02  0.13995451639E+02 -0.26488726186E+02  0.46010934168E+02  0.00000000000E+00 0.  1.
<scales pt_clust_5="13000.00000" pt_clust_6="13000.00000" pt_clust_7="13000.00000" pt_clust_8="13000.00000" pt_clust_9="37.62118"></scales>
<clustering>
<clus scale="   37.621">  2  9  1 -1</clus>
<clus scale="   64.961">  5  6 -1 -1</clus>
<clus scale="   82.384">  2  5  1 -1</clus>
<clus scale="   90.895">  7  8 -1 -1</clus>
<clus scale="   37.621">  2  5  1 -1</clus>
</clustering>
</event>
<event>
 9    1  0.2951046E-005  0.1053853E+03  0.7546771E-02  0.1274026E+00
         -2   -1    0    0    0  501 -0.00000000000E+00  0.00000000000E+00  0.19561762557E+03  0.19561762557E+03  0.00000000000E+00 0.  1.
          1   -1    0    0  502    0  0.00000000000E+00 -0.00000000000E+00 -0.33878565421E+03  0.33878565421E+03  0.00000000000E+00 0. -1.
         23    2    1    2    0    0  0.52281094718E+02 -0.21776188636E+02  0.16501332121E+03  0.19625161820E+03  0.89876505335E+02 0.  0.
        -24    2    1    2    0    0 -0.41506109982E+02 -0.22339949696E+02 -0.23008959801E+03  0.24781531418E+03  0.79052996844E+02 0.  0.
         13    1    4    4    0    0 -0.42999680903E+02 -0.33827340382E+02 -0.77941000244E+02  0.95226367326E+02  0.00000000000E+00 0. -1.
        -14    1    4    4    0    0  0.14935709210E+01  0.11487390686E+02 -0.15214859777E+03  0.15258894685E+03  0.00000000000E+00 0.  1.
        -13    1    3    3    0    0  0.18583382031E+02 -0.43351592648E+02  0.14301097054E+03  0.15058831418E+03  0.00000000000E+00 0.  1.
         13    1    3    3    0    0  0.33697712688E+02  0.21575404012E+02  0.22002350672E+02  0.45663304017E+02  0.00000000000E+00 0. -1.
         21    1    1    2  502  501 -0.10774984736E+02  0.44116138332E+02 -0.78091751841E+02  0.90336347408E+02  0.00000000000E+00 0. -1.
<scales pt_clust_5="13000.00000" pt_clust_6="13000.00000" pt_clust_7="13000.00000" pt_clust_8="13000.00000" pt_clust_9="45.41293"></scales>
<clustering>
<clus scale="   45.413">  2  9  1 -1</clus>
<clus scale="   79.053">  5  6 -1 -1</clus>
<clus scale="   89.877">  7  8 -1 -1</clus>
<clus scale="   96.321">  2  5  1 -1</clus>
<clus scale="   45.413">  2  5  1 -1</clus>
</clustering>
</event>
<event>
 9    1  0.2951046E-005  0.1107405E+03  0.7546771E-02  0.1259811E+00
          1   -1    0    0  502    0  0.00000000000E+00  0.00000000000E+00  0.36970347523E+03  0.36970347523E+03  0.00000000000E+00 0. -1.
         -2   -1    0    0    0  501 -0.00000000000E+00 -0.00000000000E+00 -0.72525436263E+02  0.72525436263E+02  0.00000000000E+00 0.  1.
        -24    2    1    2    0    0 -0.36430154548E+02 -0.65831841069E+02 -0.16801233387E+01  0.11162484425E+03  0.82439648113E+02 0.  0.
         23    2    1    2    0    0  0.42308272375E+02  0.45991226525E+02  0.16733226956E+03  0.19746030014E+03  0.84174217353E+02 0.  0.
         13    1    3    3    0    0  0.15724970642E+02 -0.27666203277E+02  0.26218520245E+02  0.41232321173E+02  0.00000000000E+00 0. -1.
        -14    1    3    3    0    0 -0.52155125190E+02 -0.38165637792E+02 -0.27898643584E+02  0.70392523080E+02  0.00000000000E+00 0.  1.
        -11    1    4    4    0    0  0.56174735641E+02 -0.43580945892E+00  0.95979469247E+02  0.11121083298E+03  0.00000000000E+00 0.  1.
         11    1    4    4    0    0 -0.13866463266E+02  0.46427035984E+02  0.71352800310E+02  0.86249467163E+02  0.00000000000E+00 0. -1.
         21    1    1    2  502  501 -0.58781178269E+01  0.19840614544E+02  0.13152589275E+03  0.13314376710E+03  0.00000000000E+00 0. -1.
<scales pt_clust_5="13000.00000" pt_clust_6="13000.00000" pt_clust_7="13000.00000" pt_clust_8="13000.00000" pt_clust_9="20.69305"></scales>
<clustering>
<clus scale="   20.693">  1  9  2 -1</clus>
<clus scale="   82.440">  5  6 -1 -1</clus>
<clus scale="   84.174">  7  8 -1 -1</clus>
<clus scale="  109.428">  2  5  1 -1</clus>
<clus scale="   20.693">  1  5  2 -1</clus>
</clustering>
</event>
<event>
 9    1  0.2951046E-005  0.1606061E+03  0.7546771E-02  0.1189982E+00
          1   -1    0    0  502    0  0.00000000000E+00  0.00000000000E+00  0.45772233474E+02  0.45772233474E+02  0.00000000000E+00 0. -1.
         -2   -1    0    0    0  501 -0.00000000000E+00 -0.00000000000E+00 -0.77152069244E+03  0.77152069244E+03  0.00000000000E+00 0.  1.
         23    2    1    2    0    0  0.96136555786E+01 -0.12804489563E+03 -0.39044050999E+03  0.42174703136E+03  0.94545486158E+02 0.  0.
        -24    2    1    2    0    0 -0.58777496762E+02  0.12418398111E+03 -0.24704486402E+03  0.29444019685E+03  0.82385735381E+02 0.  0.
         11    1    4    4    0    0 -0.41688395834E+02  0.38728622143E+02 -0.16581247268E+03  0.17530432002E+03  0.00000000000E+00 0. -1.
        -12    1    4    4    0    0 -0.17089100928E+02  0.85455358967E+02 -0.81232391340E+02  0.11913587684E+03  0.00000000000E+00 0.  1.
        -13    1    3    3    0    0  0.37570824185E+02 -0.25199646995E+02 -0.18325614370E+03  0.18875752500E+03  0.00000000000E+00 0. -1.
         13    1    3    3    0    0 -0.27957168607E+02 -0.10284524863E+03 -0.20718436629E+03  0.23298950636E+03  0.00000000000E+00 0.  1.
         21    1    1    2  502  501  0.49163841184E+02  0.38609145156E+01 -0.88263084958E+02  0.10110569770E+03  0.00000000000E+00 0. -1.
<scales pt_clust_5="13000.00000" pt_clust_6="13000.00000" pt_clust_7="13000.00000" pt_clust_8="13000.00000" pt_clust_9="49.31521"></scales>
<clustering>
<clus scale="   49.315">  1  9  2 -1</clus>
<clus scale="   82.386">  5  6 -1 -1</clus>
<clus scale="   94.545">  7  8 -1 -1</clus>
<clus scale="  153.762">  1  5  2 -1</clus>
<clus scale="   49.315">  1  5  2 -1</clus>
</clustering>
</event>
<event>
 9    1  0.2951046E-005  0.1379975E+03  0.7546771E-02  0.1218320E+00
         -2   -1    0    0    0  501 -0.00000000000E+00  0.00000000000E+00  0.10650567462E+03  0.10650567462E+03  0.00000000000E+00 0.  1.
          1   -1    0    0  502    0  0.00000000000E+00 -0.00000000000E+00 -0.49598992717E+03  0.49598992717E+03  0.00000000000E+00 0. -1.
        -24    2    1    2    0    0  0.81905721684E+02  0.67323502328E+02  0.46358117614E+02  0.14176553436E+03  0.81898659660E+02 0.  0.
         23    2    1    2    0    0 -0.57473132646E+02 -0.56134609625E+02 -0.34289101163E+03  0.36397213348E+03  0.91908719487E+02 0.  0.
         11    1    3    3    0    0  0.21953982334E+02 -0.16737465374E+02 -0.21474371662E+01  0.27689918271E+02  0.00000000000E+00 0. -1.
        -12    1    3    3    0    0  0.59951739349E+02  0.84060967702E+02  0.48505554781E+02  0.11407561609E+03  0.00000000000E+00 0.  1.
        -13    1    4    4    0    0 -0.15266258872E+02 -0.16352123800E+02 -0.74873864313E+01  0.23590497415E+02  0.00000000000E+00 0.  1.
         13    1    4    4    0    0 -0.42206873774E+02 -0.39782485825E+02 -0.33540362520E+03  0.34038163606E+03  0.00000000000E+00 0. -1.
         21    1    1    2  502  501 -0.24432589038E+02 -0.11188892703E+02 -0.92951358543E+02  0.96757933948E+02  0.00000000000E+00 0. -1.
<scales pt_clust_5="13000.00000" pt_clust_6="13000.00000" pt_clust_7="13000.00000" pt_clust_8="13000.00000" pt_clust_9="26.87271"></scales>
<clustering>
<clus scale="   26.873">  2  9  1 -1</clus>
<clus scale="   81.899">  5  6 -1 -1</clus>
<clus scale="   91.909">  7  8 -1 -1</clus>
<clus scale="  131.543">  1  5  2 -1</clus>
<clus scale="   26.873">  2  5  1 -1</clus>
</clustering>
</event>
<event>
 9    1  0.2951046E-005  0.1496371E+03  0.7546771E-02  0.1202926E+00
          1   -1    0    0  502    0  0.00000000000E+00  0.00000000000E+00  0.38963922919E+03  0.38963922919E+03  0.00000000000E+00 0. -1.
         -2   -1    0    0    0  501 -0.00000000000E+00 -0.00000000000E+00 -0.54234709478E+03  0.54234709478E+03  0.00000000000E+00 0.  1.
        -24    2    1    2    0    0 -0.11357003222E+03 -0.25472748597E+02 -0.51430149501E+03  0.53394036211E+03  0.83900353895E+02 0.  0.
         23    2    1    2    0    0  0.10066480385E+03  0.43048564772E+02  0.31800640750E+03  0.34930891078E+03  0.94350719527E+02 0.  0.
         11    1    3    3    0    0 -0.92264292972E+01 -0.34029091829E+02 -0.18725052092E+03  0.19054097637E+03  0.00000000000E+00 0. -1.
        -12    1    3    3    0    0 -0.10434360292E+03  0.85563432325E+01 -0.32705097409E+03  0.34339938575E+03  0.00000000000E+00 0.  1.
        -13    1    4    4    0    0  0.73861413769E+02  0.72406143525E+02  0.24974245220E+03  0.27031361507E+03  0.00000000000E+00 0. -1.
         13    1    4    4    0    0  0.26803390084E+02 -0.29357578753E+02  0.68263955305E+02  0.78995295709E+02  0.00000000000E+00 0.  1.
         21    1    1    2  502  501  0.12905228364E+02 -0.17575816175E+02  0.43587221917E+02  0.48737051078E+02  0.00000000000E+00 0.  1.
<scales pt_clust_5="13000.00000" pt_clust_6="13000.00000" pt_clust_7="13000.00000" pt_clust_8="13000.00000" pt_clust_9="21.80491"></scales>
<clustering>
<clus scale="   21.805">  1  9  2 -1</clus>
<clus scale="   83.900">  5  6 -1 -1</clus>
<clus scale="   94.351">  7  8 -1 -1</clus>
<clus scale="  143.278">  2  5  1 -1</clus>
<clus scale="   21.805">  1  5  2 -1</clus>
</clustering>
</event>
<event>
 9    1  0.2951046E-005  0.9671729E+02  0.7546771E-02  0.1293192E+00
         -2   -1    0    0    0  501 -0.00000000000E+00  0.00000000000E+00  0.55978831929E+02  0.55978831929E+02  0.00000000000E+00 0.  1.
          1   -1    0    0  502    0  0.00000000000E+00 -0.00000000000E+00 -0.44790337917E+03  0.44790337917E+03  0.00000000000E+00 0. -1.
         23    2    1    2    0    0  0.11959189199E+02  0.26222061741E+02 -0.12091571584E+02  0.96307225217E+02  0.91094768222E+02 0.  0.
        -24    2    1    2    0    0 -0.57768997644E+02 -0.23644573620E+02 -0.25341531984E+03  0.27308853416E+03  0.80384701337E+02 0.  0.
         11    1    4    4    0    0 -0.26026624920E+02 -0.52640765150E+02 -0.15085315915E+03  0.16187992768E+03  0.00000000000E+00 0. -1.
        -12    1    4    4    0    0 -0.31742372724E+02  0.28996191531E+02 -0.10256216069E+03  0.11120860648E+03  0.00000000000E+00 0.  1.
        -13    1    3    3    0    0  0.46394744199E+02  0.20714330884E+02 -0.27959196758E+02  0.57993727908E+02  0.00000000000E+00 0. -1.
         13    1    3    3    0    0 -0.34435555000E+02  0.55077308572E+01  0.15867625174E+02  0.38313497309E+02  0.00000000000E+00 0.  1.
         21    1    1    2  502  501  0.45809808445E+02 -0.25774881213E+01 -0.12641765581E+03  0.13448645172E+03  0.00000000000E+00 0.  1.
<scales pt_clust_5="13000.00000" pt_clust_6="13000.00000" pt_clust_7="13000.00000" pt_clust_8="13000.00000" pt_clust_9="45.88226"></scales>
<clustering>
<clus scale="   45.882">  2  9  1 -1</clus>
<clus scale="   80.385">  5  6 -1 -1</clus>
<clus scale="   86.705">  2  5  1 -1</clus>
<clus scale="   91.095">  7  8 -1 -1</clus>
<clus scale="   45.882">  2  5  1 -1</clus>
</clustering>
</event>
<event>
 9    1  0.2951046E-005  0.1484815E+03  0.7546771E-02  0.1206732E+00
         -2   -1    0    0    0  501 -0.00000000000E+00  0.00000000000E+00  0.25929117112E+03  0.25929117112E+03  0.00000000000E+00 0.  1.
          1   -1    0    0  502    0  0.00000000000E+00 -0.00000000000E+00 -0.89983619148E+02  0.89983619148E+02  0.00000000000E+00 0. -1.
         23    2    1    2    0    0 -0.79506731455E+02 -0.89893319090E+02  0.99950791432E+02  0.18097504012E+03  0.91431259832E+02 0.  0.
        -24    2    1    2    0    0  0.60622936644E+02  0.97282324565E+02  0.59754478325E+02  0.14586319667E+03  0.67575760023E+02 0.  0.
         13    1    4    4    0    0  0.22323767451E+02  0.12267909325E+02 -0.12047606985E+02  0.28177952844E+02  0.00000000000E+00 0. -1.
        -14    1    4    4    0    0  0.38299169193E+02  0.85014415240E+02  0.71802085310E+02  0.11768524383E+03  0.00000000000E+00 0.  1.
        -11    1    3    3    0    0 -0.11145929107E+02 -0.79515357124E+02  0.41223727726E+02  0.90256963619E+02  0.00000000000E+00 0.  1.
         11    1    3    3    0    0 -0.68360802348E+02 -0.10377961967E+02  0.58727063706E+02  0.90718076500E+02  0.00000000000E+00 0. -1.
         21    1    1    2  502  501  0.18883794811E+02 -0.73890054744E+01  0.96022822188E+01  0.22436553483E+02  0.00000000000E+00 0.  1.
<scales pt_clust_5="13000.00000" pt_clust_6="13000.00000" pt_clust_7="13000.00000" pt_clust_8="13000.00000" pt_clust_9="20.27795"></scales>
<clustering>
<clus scale="   20.278">  2  9  1 -1</clus>
<clus scale="   67.576">  5  6 -1 -1</clus>
<clus scale="   91.431">  7  8 -1 -1</clus>
<clus scale="  135.106">  2  5  1 -1</clus>
<clus scale="   20.278">  2  5  1 -1</clus>
</clustering>
</event>
<event>
 9    1  0.2951046E-005  0.1081019E+03  0.7546771E-02  0.1268789E+00
          1   -1    0    0  502    0  0.00000000000E+00  0.00000000000E+00  0.32301508042E+03  0.32301508042E+03  0.00000000000E+00 0. -1.
         -2   -1    0    0    0  501 -0.00000000000E+00 -0.00000000000E+00 -0.43755531633E+02  0.43755531633E+02  0.00000000000E+00 0.  1.
         23    2    1    2    0    0 -0.15643497562E+02 -0.69247885617E+02  0.10986321525E+03  0.15946467594E+03  0.91208925710E+02 0.  0.
        -24    2    1    2    0    0  0.13261501641E+02  0.43380258059E+02  0.11635468649E+03  0.14824474428E+03  0.79877261607E+02 0.  0.
         11    1    4    4    0    0  0.15042077225E+02  0.36423980638E+02  0.12835052888E+03  0.13426402614E+03  0.00000000000E+00 0. -1.
        -12    1    4    4    0    0 -0.17805755843E+01  0.69562774211E+01 -0.11995842386E+02  0.13980718134E+02  0.00000000000E+00 0.  1.
        -13    1    3    3    0    0  0.13733646543E+02 -0.28021478139E+02  0.10390839386E+03  0.10849318227E+03  0.00000000000E+00 0. -1.
         13    1    3    3    0    0 -0.29377144105E+02 -0.41226407477E+02  0.59548213915E+01  0.50971493671E+02  0.00000000000E+00 0.  1.
         21    1    1    2  502  501  0.23819959211E+01  0.25867627558E+02  0.53041647043E+02  0.59061191836E+02  0.00000000000E+00 0. -1.
<scales pt_clust_5="13000.00000" pt_clust_6="13000.00000" pt_clust_7="13000.00000" pt_clust_8="13000.00000" pt_clust_9="25.97707"></scales>
<clustering>
<clus scale="   25.977">  1  9  2 -1</clus>
<clus scale="   79.877">  5  6 -1 -1</clus>
<clus scale="   91.209">  7  8 -1 -1</clus>
<clus scale="   98.729">  1  5  2 -1</clus>
<clus scale="   25.977">  1  5  2 -1</clus>
</clustering>
</event>
<event>
 9    1  0.2951046E-005  0.3253651E+03  0.7546771E-02  0.1073256E+00
         -4   -1    0    0    0  501 -0.00000000000E+00  0.00000000000E+00  0.74710993013E+03  0.74710993013E+03  0.00000000000E+00 0.  1.
          3   -1    0    0  502    0  0.00000000000E+00 -0.00000000000E+00 -0.21619693914E+03  0.21619693914E+03  0.00000000000E+00 0. -1.
         23    2    1    2    0    0 -0.32669880491E+03 -0.40032601072E+01  0.42693743662E+03  0.54355440648E+03  0.80172830793E+02 0.  0.
        -24    2    1    2    0    0  0.29323140490E+03 -0.66347838778E+02  0.13115787560E+03  0.33724050871E+03  0.78371422417E+02 0.  0.
         11    1    4    4    0    0  0.24393363125E+03 -0.84368050700E+02  0.10590643486E+03  0.27899418879E+03  0.00000000000E+00 0. -1.
        -12    1    4    4    0    0  0.49297773652E+02  0.18020211922E+02  0.25251440742E+02  0.58246319920E+02  0.00000000000E+00 0.  1.
        -11    1    3    3    0    0 -0.80656859200E+02 -0.12926291043E+02  0.16475550954E+03  0.18389397994E+03  0.00000000000E+00 0.  1.
         11    1    3    3    0    0 -0.24604194571E+03  0.89230309362E+01  0.26218192708E+03  0.35966042654E+03  0.00000000000E+00 0. -1.
         21    1    1    2  502  501  0.33467400010E+02  0.70351098885E+02 -0.27182321242E+02  0.82511954079E+02  0.00000000000E+00 0.  1.
<scales pt_clust_5="13000.00000" pt_clust_6="13000.00000" pt_clust_7="13000.00000" pt_clust_8="13000.00000" pt_clust_9="77.90599"></scales>
<clustering>
<clus scale="   77.906">  2  9  1 -1</clus>
<clus scale="   78.371">  5  6 -1 -1</clus>
<clus scale="   80.173">  7  8 -1 -1</clus>
<clus scale="  324.926">  2  5  1 -1</clus>
<clus scale="   77.906">  2  5  1 -1</clus>
</clustering>
</event>
<event>
 9    1  0.2951046E-005  0.1252832E+03  0.7546771E-02  0.1240392E+00
         -2   -1    0    0    0  501 -0.00000000000E+00  0.00000000000E+00  0.45303626327E+03  0.45303626327E+03  0.00000000000E+00 0.  1.
          1   -1    0    0  502    0  0.00000000000E+00 -0.00000000000E+00 -0.86007502730E+02  0.86007502730E+02  0.00000000000E+00 0. -1.
         23    2    1    2    0    0  0.80427596744E+02 -0.14225330074E+02  0.38252188439E+03  0.40347993616E+03  0.99005598382E+02 0.  0.
        -24    2    1    2    0    0 -0.54297926920E+02 -0.11298802405E+02 -0.77947962324E+01  0.98234146855E+02  0.80704776541E+02 0.  0.
         13    1    4    4    0    0 -0.22054636873E+02 -0.42991229807E+02 -0.18558014880E+02  0.51759566886E+02  0.00000000000E+00 0. -1.
        -14    1    4    4    0    0 -0.32243290047E+02  0.31692427402E+02  0.10763218648E+02  0.46474579969E+02  0.00000000000E+00 0.  1.
        -11    1    3    3    0    0  0.29688240039E+02  0.39921838418E+02  0.10470430526E+03  0.11592297581E+03  0.00000000000E+00 0. -1.
         11    1    3    3    0    0  0.50739356705E+02 -0.54147168492E+02  0.27781757912E+03  0.28755696035E+03  0.00000000000E+00 0.  1.
         21    1    1    2  502  501 -0.26129669824E+02  0.25524132479E+02 -0.76983276167E+01  0.37329682989E+02  0.00000000000E+00 0. -1.
<scales pt_clust_5="13000.00000" pt_clust_6="13000.00000" pt_clust_7="13000.00000" pt_clust_8="13000.00000" pt_clust_9="36.52726"></scales>
<clustering>
<clus scale="   36.527">  2  9  1 -1</clus>
<clus scale="   80.705">  5  6 -1 -1</clus>
<clus scale="   99.006">  7  8 -1 -1</clus>
<clus scale="  111.387">  2  5  1 -1</clus>
<clus scale="   36.527">  2  5  1 -1</clus>
</clustering>
</event>
<event>
 9    1  0.2951046E-005  0.1342960E+03  0.7546771E-02  0.1225985E+00
         -2   -1    0    0    0  501 -0.00000000000E+00  0.00000000000E+00  0.12007170809E+03  0.12007170809E+03  0.00000000000E+00 0.  1.
          1   -1    0    0  502    0  0.00000000000E+00 -0.00000000000E+00 -0.24035057715E+03  0.24035057715E+03  0.00000000000E+00 0. -1.
         23    2    1    2    0    0  0.74526617914E+02 -0.39090802144E+02  0.24434559698E+00  0.13035972283E+03  0.99555462143E+02 0.  0.
        -24    2    1    2    0    0 -0.47266546461E+02  0.84404194480E+02 -0.12386089157E+03  0.17707619522E+03  0.81585930109E+02 0.  0.
         13    1    4    4    0    0 -0.44866352586E+02  0.79703296446E+01 -0.70057675760E+02  0.83573881577E+02  0.00000000000E+00 0. -1.
        -14    1    4    4    0    0 -0.24001938745E+01  0.76433864836E+02 -0.53803215809E+02  0.93502313639E+02  0.00000000000E+00 0.  1.
        -11    1    3    3    0    0  0.24131809368E+00 -0.20245015389E+02  0.39400221777E+02  0.44297814377E+02  0.00000000000E+00 0.  1.
         11    1    3    3    0    0  0.74285299820E+02 -0.18845786755E+02 -0.39155876180E+02  0.86061908456E+02  0.00000000000E+00 0. -1.
         21    1    1    2  502  501 -0.27260071453E+02 -0.45313392337E+02  0.33376769052E+01  0.52986367188E+02  0.00000000000E+00 0. -1.
<scales pt_clust_5="13000.00000" pt_clust_6="13000.00000" pt_clust_7="13000.00000" pt_clust_8="13000.00000" pt_clust_9="52.88114"></scales>
<clustering>
<clus scale="   52.881">  1  9  2 -1</clus>
<clus scale="   81.586">  5  6 -1 -1</clus>
<clus scale="   99.555">  7  8 -1 -1</clus>
<clus scale="  121.575">  2  5  1 -1</clus>
<clus scale="  121.575">  2  5  1 -1</clus>
</clustering>
</event>
<event>
 9    1  0.2951046E-005  0.9128455E+02  0.7546771E-02  0.1307420E+00
         -2   -1    0    0    0  501 -0.00000000000E+00  0.00000000000E+00  0.10110093598E+03  0.10110093598E+03  0.00000000000E+00 0.  1.
          1   -1    0    0  502    0  0.00000000000E+00 -0.00000000000E+00 -0.18649660119E+03  0.18649660119E+03  0.00000000000E+00 0. -1.
        -24    2    1    2    0    0 -0.98774747438E+01 -0.73144201058E+01  0.62744264356E+02  0.10134846592E+03  0.78635892475E+02 0.  0.
         23    2    1    2    0    0 -0.10901868834E+02  0.10065103245E+02 -0.11848120604E+03  0.14993120707E+03  0.90672011230E+02 0.  0.
         13    1    3    3    0    0  0.34123096987E+02  0.34239318083E+01  0.27554098818E+02  0.43992470022E+02  0.00000000000E+00 0. -1.
        -14    1    3    3    0    0 -0.44000571731E+02 -0.10738351914E+02  0.35190165538E+02  0.57355995894E+02  0.00000000000E+00 0.  1.
        -11    1    4    4    0    0  0.22857214248E+02  0.24358202461E+01  0.33949479198E+01  0.23235987925E+02  0.00000000000E+00 0.  1.
         11    1    4    4    0    0 -0.33759083082E+02  0.76292829994E+01 -0.12187615396E+03  0.12669521914E+03  0.00000000000E+00 0. -1.
         21    1    1    2  502  501  0.20779343577E+02 -0.27506831397E+01 -0.29658723533E+02  0.36317864184E+02  0.00000000000E+00 0.  1.
<scales pt_clust_5="13000.00000" pt_clust_6="13000.00000" pt_clust_7="13000.00000" pt_clust_8="13000.00000" pt_clust_9="20.96061"></scales>
<clustering>
<clus scale="   20.961">  2  9  1 -1</clus>
<clus scale="   78.636">  5  6 -1 -1</clus>
<clus scale="   79.341">  1  5  2 -1</clus>
<clus scale="   90.672">  7  8 -1 -1</clus>
<clus scale="   20.961">  2  5  1 -1</clus>
</clustering>
</event>
<event>
 9    1  0.2951046E-005  0.1018427E+03  0.7546771E-02  0.1281225E+00
          1   -1    0    0  502    0  0.00000000000E+00  0.00000000000E+00  0.35350447437E+02  0.35350447437E+02  0.00000000000E+00 0. -1.
         -2   -1    0    0    0  501 -0.00000000000E+00 -0.00000000000E+00 -0.45077669847E+03  0.45077669847E+03  0.00000000000E+00 0.  1.
         23    2    1    2    0    0 -0.51389771549E+02  0.36732980810E+02 -0.31076168222E+03  0.32981979677E+03  0.90653486993E+02 0.  0.
        -24    2    1    2    0    0  0.33554637423E+02 -0.24806904390E+02 -0.66486015907E+02  0.11251322613E+03  0.80607316947E+02 0.  0.
         11    1    4    4    0    0  0.73031600768E+01 -0.50052614027E+02 -0.22377502346E+02  0.55311417712E+02  0.00000000000E+00 0. -1.
        -12    1    4    4    0    0  0.26251477346E+02  0.25245709637E+02 -0.44108513561E+02  0.57201808420E+02  0.00000000000E+00 0.  1.
        -13    1    3    3    0    0 -0.42184168792E+02  0.63239225410E+02 -0.16902735571E+03  0.18533469914E+03  0.00000000000E+00 0.  1.
         13    1    3    3    0    0 -0.92056027571E+01 -0.26506244600E+02 -0.14173432650E+03  0.14448509762E+03  0.00000000000E+00 0. -1.
         21    1    1    2  502  501  0.17835134126E+02 -0.11926076420E+02 -0.38178552904E+02  0.43794123006E+02  0.00000000000E+00 0. -1.
<scales pt_clust_5="13000.00000" pt_clust_6="13000.00000" pt_clust_7="13000.00000" pt_clust_8="13000.00000" pt_clust_9="21.45515"></scales>
<clustering>
<clus scale="   21.455">  2  9  1 -1</clus>
<clus scale="   80.607">  5  6 -1 -1</clus>
<clus scale="   90.653">  7  8 -1 -1</clus>
<clus scale="   93.013">  1  5  2 -1</clus>
<clus scale="   93.013">  1  5  2 -1</clus>
</clustering>
</event>
<event>
 9    1  0.2951046E-005  0.1358142E+03  0.7546771E-02  0.1222503E+00
          3   -1    0    0  502    0  0.00000000000E+00  0.00000000000E+00  0.35567022781E+03  0.35567022781E+03  0.00000000000E+00 0. -1.
         -4   -1    0    0    0  501 -0.00000000000E+00 -0.00000000000E+00 -0.16174273608E+03  0.16174273608E+03  0.00000000000E+00 0.  1.
        -24    2    1    2    0    0  0.54172172069E+02 -0.38725632841E+02 -0.11036006829E+03  0.15053656599E+03  0.77766407670E+02 0.  0.
         23    2    1    2    0    0 -0.91400295842E+02  0.48789995922E+02  0.29674461043E+03  0.32758109675E+03  0.92290483513E+02 0.  0.
         11    1    3    3    0    0  0.41822860693E+02 -0.47287220024E+02 -0.32051452488E+02  0.70799212289E+02  0.00000000000E+00 0. -1.
        -12    1    3    3    0    0  0.12349311376E+02  0.85615871829E+01 -0.78308615803E+02  0.79737353703E+02  0.00000000000E+00 0.  1.
        -11    1    4    4    0    0 -0.62890943752E+02  0.56637155197E+01  0.66900716984E+02  0.91994860793E+02  0.00000000000E+00 0.  1.
         11    1    4    4    0    0 -0.28509352090E+02  0.43126280402E+02  0.22984389345E+03  0.23558623596E+03  0.00000000000E+00 0. -1.
         21    1    1    2  502  501  0.37228123773E+02 -0.10064363081E+02  0.75429495823E+01  0.39295301147E+02  0.00000000000E+00 0.  1.
<scales pt_clust_5="13000.00000" pt_clust_6="13000.00000" pt_clust_7="13000.00000" pt_clust_8="13000.00000" pt_clust_9="38.56455"></scales>
<clustering>
<clus scale="   38.565">  2  9  1 -1</clus>
<clus scale="   77.766">  5  6 -1 -1</clus>
<clus scale="   92.290">  7  8 -1 -1</clus>
<clus scale="  126.395">  2  5  1 -1</clus>
<clus scale="  135.814">  1  5  2 -1</clus>
</clustering>
</event>
<event>
 9    1  0.2951046E-005  0.1810295E+03  0.7546771E-02  0.1167577E+00
          1   -1    0    0  502    0  0.00000000000E+00  0.00000000000E+00  0.20956941060E+03  0.20956941060E+03  0.00000000000E+00 0. -1.
         -2   -1    0    0    0  501 -0.00000000000E+00 -0.00000000000E+00 -0.28795859824E+03  0.28795859824E+03  0.00000000000E+00 0.  1.
         23    2    1    2    0    0 -0.11886323941E+02  0.15341142469E+03 -0.19221670556E+03  0.26227268628E+03  0.90351259816E+02 0.  0.
        -24    2    1    2    0    0 -0.12509434658E+02 -0.15126281351E+03  0.10904913693E+03  0.21030331879E+03  0.96430528989E+02 0.  0.
         11    1    4    4    0    0  0.27706607440E+02 -0.32044267179E+02  0.63824867969E+02  0.76603556876E+02  0.00000000000E+00 0. -1.
        -12    1    4    4    0    0 -0.40216042098E+02 -0.11921854634E+03  0.45224268957E+02  0.13369976191E+03  0.00000000000E+00 0.  1.
        -11    1    3    3    0    0 -0.23027611260E+02  0.83372399460E+02 -0.16502623502E+03  0.18631931225E+03  0.00000000000E+00 0.  1.
         11    1    3    3    0    0  0.11141287319E+02  0.70039025228E+02 -0.27190470534E+02  0.75953374026E+02  0.00000000000E+00 0. -1.
         21    1    1    2  502  501  0.24395758599E+02 -0.21486111740E+01  0.47783809827E+01  0.24952003775E+02  0.00000000000E+00 0.  1.
<scales pt_clust_5="13000.00000" pt_clust_6="13000.00000" pt_clust_7="13000.00000" pt_clust_8="13000.00000" pt_clust_9="24.49019"></scales>
<clustering>
<clus scale="   24.490">  1  9  2 -1</clus>
<clus scale="   90.351">  7  8 -1 -1</clus>
<clus scale="   96.431">  5  6 -1 -1</clus>
<clus scale="  177.866">  2  7  1 -1</clus>
<clus scale="   24.490">  1  5  2 -1</clus>
</clustering>
</event>
<event>
 9    1  0.2951046E-005  0.2275755E+03  0.7546771E-02  0.1128887E+00
         -2   -1    0    0    0  501 -0.00000000000E+00  0.00000000000E+00  0.94364504936E+03  0.94364504936E+03  0.00000000000E+00 0.  1.
          1   -1    0    0  502    0  0.00000000000E+00 -0.00000000000E+00 -0.11313657994E+03  0.11313657994E+03  0.00000000000E+00 0. -1.
        -24    2    1    2    0    0 -0.75815887561E+02 -0.14990669783E+03  0.32164399489E+03  0.37189944234E+03  0.81451021491E+02 0.  0.
         23    2    1    2    0    0  0.10982451146E+03  0.28454848240E+03  0.38067419384E+03  0.49589079902E+03  0.89250101071E+02 0.  0.
         11    1    3    3    0    0 -0.13603443494E+02 -0.91679506632E+02  0.11058556719E+03  0.14428913085E+03  0.00000000000E+00 0. -1.
        -12    1    3    3    0    0 -0.62212444067E+02 -0.58227191197E+02  0.21105842771E+03  0.22761031149E+03  0.00000000000E+00 0.  1.
        -11    1    4    4    0    0  0.53132466070E+02  0.20134734795E+03  0.30771820332E+03  0.37155659882E+03  0.00000000000E+00 0.  1.
         11    1    4    4    0    0  0.56692045393E+02  0.83201134452E+02  0.72955990521E+02  0.12433420019E+03  0.00000000000E+00 0. -1.
         21    1    1    2  502  501 -0.34008623901E+02 -0.13464178457E+03  0.12819028069E+03  0.18899138794E+03  0.00000000000E+00 0.  1.
<scales pt_clust_5="13000.00000" pt_clust_6="13000.00000" pt_clust_7="13000.00000" pt_clust_8="13000.00000" pt_clust_9="138.87043"></scales>
<clustering>
<clus scale="   81.451">  5  6 -1 -1</clus>
<clus scale="   89.250">  7  8 -1 -1</clus>
<clus scale="  138.870">  2  9  1 -1</clus>
<clus scale="  224.631">  1  5  2 -1</clus>
<clus scale="  138.870">  2  5  1 -1</clus>
</clustering>
</event>
<event>
 9    1  0.2951046E-005  0.1062404E+03  0.7546771E-02  0.1272597E+00
          1   -1    0    0  502    0  0.00000000000E+00  0.00000000000E+00  0.28124307026E+03  0.28124307026E+03  0.00000000000E+00 0. -1.
         -2   -1    0    0    0  501 -0.00000000000E+00 -0.00000000000E+00 -0.28618636704E+03  0.28618636704E+03  0.00000000000E+00 0.  1.
        -24    2    1    2    0    0  0.10284605183E+02 -0.48904409446E+02 -0.21837762951E+03  0.23802607392E+03  0.80437605823E+02 0.  0.
         23    2    1    2    0    0 -0.85489046158E+02  0.99640255046E+02  0.13770282520E+03  0.21122935945E+03  0.91756290179E+02 0.  0.
         11    1    3    3    0    0  0.22069830691E+02  0.16804924644E+02 -0.71341438275E+02  0.76544651898E+02  0.00000000000E+00 0. -1.
        -12    1    3    3    0    0 -0.11785225508E+02 -0.65709334090E+02 -0.14703619123E+03  0.16148142202E+03  0.00000000000E+00 0.  1.
        -11    1    4    4    0    0 -0.30473138036E+02  0.38100269317E+01  0.81838507709E+02  0.87410924895E+02  0.00000000000E+00 0. -1.
         11    1    4    4    0    0 -0.55015908122E+02  0.95830228115E+02  0.55864317486E+02  0.12381843455E+03  0.00000000000E+00 0.  1.
         21    1    1    2  502  501  0.75204440975E+02 -0.50735845601E+02  0.75731507539E+02  0.11817400393E+03  0.00000000000E+00 0. -1.
<scales pt_clust_5="13000.00000" pt_clust_6="13000.00000" pt_clust_7="13000.00000" pt_clust_8="13000.00000" pt_clust_9="90.71843"></scales>
<clustering>
<clus scale="   80.438">  5  6 -1 -1</clus>
<clus scale="   90.718">  1  9  2 -1</clus>
<clus scale="   91.756">  7  8 -1 -1</clus>
<clus scale="   96.633">  2  5  1 -1</clus>
<clus scale="   90.718">  1  5  2 -1</clus>
</clustering>
</event>
<event>
 9    1  0.2951046E-005  0.1612237E+03  0.7546771E-02  0.1188862E+00
         -2   -1    0    0    0  501 -0.00000000000E+00  0.00000000000E+00  0.21518525765E+03  0.21518525765E+03  0.00000000000E+00 0.  1.
          1   -1    0    0  502    0  0.00000000000E+00 -0.00000000000E+00 -0.31986294834E+03  0.31986294834E+03  0.00000000000E+00 0. -1.
         23    2    1    2    0    0 -0.14773991407E+03  0.62307040623E+01  0.11838541595E+03  0.21037853345E+03  0.91532053094E+02 0.  0.
        -24    2    1    2    0    0  0.77668540663E+02 -0.75688914207E+02 -0.11083874538E+03  0.17524160427E+03  0.81628294387E+02 0.  0.
         13    1    4    4    0    0  0.22423669301E+02 -0.51868534057E+01 -0.75539846307E+02  0.78968302332E+02  0.00000000000E+00 0. -1.
        -14    1    4    4    0    0  0.55244871362E+02 -0.70502060801E+02 -0.35298899077E+02  0.96273301933E+02  0.00000000000E+00 0.  1.
        -11    1    3    3    0    0 -0.86371490703E+02 -0.27951883911E+02  0.10511421652E+03  0.13888967109E+03  0.00000000000E+00 0.  1.
         11    1    3    3    0    0 -0.61368423365E+02  0.34182587973E+02  0.13271199430E+02  0.71488862358E+02  0.00000000000E+00 0. -1.
         21    1    1    2  502  501  0.70071373406E+02  0.69458210145E+02 -0.11222436126E+03  0.14942806827E+03  0.00000000000E+00 0. -1.
<scales pt_clust_5="13000.00000" pt_clust_6="13000.00000" pt_clust_7="13000.00000" pt_clust_8="13000.00000" pt_clust_9="98.66327"></scales>
<clustering>
<clus scale="   81.628">  5  6 -1 -1</clus>
<clus scale="   91.532">  7  8 -1 -1</clus>
<clus scale="   98.663">  2  9  1 -1</clus>
<clus scale="  155.814">  2  5  1 -1</clus>
<clus scale="   98.663">  2  5  1 -1</clus>
</clustering>
</event>
<event>
 9    1  0.2951046E-005  0.1270838E+03  0.7546771E-02  0.1234659E+00
         -2   -1    0    0    0  501 -0.00000000000E+00  0.00000000000E+00  0.64243889440E+02  0.64243889440E+02  0.00000000000E+00 0.  1.
          1   -1    0    0  502    0  0.00000000000E+00 -0.00000000000E+00 -0.39511695913E+03  0.39511695913E+03  0.00000000000E+00 0. -1.
         23    2    1    2    0    0  0.53602432904E+02  0.85695508309E+02 -0.72036326768E+02  0.15369719711E+03  0.90645766955E+02 0.  0.
        -24    2    1    2    0    0 -0.25057463288E+02 -0.70982904350E+02 -0.11872653384E+03  0.16192031529E+03  0.80347678807E+02 0.  0.
         13    1    4    4    0    0 -0.35184818429E+02 -0.16839549777E+02 -0.93550799655E+02  0.10135725924E+03  0.00000000000E+00 0. -1.
        -14    1    4    4    0    0  0.10127355141E+02 -0.54143354573E+02 -0.25175734189E+02  0.60563056053E+02  0.00000000000E+00 0.  1.
        -13    1    3    3    0    0  0.29260939057E+02  0.67307935677E+02  0.22117167838E+01  0.73426510544E+02  0.00000000000E+00 0.  1.
         13    1    3    3    0    0  0.24341493846E+02  0.18387572632E+02 -0.74248043552E+02  0.80270686563E+02  0.00000000000E+00 0. -1.
         21    1    1    2  502  501 -0.28544969616E+02 -0.14712603959E+02 -0.14011020908E+03  0.14374333617E+03  0.00000000000E+00 0. -1.
<scales pt_clust_5="13000.00000" pt_clust_6="13000.00000" pt_clust_7="13000.00000" pt_clust_8="13000.00000" pt_clust_9="32.11349"></scales>
<clustering>
<clus scale="   32.113">  2  9  1 -1</clus>
<clus scale="   80.348">  5  6 -1 -1</clus>
<clus scale="   90.646">  7  8 -1 -1</clus>
<clus scale="  119.956">  2  5  1 -1</clus>
<clus scale="   32.113">  2  5  1 -1</clus>
</clustering>
</event>
<event>
 9    1  0.2951046E-005  0.1723375E+03  0.7546771E-02  0.1176443E+00
         -2   -1    0    0    0  501 -0.00000000000E+00  0.00000000000E+00  0.17826657586E+03  0.17826657586E+03  0.00000000000E+00 0.  1.
          1   -1    0    0  502    0  0.00000000000E+00 -0.00000000000E+00 -0.39137729885E+03  0.39137729885E+03  0.00000000000E+00 0. -1.
        -24    2    1    2    0    0 -0.44731937840E+02 -0.13446467229E+03  0.69646539559E+02  0.17735560585E+03  0.80763086213E+02 0.  0.
         23    2    1    2    0    0  0.10203830061E+03  0.14371650605E+03 -0.15139911577E+03  0.24867567065E+03  0.88609525549E+02 0.  0.
         13    1    3    3    0    0 -0.25833448346E+02 -0.24934945424E+02 -0.13699879641E+02  0.38429224022E+02  0.00000000000E+00 0. -1.
        -14    1    3    3    0    0 -0.18898489495E+02 -0.10952972687E+03  0.83346419201E+02  0.13892638182E+03  0.00000000000E+00 0.  1.
        -11    1    4    4    0    0 -0.13384346122E+02  0.39054052384E+02 -0.27437335568E+02  0.49569820575E+02  0.00000000000E+00 0.  1.
         11    1    4    4    0    0  0.11542264673E+03  0.10466245366E+03 -0.12396178020E+03  0.19910585008E+03  0.00000000000E+00 0. -1.
         21    1    1    2  502  501 -0.57306362769E+02 -0.92518337538E+01 -0.13135814678E+03  0.14361259822E+03  0.00000000000E+00 0.  1.
<scales pt_clust_5="13000.00000" pt_clust_6="13000.00000" pt_clust_7="13000.00000" pt_clust_8="13000.00000" pt_clust_9="58.04839"></scales>
<clustering>
<clus scale="   58.048">  2  9  1 -1</clus>
<clus scale="   80.763">  5  6 -1 -1</clus>
<clus scale="   88.610">  7  8 -1 -1</clus>
<clus scale="  168.438">  1  5  2 -1</clus>
<clus scale="   58.048">  2  5  1 -1</clus>
</clustering>
</event>
<event>
 9    1  0.2951046E-005  0.1015716E+03  0.7546771E-02  0.1281945E+00
          1   -1    0    0  502    0  0.00000000000E+00  0.00000000000E+00  0.51924515908E+03  0.51924515908E+03  0.00000000000E+00 0. -1.
         -2   -1    0    0    0  501 -0.00000000000E+00 -0.00000000000E+00 -0.10691489607E+03  0.10691489607E+03  0.00000000000E+00 0.  1.
        -24    2    1    2    0    0 -0.49000721895E+02  0.34767528430E+02 -0.58059166732E+02  0.11571500480E+03  0.80057752368E+02 0.  0.
         23    2    1    2    0    0 -0.15015118928E+02  0.15222694456E+02  0.12561670524E+03  0.15623426309E+03  0.90401350121E+02 0.  0.
         11    1    3    3    0    0 -0.24501938769E+02 -0.13747313727E+02  0.89032628678E+01  0.29472049943E+02  0.00000000000E+00 0. -1.
        -12    1    3    3    0    0 -0.24498783127E+02  0.48514842156E+02 -0.66962429600E+02  0.86242954854E+02  0.00000000000E+00 0.  1.
        -13    1    4    4    0    0 -0.39917834650E+02 -0.22880385295E+02  0.76483353133E+02  0.89256085848E+02  0.00000000000E+00 0.  1.
         13    1    4    4    0    0  0.24902715722E+02  0.38103079752E+02  0.49133352107E+02  0.66978177238E+02  0.00000000000E+00 0. -1.
         21    1    1    2  502  501  0.64015840823E+02 -0.49990222886E+02  0.34477272450E+03  0.35421078727E+03  0.00000000000E+00 0. -1.
<scales pt_clust_5="13000.00000" pt_clust_6="13000.00000" pt_clust_7="13000.00000" pt_clust_8="13000.00000" pt_clust_9="81.22223"></scales>
<clustering>
<clus scale="   80.058">  5  6 -1 -1</clus>
<clus scale="   81.222">  1  9  2 -1</clus>
<clus scale="   90.401">  7  8 -1 -1</clus>
<clus scale="   92.486">  2  5  1 -1</clus>
<clus scale="   81.222">  1  5  2 -1</clus>
</clustering>
</event>
<event>
 9    1  0.2951046E-005  0.1196594E+03  0.7546771E-02  0.1249477E+00
         -2   -1    0    0    0  501 -0.00000000000E+00  0.00000000000E+00  0.11400081459E+03  0.11400081459E+03  0.00000000000E+00 0.  1.
          1   -1    0    0  502    0  0.00000000000E+00 -0.00000000000E+00 -0.56310832547E+03  0.56310832547E+03  0.00000000000E+00 0. -1.
         23    2    1    2    0    0  0.66645101504E+02  0.14080866205E+02  0.54854523751E+02  0.12966049458E+03  0.95723480565E+02 0.  0.
        -24    2    1    2    0    0 -0.11886432740E+03  0.21669814999E+02 -0.40595302918E+03  0.43078363827E+03  0.78602620097E+02 0.  0.
         11    1    4    4    0    0 -0.12809256036E+03  0.13661184169E+02 -0.33750001003E+03  0.36124865223E+03  0.00000000000E+00 0. -1.
        -12    1    4    4    0    0  0.92282329575E+01  0.80086308297E+01 -0.68453019158E+02  0.69534986037E+02  0.00000000000E+00 0.  1.
        -13    1    3    3    0    0  0.50253211679E+02  0.44064169999E+02  0.21783404253E+01  0.66871380491E+02  0.00000000000E+00 0. -1.
         13    1    3    3    0    0  0.16391889825E+02 -0.29983303794E+02  0.52676183326E+02  0.62789114090E+02  0.00000000000E+00 0.  1.
         21    1    1    2  502  501  0.52219225898E+02 -0.35750681204E+02 -0.98009005445E+02  0.11666500721E+03  0.00000000000E+00 0.  1.
<scales pt_clust_5="13000.00000" pt_clust_6="13000.00000" pt_clust_7="13000.00000" pt_clust_8="13000.00000" pt_clust_9="63.28474"></scales>
<clustering>
<clus scale="   63.285">  2  9  1 -1</clus>
<clus scale="   78.603">  5  6 -1 -1</clus>
<clus scale="   95.723">  7  8 -1 -1</clus>
<clus scale="  106.460">  2  5  1 -1</clus>
<clus scale="   63.285">  2  5  1 -1</clus>
</clustering>
</event>
<event>
 9    1  0.2951046E-005  0.1541115E+03  0.7546771E-02  0.1215188E+00
          3   -1    0    0  502    0  0.00000000000E+00  0.00000000000E+00  0.33750514210E+03  0.33750514210E+03  0.00000000000E+00 0. -1.
         -4   -1    0    0    0  501 -0.00000000000E+00 -0.00000000000E+00 -0.22222134079E+03  0.22222134079E+03  0.00000000000E+00 0.  1.
         23    2    1    2    0    0 -0.48400671982E+02 -0.91955963249E+02 -0.10358490205E+03  0.17496367255E+03  0.95309656135E+02 0.  0.
        -24    2    1    2    0    0 -0.63379607837E+02 -0.47509764104E+02  0.17294166086E+03  0.20022334764E+03  0.62501348010E+02 0.  0.
         13    1    4    4    0    0 -0.71468995006E+02 -0.54721210466E+02  0.15235123327E+03  0.17695515365E+03  0.00000000000E+00 0. -1.
        -14    1    4    4    0    0  0.80893871683E+01  0.72114463621E+01  0.20590427592E+02  0.23268193995E+02  0.00000000000E+00 0.  1.
        -11    1    3    3    0    0 -0.52289190486E+02 -0.48583459232E+02 -0.10981613099E+03  0.13097364078E+03  0.00000000000E+00 0.  1.
         11    1    3    3    0    0  0.38885185038E+01 -0.43372504017E+02  0.62312289401E+01  0.43990031768E+02  0.00000000000E+00 0. -1.
         21    1    1    2  502  501  0.11178027982E+03  0.13946572735E+03  0.45927042493E+02  0.18453946270E+03  0.00000000000E+00 0. -1.
<scales pt_clust_5="13000.00000" pt_clust_6="13000.00000" pt_clust_7="13000.00000" pt_clust_8="13000.00000" pt_clust_9="121.10503"></scales>
<clustering>
<clus scale="   62.501">  5  6 -1 -1</clus>
<clus scale="   95.310">  7  8 -1 -1</clus>
<clus scale="  100.899">  1  5  2 -1</clus>
<clus scale="  121.105">  1  9  2 -1</clus>
<clus scale="  100.899">  1  5  2 -1</clus>
</clustering>
</event>
<event>
 9    1  0.2951046E-005  0.1532994E+03  0.7546771E-02  0.1198159E+00
         -2   -1    0    0    0  501 -0.00000000000E+00  0.00000000000E+00  0.24715535491E+03  0.24715535491E+03  0.00000000000E+00 0.  1.
          1   -1    0    0  502    0  0.00000000000E+00 -0.00000000000E+00 -0.20036961086E+03  0.20036961086E+03  0.00000000000E+00 0. -1.
         23    2    1    2    0    0  0.71515007965E+02 -0.84993041510E+02  0.12232344426E+03  0.18918545288E+03  0.92140637582E+02 0.  0.
        -24    2    1    2    0    0 -0.76148602074E+02  0.14524740184E+03 -0.39029671316E+02  0.18773572895E+03  0.82619436821E+02 0.  0.
         11    1    4    4    0    0 -0.60143968180E+02  0.15402840785E+03 -0.36058732678E+02  0.16924030116E+03  0.00000000000E+00 0. -1.
        -12    1    4    4    0    0 -0.16004633895E+02 -0.87810060111E+01 -0.29709386386E+01  0.18495427788E+02  0.00000000000E+00 0.  1.
        -11    1    3    3    0    0 -0.73740401359E+01 -0.41379924892E+02  0.78298794713E+02  0.88867181262E+02  0.00000000000E+00 0.  1.
         11    1    3    3    0    0  0.78889048101E+02 -0.43613116618E+02  0.44024649550E+02  0.10031827161E+03  0.00000000000E+00 0. -1.
         21    1    1    2  502  501  0.46335941091E+01 -0.60254360332E+02 -0.36508028905E+02  0.70603783948E+02  0.00000000000E+00 0.  1.
<scales pt_clust_5="13000.00000" pt_clust_6="13000.00000" pt_clust_7="13000.00000" pt_clust_8="13000.00000" pt_clust_9="60.43226"></scales>
<clustering>
<clus scale="   60.432">  2  9  1 -1</clus>
<clus scale="   82.619">  5  6 -1 -1</clus>
<clus scale="   92.141">  7  8 -1 -1</clus>
<clus scale="  147.773">  2  5  1 -1</clus>
<clus scale="   60.432">  2  5  1 -1</clus>
</clustering>
</event>
<event>
 9    1  0.2951046E-005  0.1146085E+03  0.7546771E-02  0.1252782E+00
         -2   -1    0    0    0  501 -0.00000000000E+00  0.00000000000E+00  0.11446622457E+03  0.11446622457E+03  0.00000000000E+00 0.  1.
          1   -1    0    0  502    0  0.00000000000E+00 -0.00000000000E+00 -0.31326317132E+03  0.31326317132E+03  0.00000000000E+00 0. -1.
         23    2    1    2    0    0  0.25269328209E+02 -0.52678372808E+02  0.31741818234E+02  0.11108136241E+03  0.88983010407E+02 0.  0.
        -24    2    1    2    0    0 -0.36365437118E+02  0.10857917800E+03 -0.10815121919E+03  0.18164160764E+03  0.90471567371E+02 0.  0.
         11    1    4    4    0    0 -0.31105039650E+02  0.33649325550E+02 -0.94877051743E+02  0.10536344503E+03  0.00000000000E+00 0. -1.
        -12    1    4    4    0    0 -0.52603974682E+01  0.74929852446E+02 -0.13274167443E+02  0.76278162605E+02  0.00000000000E+00 0.  1.
        -13    1    3    3    0    0 -0.32916564138E+02 -0.25905014268E+02  0.72609677494E+01  0.42512252487E+02  0.00000000000E+00 0.  1.
         13    1    3    3    0    0  0.58185892347E+02 -0.26773358540E+02  0.24480850484E+02  0.68569109927E+02  0.00000000000E+00 0. -1.
         21    1    1    2  502  501  0.11096108909E+02 -0.55900805187E+02 -0.12238754580E+03  0.13500642585E+03  0.00000000000E+00 0. -1.
<scales pt_clust_5="13000.00000" pt_clust_6="13000.00000" pt_clust_7="13000.00000" pt_clust_8="13000.00000" pt_clust_9="56.99143"></scales>
<clustering>
<clus scale="   56.991">  2  9  1 -1</clus>
<clus scale="   88.983">  7  8 -1 -1</clus>
<clus scale="   90.472">  5  6 -1 -1</clus>
<clus scale="  113.437">  1  7  2 -1</clus>
<clus scale="   56.991">  2  5  1 -1</clus>
</clustering>
</event>
<event>
 9    1  0.2951046E-005  0.1143384E+03  0.7546771E-02  0.1257241E+00
         -4   -1    0    0    0  501 -0.00000000000E+00  0.00000000000E+00  0.15189734805E+04  0.15189734805E+04  0.00000000000E+00 0.  1.
          3   -1    0    0  502    0  0.00000000000E+00 -0.00000000000E+00 -0.20537110593E+02  0.20537110593E+02  0.00000000000E+00 0. -1.
        -24    2    1    2    0    0  0.55574930661E+02 -0.38780731622E+02  0.12788916977E+04  0.12832575903E+04  0.81200681854E+02 0.  0.
         23    2    1    2    0    0 -0.52282849217E+02  0.16128820184E+02  0.16817034923E+03  0.20001006381E+03  0.93429781668E+02 0.  0.
         13    1    3    3    0    0  0.24969601473E+02 -0.63009380604E+01  0.92251551235E+02  0.95778554611E+02  0.00000000000E+00 0. -1.
        -14    1    3    3    0    0  0.30605329187E+02 -0.32479793562E+02  0.11866401464E+04  0.11874790357E+04  0.00000000000E+00 0.  1.
        -11    1    4    4    0    0 -0.29508876833E+02  0.11688792737E+02  0.17335371919E+03  0.17623539271E+03  0.00000000000E+00 0.  1.
         11    1    4    4    0    0 -0.22773972384E+02  0.44400274467E+01 -0.51833699560E+01  0.23774671101E+02  0.00000000000E+00 0. -1.
         21    1    1    2  502  501 -0.32920814438E+01  0.22651911438E+02  0.51374323048E+02  0.56242936985E+02  0.00000000000E+00 0. -1.
<scales pt_clust_5="13000.00000" pt_clust_6="13000.00000" pt_clust_7="13000.00000" pt_clust_8="13000.00000" pt_clust_9="22.88989"></scales>
<clustering>
<clus scale="   22.890">  2  9  1 -1</clus>
<clus scale="   81.201">  5  6 -1 -1</clus>
<clus scale="   93.430">  7  8 -1 -1</clus>
<clus scale="  104.583">  1  5  2 -1</clus>
<clus scale="   22.890">  2  5  1 -1</clus>
</clustering>
</event>
<event>
 9    1  0.2951046E-005  0.9406231E+02  0.7546771E-02  0.1300281E+00
          1   -1    0    0  502    0  0.00000000000E+00  0.00000000000E+00  0.56273250683E+03  0.56273250683E+03  0.00000000000E+00 0. -1.
         -2   -1    0    0    0  501 -0.00000000000E+00 -0.00000000000E+00 -0.16136128126E+03  0.16136128126E+03  0.00000000000E+00 0.  1.
        -24    2    1    2    0    0  0.21996382090E+02 -0.29852077362E+01 -0.14154773760E+03  0.16392564758E+03  0.79643603796E+02 0.  0.
         23    2    1    2    0    0 -0.13737370133E+02  0.35120920073E+02  0.32430624487E+03  0.33905180034E+03  0.91429691499E+02 0.  0.
         11    1    3    3    0    0  0.36400320889E+02  0.18243204447E+02 -0.33064917672E+02  0.52450802186E+02  0.00000000000E+00 0. -1.
        -12    1    3    3    0    0 -0.14403938799E+02 -0.21228412183E+02 -0.10848281993E+03  0.11147484540E+03  0.00000000000E+00 0.  1.
        -13    1    4    4    0    0 -0.11195109931E+02 -0.28393252939E+02  0.61359281065E+02  0.68530786306E+02  0.00000000000E+00 0. -1.
         13    1    4    4    0    0 -0.25422602025E+01  0.63514173012E+02  0.26294696380E+03  0.27052101403E+03  0.00000000000E+00 0.  1.
         21    1    1    2  502  501 -0.82590119565E+01 -0.32135712337E+02  0.21861271830E+03  0.22111634017E+03  0.00000000000E+00 0.  1.
<scales pt_clust_5="13000.00000" pt_clust_6="13000.00000" pt_clust_7="13000.00000" pt_clust_8="13000.00000" pt_clust_9="33.18004"></scales>
<clustering>
<clus scale="   33.180">  1  9  2 -1</clus>
<clus scale="   79.644">  5  6 -1 -1</clus>
<clus scale="   82.652">  2  5  1 -1</clus>
<clus scale="   91.430">  7  8 -1 -1</clus>
<clus scale="   33.180">  1  5  2 -1</clus>
</clustering>
</event>
<event>
 9    1  0.2951046E-005  0.1262950E+03  0.7546771E-02  0.1236447E+00
         -2   -1    0    0    0  501 -0.00000000000E+00  0.00000000000E+00  0.10383664341E+03  0.10383664341E+03  0.00000000000E+00 0.  1.
          1   -1    0    0  502    0  0.00000000000E+00 -0.00000000000E+00 -0.34469216539E+03  0.34469216539E+03  0.00000000000E+00 0. -1.
        -24    2    1    2    0    0  0.90346449571E+02  0.20275339281E+02  0.23123718832E+02  0.12394766099E+03  0.79086951892E+02 0.  0.
         23    2    1    2    0    0 -0.49056082520E+02 -0.69387595248E+02 -0.17677821393E+03  0.21631791681E+03  0.91223717327E+02 0.  0.
         11    1    3    3    0    0  0.77083838933E+02 -0.12318604098E+02 -0.59688555688E+01  0.78289804371E+02  0.00000000000E+00 0. -1.
        -12    1    3    3    0    0  0.13262610638E+02  0.32593943379E+02  0.29092574401E+02  0.45657856621E+02  0.00000000000E+00 0.  1.
        -11    1    4    4    0    0 -0.51163752776E+02 -0.32055055209E+02 -0.16713013225E+03  0.17770125848E+03  0.00000000000E+00 0. -1.
         11    1    4    4    0    0  0.21076702562E+01 -0.37332540039E+02 -0.96480816892E+01  0.38616658322E+02  0.00000000000E+00 0.  1.
         21    1    1    2  502  501 -0.41290367051E+02  0.49112255967E+02 -0.87201026879E+02  0.10826323100E+03  0.00000000000E+00 0. -1.
<scales pt_clust_5="13000.00000" pt_clust_6="13000.00000" pt_clust_7="13000.00000" pt_clust_8="13000.00000" pt_clust_9="64.16314"></scales>
<clustering>
<clus scale="   64.163">  2  9  1 -1</clus>
<clus scale="   79.087">  5  6 -1 -1</clus>
<clus scale="   91.224">  7  8 -1 -1</clus>
<clus scale="  117.828">  1  5  2 -1</clus>
<clus scale="   64.163">  2  5  1 -1</clus>
</clustering>
</event>
<event>
 9    1  0.2951046E-005  0.1167915E+03  0.7546771E-02  0.1252112E+00
         -2   -1    0    0    0  501 -0.00000000000E+00  0.00000000000E+00  0.81030154456E+03  0.81030154456E+03  0.00000000000E+00 0.  1.
          1   -1    0    0  502    0  0.00000000000E+00 -0.00000000000E+00 -0.15469373378E+03  0.15469373378E+03  0.00000000000E+00 0. -1.
        -24    2    1    2    0    0 -0.22990220399E+02 -0.72273864559E+02  0.75908507327E+03  0.76711380983E+03  0.80631179022E+02 0.  0.
         23    2    1    2    0    0  0.32384667041E+02  0.14660546837E+02 -0.26962469865E+02  0.10164185350E+03  0.91325753814E+02 0.  0.
         13    1    3    3    0    0 -0.94852328343E+01 -0.33208122610E+02  0.84800258292E+02  0.91563272417E+02  0.00000000000E+00 0. -1.
        -14    1    3    3    0    0 -0.13504987565E+02 -0.39065741949E+02  0.67428481498E+03  0.67555053741E+03  0.00000000000E+00 0.  1.
        -11    1    4    4    0    0  0.58781343508E+02 -0.38286805330E+01  0.10886608391E+01  0.58915959822E+02  0.00000000000E+00 0.  1.
         11    1    4    4    0    0 -0.26396676467E+02  0.18489227370E+02 -0.28051130704E+02  0.42725893683E+02  0.00000000000E+00 0. -1.
         21    1    1    2  502  501 -0.93944466421E+01  0.57613317722E+02 -0.76514792629E+02  0.96239615012E+02  0.00000000000E+00 0. -1.
<scales pt_clust_5="13000.00000" pt_clust_6="13000.00000" pt_clust_7="13000.00000" pt_clust_8="13000.00000" pt_clust_9="58.37422"></scales>
<clustering>
<clus scale="   58.374">  2  9  1 -1</clus>
<clus scale="   80.631">  5  6 -1 -1</clus>
<clus scale="   91.326">  7  8 -1 -1</clus>
<clus scale="  108.634">  1  5  2 -1</clus>
<clus scale="   58.374">  2  5  1 -1</clus>
</clustering>
</event>
<event>
 9    1  0.2951046E-005  0.1068434E+03  0.7546771E-02  0.1270726E+00
          1   -1    0    0  502    0  0.00000000000E+00  0.00000000000E+00  0.11011376992E+03  0.11011376992E+03  0.00000000000E+00 0. -1.
         -2   -1    0    0    0  501 -0.00000000000E+00 -0.00000000000E+00 -0.37996987029E+03  0.37996987029E+03  0.00000000000E+00 0.  1.
        -24    2    1    2    0    0  0.54977954504E+02  0.18527353396E+02 -0.31996659327E+03  0.33516300356E+03  0.81177458963E+02 0.  0.
         23    2    1    2    0    0 -0.30753338546E+02  0.25247489353E+01  0.68342235712E+02  0.11800966975E+03  0.91123426099E+02 0.  0.
         13    1    3    3    0    0  0.60137562940E+02  0.57971008185E+01 -0.31470791891E+03  0.32045468803E+03  0.00000000000E+00 0. -1.
        -14    1    3    3    0    0 -0.51596084359E+01  0.12730252577E+02 -0.52586743610E+01  0.14708315537E+02  0.00000000000E+00 0.  1.
        -13    1    4    4    0    0 -0.30667686634E+02 -0.21948937158E+02 -0.73821056742E+01  0.38428613429E+02  0.00000000000E+00 0.  1.
         13    1    4    4    0    0 -0.85651911603E-01  0.24473686094E+02  0.75724341386E+02  0.79581056324E+02  0.00000000000E+00 0. -1.
         21    1    1    2  502  501 -0.24224615958E+02 -0.21052102331E+02 -0.18231742822E+02  0.36910966897E+02  0.00000000000E+00 0.  1.
<scales pt_clust_5="13000.00000" pt_clust_6="13000.00000" pt_clust_7="13000.00000" pt_clust_8="13000.00000" pt_clust_9="32.09397"></scales>
<clustering>
<clus scale="   32.094">  1  9  2 -1</clus>
<clus scale="   81.177">  5  6 -1 -1</clus>
<clus scale="   91.123">  7  8 -1 -1</clus>
<clus scale="   98.498">  2  5  1 -1</clus>
<clus scale="   32.094">  1  5  2 -1</clus>
</clustering>
</event>
<event>
 9    1  0.2951046E-005  0.1262577E+03  0.7546771E-02  0.1236462E+00
          1   -1    0    0  502    0  0.00000000000E+00  0.00000000000E+00  0.32239605436E+03  0.32239605436E+03  0.00000000000E+00 0. -1.
         -2   -1    0    0    0  501 -0.00000000000E+00 -0.00000000000E+00 -0.90195026290E+02  0.90195026290E+02  0.00000000000E+00 0.  1.
        -24    2    1    2    0    0  0.41734032311E+02 -0.81056771786E+02 -0.49244860745E+01  0.12079477004E+03  0.79089798342E+02 0.  0.
         23    2    1    2    0    0 -0.32865000494E+01  0.82952810171E+02  0.13570504306E+03  0.18331626795E+03  0.91088010116E+02 0.  0.
         11    1    3    3    0    0  0.17844456766E+02  0.14000029829E+02 -0.77567786145E+00  0.22694209584E+02  0.00000000000E+00 0. -1.
        -12    1    3    3    0    0  0.23889575544E+02 -0.95056801615E+02 -0.41488082131E+01  0.98100560460E+02  0.00000000000E+00 0.  1.
        -11    1    4    4    0    0  0.20727925189E+02 -0.12282050249E+01  0.72311080126E+02  0.75233288372E+02  0.00000000000E+00 0.  1.
         11    1    4    4    0    0 -0.24014425238E+02  0.84181015196E+02  0.63393962931E+02  0.10808297958E+03  0.00000000000E+00 0. -1.
         21    1    1    2  502  501 -0.38447532261E+02 -0.18960383847E+01  0.10142047109E+03  0.10848004266E+03  0.00000000000E+00 0. -1.
<scales pt_clust_5="13000.00000" pt_clust_6="13000.00000" pt_clust_7="13000.00000" pt_clust_8="13000.00000" pt_clust_9="38.49426"></scales>
<clustering>
<clus scale="   38.494">  1  9  2 -1</clus>
<clus scale="   79.090">  5  6 -1 -1</clus>
<clus scale="   91.088">  7  8 -1 -1</clus>
<clus scale="  117.895">  2  5  1 -1</clus>
<clus scale="   38.494">  1  5  2 -1</clus>
</clustering>
</event>
<event>
 9    1  0.2951046E-005  0.4253147E+03  0.7546771E-02  0.1035465E+00
         -2   -1    0    0    0  501 -0.00000000000E+00  0.00000000000E+00  0.14416260546E+03  0.14416260546E+03  0.00000000000E+00 0.  1.
          1   -1    0    0  502    0  0.00000000000E+00 -0.00000000000E+00 -0.15102262254E+04  0.15102262254E+04  0.00000000000E+00 0. -1.
         23    2    1    2    0    0  0.35655882901E+03  0.23617969482E+03 -0.43205382797E+03  0.61480349612E+03  0.91639411786E+02 0.  0.
        -24    2    1    2    0    0 -0.34966177775E+03 -0.18508736718E+03 -0.84018016048E+03  0.93252462763E+03  0.84727721343E+02 0.  0.
         13    1    4    4    0    0 -0.17591297726E+03 -0.55073394663E+02 -0.44529512774E+03  0.48194004312E+03  0.00000000000E+00 0. -1.
        -14    1    4    4    0    0 -0.17374880049E+03 -0.13001397251E+03 -0.39488503274E+03  0.45058458451E+03  0.00000000000E+00 0.  1.
        -13    1    3    3    0    0  0.32660765745E+03  0.20670335094E+03 -0.34482447664E+03  0.51797949465E+03  0.00000000000E+00 0. -1.
         13    1    3    3    0    0  0.29951171560E+02  0.29476343875E+02 -0.87229351336E+02  0.96824001469E+02  0.00000000000E+00 0.  1.
         21    1    1    2  502  501 -0.68970512595E+01 -0.51092327640E+02 -0.93829631517E+02  0.10706070713E+03  0.00000000000E+00 0. -1.
<scales pt_clust_5="13000.00000" pt_clust_6="13000.00000" pt_clust_7="13000.00000" pt_clust_8="13000.00000" pt_clust_9="51.55575"></scales>
<clustering>
<clus scale="   51.556">  2  9  1 -1</clus>
<clus scale="   84.728">  5  6 -1 -1</clus>
<clus scale="   91.639">  7  8 -1 -1</clus>
<clus scale="  423.879">  2  5  1 -1</clus>
<clus scale="   51.556">  2  5  1 -1</clus>
</clustering>
</event>
<event>
 9    1  0.2951046E-005  0.1226861E+03  0.7546771E-02  0.1241585E+00
          1   -1    0    0  502    0  0.00000000000E+00  0.00000000000E+00  0.42675985519E+03  0.42675985519E+03  0.00000000000E+00 0. -1.
         -2   -1    0    0    0  501 -0.00000000000E+00 -0.00000000000E+00 -0.79258547409E+02  0.79258547409E+02  0.00000000000E+00 0.  1.
         23    2    1    2    0    0  0.20771963593E+02  0.79613680834E+02  0.68025652185E+01  0.10957966188E+03  0.72052860844E+02 0.  0.
        -24    2    1    2    0    0 -0.31560843836E+02 -0.12658689828E+03  0.25626300147E+03  0.29921591692E+03  0.82698907725E+02 0.  0.
         11    1    4    4    0    0 -0.27909657078E+02 -0.13875344156E+03  0.23033812318E+03  0.27034629180E+03  0.00000000000E+00 0. -1.
        -12    1    4    4    0    0 -0.36511867581E+01  0.12166543281E+02  0.25924878292E+02  0.28869625121E+02  0.00000000000E+00 0.  1.
        -11    1    3    3    0    0  0.32329745752E+02  0.49444220306E+02 -0.25089463771E+02  0.64182743588E+02  0.00000000000E+00 0.  1.
         11    1    3    3    0    0 -0.11557782159E+02  0.30169460527E+02  0.31892028990E+02  0.45396918288E+02  0.00000000000E+00 0. -1.
         21    1    1    2  502  501  0.10788880243E+02  0.46973217443E+02  0.84435741094E+02  0.97222823802E+02  0.00000000000E+00 0.  1.
<scales pt_clust_5="13000.00000" pt_clust_6="13000.00000" pt_clust_7="13000.00000" pt_clust_8="13000.00000" pt_clust_9="48.19630"></scales>
<clustering>
<clus scale="   48.196">  1  9  2 -1</clus>
<clus scale="   72.053">  7  8 -1 -1</clus>
<clus scale="   82.699">  5  6 -1 -1</clus>
<clus scale="  115.777">  2  7  1 -1</clus>
<clus scale="   48.196">  1  5  2 -1</clus>
</clustering>
</event>
<event>
 9    1  0.2951046E-005  0.1168962E+03  0.7546771E-02  0.1250126E+00
          1   -1    0    0  502    0  0.00000000000E+00  0.00000000000E+00  0.39845812596E+03  0.39845812596E+03  0.00000000000E+00 0. -1.
         -2   -1    0    0    0  501 -0.00000000000E+00 -0.00000000000E+00 -0.60800344363E+02  0.60800344363E+02  0.00000000000E+00 0.  1.
         23    2    1    2    0    0  0.59800149977E+02  0.27553929557E+02  0.32523490659E+02  0.12155532130E+03  0.96864037289E+02 0.  0.
        -24    2    1    2    0    0 -0.67373111604E+02 -0.46681589501E+01  0.20331582033E+03  0.23306993632E+03  0.91778780470E+02 0.  0.
         13    1    4    4    0    0 -0.73889693890E+02 -0.30113526190E+02  0.10848186779E+03  0.13466561166E+03  0.00000000000E+00 0. -1.
        -14    1    4    4    0    0  0.65165822867E+01  0.25445367240E+02  0.94833952540E+02  0.98404324667E+02  0.00000000000E+00 0.  1.
        -13    1    3    3    0    0  0.34104923750E+02  0.54611927818E+02  0.48854908963E+02  0.80823329638E+02  0.00000000000E+00 0. -1.
         13    1    3    3    0    0  0.25695226227E+02 -0.27057998261E+02 -0.16331418304E+02  0.40731991660E+02  0.00000000000E+00 0.  1.
         21    1    1    2  502  501  0.75729616265E+01 -0.22885770607E+02  0.10181847060E+03  0.10463321270E+03  0.00000000000E+00 0.  1.
<scales pt_clust_5="13000.00000" pt_clust_6="13000.00000" pt_clust_7="13000.00000" pt_clust_8="13000.00000" pt_clust_9="24.10619"></scales>
<clustering>
<clus scale="   24.106">  1  9  2 -1</clus>
<clus scale="   91.779">  5  6 -1 -1</clus>
<clus scale="   96.864">  7  8 -1 -1</clus>
<clus scale="  112.718">  1  5  2 -1</clus>
<clus scale="   24.106">  1  5  2 -1</clus>
</clustering>
</event>
<event>
 9    1  0.2951046E-005  0.1416536E+03  0.7546771E-02  0.1214229E+00
         -2   -1    0    0    0  501 -0.00000000000E+00  0.00000000000E+00  0.29594205093E+02  0.29594205093E+02  0.00000000000E+00 0.  1.
          1   -1    0    0  502    0  0.00000000000E+00 -0.00000000000E+00 -0.83185605082E+03  0.83185605082E+03  0.00000000000E+00 0. -1.
         23    2    1    2    0    0  0.71469471814E+02 -0.79120230215E+02 -0.28583257154E+03  0.31922572515E+03  0.94004831875E+02 0.  0.
        -24    2    1    2    0    0 -0.91828137127E+02  0.56131000630E+02 -0.40062162595E+03  0.42241471764E+03  0.79708283748E+02 0.  0.
         13    1    4    4    0    0 -0.90164484913E+01  0.49054080188E+02 -0.17511749323E+03  0.18208167278E+03  0.00000000000E+00 0. -1.
        -14    1    4    4    0    0 -0.82811688636E+02  0.70769204421E+01 -0.22550413272E+03  0.24033304486E+03  0.00000000000E+00 0.  1.
        -13    1    3    3    0    0  0.68606200083E+02 -0.60280544008E+01 -0.14530445618E+03  0.16079966764E+03  0.00000000000E+00 0. -1.
         13    1    3    3    0    0  0.28632717308E+01 -0.73092175814E+02 -0.14052811536E+03  0.15842605751E+03  0.00000000000E+00 0.  1.
         21    1    1    2  502  501  0.20358665313E+02  0.22989229585E+02 -0.11580764824E+03  0.11980981312E+03  0.00000000000E+00 0.  1.
<scales pt_clust_5="13000.00000" pt_clust_6="13000.00000" pt_clust_7="13000.00000" pt_clust_8="13000.00000" pt_clust_9="30.70798"></scales>
<clustering>
<clus scale="   30.708">  2  9  1 -1</clus>
<clus scale="   79.708">  5  6 -1 -1</clus>
<clus scale="   94.005">  7  8 -1 -1</clus>
<clus scale="  132.598">  2  5  1 -1</clus>
<clus scale="   30.708">  2  5  1 -1</clus>
</clustering>
</event>
<event>
 9    1  0.2951046E-005  0.1002580E+03  0.7546771E-02  0.1285164E+00
          1   -1    0    0  502    0  0.00000000000E+00  0.00000000000E+00  0.22000516581E+03  0.22000516581E+03  0.00000000000E+00 0. -1.
         -2   -1    0    0    0  501 -0.00000000000E+00 -0.00000000000E+00 -0.25135436982E+03  0.25135436982E+03  0.00000000000E+00 0.  1.
         23    2    1    2    0    0 -0.30832973176E+02  0.36325571202E+02 -0.15063831437E+03  0.18275868284E+03  0.91861934669E+02 0.  0.
        -24    2    1    2    0    0  0.29675696655E+02 -0.12151262966E+02 -0.61179092997E+02  0.10651705644E+03  0.81084534469E+02 0.  0.
         13    1    4    4    0    0  0.18544635343E+02 -0.32965597468E+02  0.31887610236E+01  0.37957901856E+02  0.00000000000E+00 0. -1.
        -14    1    4    4    0    0  0.11131061313E+02  0.20814334502E+02 -0.64367854021E+02  0.68559154589E+02  0.00000000000E+00 0.  1.
        -11    1    3    3    0    0  0.14530686460E+02 -0.18832888646E+02 -0.11629457005E+02  0.26477590789E+02  0.00000000000E+00 0. -1.
         11    1    3    3    0    0 -0.45363659636E+02  0.55158459848E+02 -0.13900885736E+03  0.15628109205E+03  0.00000000000E+00 0.  1.
         21    1    1    2  502  501  0.11572765208E+01 -0.24174308236E+02  0.18046820336E+03  0.18208379634E+03  0.00000000000E+00 0. -1.
<scales pt_clust_5="13000.00000" pt_clust_6="13000.00000" pt_clust_7="13000.00000" pt_clust_8="13000.00000" pt_clust_9="24.20199"></scales>
<clustering>
<clus scale="   24.202">  1  9  2 -1</clus>
<clus scale="   81.085">  5  6 -1 -1</clus>
<clus scale="   90.486">  1  5  2 -1</clus>
<clus scale="   91.862">  7  8 -1 -1</clus>
<clus scale="   24.202">  1  5  2 -1</clus>
</clustering>
</event>
<event>
 9    1  0.2951046E-005  0.1381061E+03  0.7546771E-02  0.1222183E+00
         -2   -1    0    0    0  501 -0.00000000000E+00  0.00000000000E+00  0.12291524803E+03  0.12291524803E+03  0.00000000000E+00 0.  1.
          1   -1    0    0  502    0  0.00000000000E+00 -0.00000000000E+00 -0.16380047516E+03  0.16380047516E+03  0.00000000000E+00 0. -1.
        -24    2    1    2    0    0  0.84411754079E+02  0.75929219792E-01 -0.29073164571E+01  0.11504139125E+03  0.78107100958E+02 0.  0.
         23    2    1    2    0    0 -0.10499006787E+03  0.78512601170E+00 -0.34032340491E+02  0.15070349651E+03  0.10261487654E+03 0.  0.
         11    1    3    3    0    0  0.54540449745E+01 -0.29670821632E+02  0.37686018784E+01  0.30402411467E+02  0.00000000000E+00 0. -1.
        -12    1    3    3    0    0  0.78957709105E+02  0.29746750852E+02 -0.66759183355E+01  0.84638979784E+02  0.00000000000E+00 0.  1.
        -11    1    4    4    0    0 -0.58719416692E+01 -0.38538975822E+02 -0.17746774221E+02  0.42833168826E+02  0.00000000000E+00 0.  1.
         11    1    4    4    0    0 -0.99118126200E+02  0.39324101834E+02 -0.16285566271E+02  0.10787032769E+03  0.00000000000E+00 0. -1.
         21    1    1    2  502  501  0.20578313790E+02 -0.86105523149E+00 -0.39455701757E+01  0.20970835429E+02  0.00000000000E+00 0. -1.
<scales pt_clust_5="13000.00000" pt_clust_6="13000.00000" pt_clust_7="13000.00000" pt_clust_8="13000.00000" pt_clust_9="20.59632"></scales>
<clustering>
<clus scale="   20.596">  2  9  1 -1</clus>
<clus scale="   78.107">  5  6 -1 -1</clus>
<clus scale="  102.615">  7  8 -1 -1</clus>
<clus scale="  121.013">  1  5  2 -1</clus>
<clus scale="   20.596">  2  5  1 -1</clus>
</clustering>
</event>
<event>
 9    1  0.2951046E-005  0.1644002E+03  0.7546771E-02  0.1184140E+00
          1   -1    0    0  502    0  0.00000000000E+00  0.00000000000E+00  0.11958576917E+03  0.11958576917E+03  0.00000000000E+00 0. -1.
         -2   -1    0    0    0  501 -0.00000000000E+00 -0.00000000000E+00 -0.39648507864E+03  0.39648507864E+03  0.00000000000E+00 0.  1.
         23    2    1    2    0    0 -0.14173548086E+03 -0.58395437061E+02 -0.26803920957E+03  0.32164208275E+03  0.90053528119E+02 0.  0.
        -24    2    1    2    0    0  0.86694853472E+02  0.58563219777E+02 -0.20534105128E+02  0.13816348969E+03  0.87874069438E+02 0.  0.
         11    1    4    4    0    0  0.98351845190E+02  0.25625573128E+02 -0.16973154914E+02  0.10304292037E+03  0.00000000000E+00 0. -1.
        -12    1    4    4    0    0 -0.11656991718E+02  0.32937646649E+02 -0.35609502135E+01  0.35120569316E+02  0.00000000000E+00 0.  1.
        -13    1    3    3    0    0 -0.21758306288E+02 -0.44176800680E+00  0.60443282823E+00  0.21771182571E+02  0.00000000000E+00 0. -1.
         13    1    3    3    0    0 -0.11997717457E+03 -0.57953669055E+02 -0.26864364239E+03  0.29987090018E+03  0.00000000000E+00 0.  1.
         21    1    1    2  502  501  0.55040627391E+02 -0.16778271541E+00  0.11674005229E+02  0.56265275372E+02  0.00000000000E+00 0. -1.
<scales pt_clust_5="13000.00000" pt_clust_6="13000.00000" pt_clust_7="13000.00000" pt_clust_8="13000.00000" pt_clust_9="55.04088"></scales>
<clustering>
<clus scale="   55.041">  1  9  2 -1</clus>
<clus scale="   87.874">  5  6 -1 -1</clus>
<clus scale="   90.054">  7  8 -1 -1</clus>
<clus scale="  163.216">  1  5  2 -1</clus>
<clus scale="   55.041">  1  5  2 -1</clus>
</clustering>
</event>
<event>
 9    1  0.2951046E-005  0.9313311E+02  0.7546771E-02  0.1299950E+00
          1   -1    0    0  502    0  0.00000000000E+00  0.00000000000E+00  0.10923838366E+03  0.10923838366E+03  0.00000000000E+00 0. -1.
         -2   -1    0    0    0  501 -0.00000000000E+00 -0.00000000000E+00 -0.10025764158E+03  0.10025764158E+03  0.00000000000E+00 0.  1.
         23    2    1    2    0    0 -0.10160737304E+02  0.60822192549E+01 -0.14656581933E+02  0.93115783654E+02  0.91189362307E+02 0.  0.
        -24    2    1    2    0    0  0.30738296146E+02  0.69928308053E+01  0.15240676874E+02  0.90594653649E+02  0.83554595957E+02 0.  0.
         13    1    4    4    0    0  0.21174039246E+02  0.21314065046E+02  0.46234058277E+02  0.55138166922E+02  0.00000000000E+00 0. -1.
        -14    1    4    4    0    0  0.95642568998E+01 -0.14321234240E+02 -0.30993381403E+02  0.35456486727E+02  0.00000000000E+00 0.  1.
        -13    1    3    3    0    0 -0.47460393379E+02  0.15325200681E+02  0.46887133339E+01  0.50093260508E+02  0.00000000000E+00 0. -1.
         13    1    3    3    0    0  0.37299656074E+02 -0.92429814259E+01 -0.19345295267E+02  0.43022523146E+02  0.00000000000E+00 0.  1.
         21    1    1    2  502  501 -0.20577558842E+02 -0.13075050060E+02  0.83966471467E+01  0.25785587937E+02  0.00000000000E+00 0. -1.
<scales pt_clust_5="13000.00000" pt_clust_6="13000.00000" pt_clust_7="13000.00000" pt_clust_8="13000.00000" pt_clust_9="24.38017"></scales>
<clustering>
<clus scale="   24.380">  1  9  2 -1</clus>
<clus scale="   83.555">  5  6 -1 -1</clus>
<clus scale="   85.672">  1  5  2 -1</clus>
<clus scale="   91.189">  7  8 -1 -1</clus>
<clus scale="   24.380">  1  5  2 -1</clus>
</clustering>
</event>
<event>
 9    1  0.2951046E-005  0.1256756E+03  0.7546771E-02  0.1237201E+00
         -2   -1    0    0    0  501 -0.00000000000E+00  0.00000000000E+00  0.45688218867E+02  0.45688218867E+02  0.00000000000E+00 0.  1.
          1   -1    0    0  502    0  0.00000000000E+00 -0.00000000000E+00 -0.54645362951E+03  0.54645362951E+03  0.00000000000E+00 0. -1.
        -24    2    1    2    0    0  0.77610476675E+02 -0.16731805109E+02 -0.82073615816E+02  0.13959476733E+03  0.80294964108E+02 0.  0.
         23    2    1    2    0    0 -0.10478979841E+03  0.28398699404E+02 -0.35381617888E+03  0.38124716873E+03  0.91521184689E+02 0.  0.
         11    1    3    3    0    0  0.33536958190E+02  0.32107893597E+02 -0.41711334046E+02  0.62413778797E+02  0.00000000000E+00 0. -1.
        -12    1    3    3    0    0  0.44073518485E+02 -0.48839698706E+02 -0.40362281770E+02  0.77180988533E+02  0.00000000000E+00 0.  1.
        -11    1    4    4    0    0 -0.10817260459E+02 -0.21268244551E+02 -0.20714123881E+02  0.31597884079E+02  0.00000000000E+00 0.  1.
         11    1    4    4    0    0 -0.93972537948E+02  0.49666943954E+02 -0.33310205500E+03  0.34964928465E+03  0.00000000000E+00 0. -1.
         21    1    1    2  502  501  0.27179321732E+02 -0.11666894295E+02 -0.64875615945E+02  0.71299912318E+02  0.00000000000E+00 0. -1.
<scales pt_clust_5="13000.00000" pt_clust_6="13000.00000" pt_clust_7="13000.00000" pt_clust_8="13000.00000" pt_clust_9="29.57756"></scales>
<clustering>
<clus scale="   29.578">  2  9  1 -1</clus>
<clus scale="   80.295">  5  6 -1 -1</clus>
<clus scale="   91.521">  7  8 -1 -1</clus>
<clus scale="  117.752">  1  5  2 -1</clus>
<clus scale="   29.578">  2  5  1 -1</clus>
</clustering>
</event>
<event>
 9    1  0.2951046E-005  0.1147077E+03  0.7546771E-02  0.1256198E+00
          1   -1    0    0  502    0  0.00000000000E+00  0.00000000000E+00  0.49465559162E+03  0.49465559162E+03  0.00000000000E+00 0. -1.
         -2   -1    0    0    0  501 -0.00000000000E+00 -0.00000000000E+00 -0.36015293689E+02  0.36015293689E+02  0.00000000000E+00 0.  1.
         23    2    1    2    0    0 -0.53547982269E+01 -0.60929121174E+02  0.13575962437E+03  0.17451047180E+03  0.91006579353E+02 0.  0.
        -24    2    1    2    0    0 -0.67504451562E+01  0.81900011891E+02  0.19504567695E+03  0.22605237559E+03  0.79395717485E+02 0.  0.
         11    1    4    4    0    0  0.21043692651E+02  0.43972870377E+02  0.37112795350E+02  0.61268343443E+02  0.00000000000E+00 0. -1.
        -12    1    4    4    0    0 -0.27794137807E+02  0.37927141514E+02  0.15793288160E+03  0.16478403214E+03  0.00000000000E+00 0.  1.
        -11    1    3    3    0    0 -0.10196013598E+02 -0.81456821524E+02  0.78883546350E+02  0.11384984124E+03  0.00000000000E+00 0.  1.
         11    1    3    3    0    0  0.48412153712E+01  0.20527700350E+02  0.56876078025E+02  0.60660630556E+02  0.00000000000E+00 0. -1.
         21    1    1    2  502  501  0.12105243383E+02 -0.20970890718E+02  0.12783499661E+03  0.13010803793E+03  0.00000000000E+00 0. -1.
<scales pt_clust_5="13000.00000" pt_clust_6="13000.00000" pt_clust_7="13000.00000" pt_clust_8="13000.00000" pt_clust_9="24.21395"></scales>
<clustering>
<clus scale="   24.214">  1  9  2 -1</clus>
<clus scale="   79.396">  5  6 -1 -1</clus>
<clus scale="   91.007">  7  8 -1 -1</clus>
<clus scale="  105.732">  1  5  2 -1</clus>
<clus scale="   24.214">  1  5  2 -1</clus>
</clustering>
</event>
<event>
 9    1  0.2951046E-005  0.9165271E+02  0.7546771E-02  0.1305274E+00
          1   -1    0    0  502    0  0.00000000000E+00  0.00000000000E+00  0.17353175392E+03  0.17353175392E+03  0.00000000000E+00 0. -1.
         -2   -1    0    0    0  501 -0.00000000000E+00 -0.00000000000E+00 -0.21709395643E+03  0.21709395643E+03  0.00000000000E+00 0.  1.
         23    2    1    2    0    0  0.14741942548E+02  0.20037370923E+01 -0.17380478118E+03  0.19651450109E+03  0.90490371560E+02 0.  0.
        -24    2    1    2    0    0 -0.13195937546E+02  0.18283990903E+02  0.25100792876E+02  0.87018832508E+02  0.80210911458E+02 0.  0.
         11    1    4    4    0    0 -0.13608754979E+02 -0.29334093190E+02 -0.16878051258E+01  0.32381104390E+02  0.00000000000E+00 0. -1.
        -12    1    4    4    0    0  0.41281743290E+00  0.47618084093E+02  0.26788598002E+02  0.54637728118E+02  0.00000000000E+00 0.  1.
        -11    1    3    3    0    0  0.39672891272E+02 -0.18107467274E+02 -0.15106056067E+03  0.15722948726E+03  0.00000000000E+00 0.  1.
         11    1    3    3    0    0 -0.24930948723E+02  0.20111204366E+02 -0.22744220509E+02  0.39285013833E+02  0.00000000000E+00 0. -1.
         21    1    1    2  502  501 -0.15460050021E+01 -0.20287727996E+02  0.10514178580E+03  0.10709237676E+03  0.00000000000E+00 0. -1.
<scales pt_clust_5="13000.00000" pt_clust_6="13000.00000" pt_clust_7="13000.00000" pt_clust_8="13000.00000" pt_clust_9="20.34655"></scales>
<clustering>
<clus scale="   20.347">  1  9  2 -1</clus>
<clus scale="   80.211">  5  6 -1 -1</clus>
<clus scale="   81.520">  1  5  2 -1</clus>
<clus scale="   90.490">  7  8 -1 -1</clus>
<clus scale="   20.347">  1  5  2 -1</clus>
</clustering>
</event>
<event>
 9    1  0.2951046E-005  0.2491333E+03  0.7546771E-02  0.1114572E+00
         -2   -1    0    0    0  501 -0.00000000000E+00  0.00000000000E+00  0.32781937022E+03  0.32781937022E+03  0.00000000000E+00 0.  1.
          1   -1    0    0  502    0  0.00000000000E+00 -0.00000000000E+00 -0.27863908991E+03  0.27863908991E+03  0.00000000000E+00 0. -1.
         23    2    1    2    0    0  0.21129024441E+03 -0.48036789977E+02  0.14700035984E+03  0.28124656678E+03  0.10266170153E+03 0.  0.
        -24    2    1    2    0    0 -0.24612969102E+03  0.64109969154E+02 -0.74447355869E+02  0.28028508243E+03  0.91254620094E+02 0.  0.
         13    1    4    4    0    0 -0.22760714980E+03  0.66464415070E+02 -0.92307513326E+02  0.25444687093E+03  0.00000000000E+00 0. -1.
        -14    1    4    4    0    0 -0.18522541217E+02 -0.23544459158E+01  0.17860157457E+02  0.25838211492E+02  0.00000000000E+00 0.  1.
        -11    1    3    3    0    0  0.17440469742E+03 -0.75638272082E+02  0.97574306681E+02  0.21367941410E+03  0.00000000000E+00 0.  1.
         11    1    3    3    0    0  0.36885546985E+02  0.27601482105E+02  0.49426053158E+02  0.67567152682E+02  0.00000000000E+00 0. -1.
         21    1    1    2  502  501  0.34839446612E+02 -0.16073179177E+02 -0.23372723659E+02  0.44926810930E+02  0.00000000000E+00 0. -1.
<scales pt_clust_5="13000.00000" pt_clust_6="13000.00000" pt_clust_7="13000.00000" pt_clust_8="13000.00000" pt_clust_9="38.36840"></scales>
<clustering>
<clus scale="   38.368">  2  9  1 -1</clus>
<clus scale="   91.255">  5  6 -1 -1</clus>
<clus scale="  102.662">  7  8 -1 -1</clus>
<clus scale="  244.654">  2  5  1 -1</clus>
<clus scale="   38.368">  2  5  1 -1</clus>
</clustering>
</event>
<event>
 9    1  0.2951046E-005  0.8866355E+02  0.7546771E-02  0.1310188E+00
         -2   -1    0    0    0  501 -0.00000000000E+00  0.00000000000E+00  0.53739210771E+02  0.53739210771E+02  0.00000000000E+00 0.  1.
          1   -1    0    0  502    0  0.00000000000E+00 -0.00000000000E+00 -0.32851838085E+03  0.32851838085E+03  0.00000000000E+00 0. -1.
        -24    2    1    2    0    0 -0.24028985670E+01  0.40432362197E+01  0.28539326361E+01  0.82174532728E+02  0.81990165367E+02 0.  0.
         23    2    1    2    0    0  0.12397150072E+02 -0.22281427970E+02 -0.24121124068E+03  0.25814180550E+03  0.88341257394E+02 0.  0.
         13    1    3    3    0    0 -0.15828935871E+02 -0.36209982251E+02  0.40413140952E+01  0.39724680553E+02  0.00000000000E+00 0. -1.
        -14    1    3    3    0    0  0.13426037304E+02  0.40253218471E+02 -0.11873814591E+01  0.42449852175E+02  0.00000000000E+00 0.  1.
        -11    1    4    4    0    0 -0.32199554797E+02 -0.28128877706E+02 -0.15643611643E+03  0.16217368348E+03  0.00000000000E+00 0. -1.
         11    1    4    4    0    0  0.44596704869E+02  0.58474497361E+01 -0.84775124247E+02  0.95968122023E+02  0.00000000000E+00 0.  1.
         21    1    1    2  502  501 -0.99942515050E+01  0.18238191751E+02 -0.36421862042E+02  0.41941253392E+02  0.00000000000E+00 0.  1.
<scales pt_clust_5="13000.00000" pt_clust_6="13000.00000" pt_clust_7="13000.00000" pt_clust_8="13000.00000" pt_clust_9="20.79704"></scales>
<clustering>
<clus scale="   20.797">  2  9  1 -1</clus>
<clus scale="   81.990">  5  6 -1 -1</clus>
<clus scale="   82.337">  1  5  2 -1</clus>
<clus scale="   88.341">  7  8 -1 -1</clus>
<clus scale="   20.797">  2  5  1 -1</clus>
</clustering>
</event>
<event>
 9    1  0.2951046E-005  0.1095333E+03  0.7546771E-02  0.1264501E+00
          1   -1    0    0  502    0  0.00000000000E+00  0.00000000000E+00  0.34050141390E+03  0.34050141390E+03  0.00000000000E+00 0. -1.
         -2   -1    0    0    0  501 -0.00000000000E+00 -0.00000000000E+00 -0.28847584209E+03  0.28847584209E+03  0.00000000000E+00 0.  1.
         23    2    1    2    0    0 -0.63037599040E+02  0.77486392070E+01 -0.25973296454E+03  0.28189167575E+03  0.89263226962E+02 0.  0.
        -24    2    1    2    0    0  0.58025244060E+02 -0.38734818910E+02  0.28926149306E+03  0.30846713915E+03  0.81316968880E+02 0.  0.
         11    1    4    4    0    0 -0.15843443679E+02 -0.22757146185E+02  0.11895876821E+03  0.12214782414E+03  0.00000000000E+00 0. -1.
        -12    1    4    4    0    0  0.73868687738E+02 -0.15977672725E+02  0.17030272485E+03  0.18631931501E+03  0.00000000000E+00 0.  1.
        -11    1    3    3    0    0 -0.34923089527E+02 -0.36474267628E+02 -0.17610181888E+03  0.18319892192E+03  0.00000000000E+00 0.  1.
         11    1    3    3    0    0 -0.28114509513E+02  0.44222906835E+02 -0.83631145661E+02  0.98692753830E+02  0.00000000000E+00 0. -1.
         21    1    1    2  502  501  0.50123549802E+01  0.30986179703E+02  0.22497043289E+02  0.38618441084E+02  0.00000000000E+00 0.  1.
<scales pt_clust_5="13000.00000" pt_clust_6="13000.00000" pt_clust_7="13000.00000" pt_clust_8="13000.00000" pt_clust_9="31.38896"></scales>
<clustering>
<clus scale="   31.389">  1  9  2 -1</clus>
<clus scale="   81.317">  5  6 -1 -1</clus>
<clus scale="   89.263">  7  8 -1 -1</clus>
<clus scale="  103.160">  1  5  2 -1</clus>
<clus scale="   31.389">  1  5  2 -1</clus>
</clustering>
</event>
<event>
 9    1  0.2951046E-005  0.1044031E+03  0.7546771E-02  0.1276727E+00
          1   -1    0    0  502    0  0.00000000000E+00  0.00000000000E+00  0.14387154505E+03  0.14387154505E+03  0.00000000000E+00 0. -1.
         -2   -1    0    0    0  501 -0.00000000000E+00 -0.00000000000E+00 -0.20844918737E+03  0.20844918737E+03  0.00000000000E+00 0.  1.
        -24    2    1    2    0    0 -0.50309239860E+02  0.86905222453E+01 -0.16254956035E+03  0.18872215832E+03  0.81161251094E+02 0.  0.
         23    2    1    2    0    0  0.23191473253E+02 -0.15519345813E+02  0.52820189937E+02  0.11048845597E+03  0.92946392678E+02 0.  0.
         11    1    3    3    0    0 -0.21723496222E+02  0.26148308950E+02 -0.14546569236E+02  0.36976303568E+02  0.00000000000E+00 0. -1.
        -12    1    3    3    0    0 -0.28585743638E+02 -0.17457786704E+02 -0.14800299111E+03  0.15174585475E+03  0.00000000000E+00 0.  1.
        -13    1    4    4    0    0  0.34088160461E+02  0.25019552960E+02  0.53887506515E+02  0.68497036960E+02  0.00000000000E+00 0. -1.
         13    1    4    4    0    0 -0.10896687208E+02 -0.40538898773E+02 -0.10673165781E+01  0.41991419011E+02  0.00000000000E+00 0.  1.
         21    1    1    2  502  501  0.27117766607E+02  0.68288235677E+01  0.45151728096E+02  0.53110118124E+02  0.00000000000E+00 0. -1.
<scales pt_clust_5="13000.00000" pt_clust_6="13000.00000" pt_clust_7="13000.00000" pt_clust_8="13000.00000" pt_clust_9="27.96437"></scales>
<clustering>
<clus scale="   27.964">  1  9  2 -1</clus>
<clus scale="   81.161">  5  6 -1 -1</clus>
<clus scale="   92.946">  7  8 -1 -1</clus>
<clus scale="   94.064">  2  5  1 -1</clus>
<clus scale="   27.964">  1  5  2 -1</clus>
</clustering>
</event>
<event>
 9    1  0.2951046E-005  0.1154481E+03  0.7546771E-02  0.1258767E+00
          1   -1    0    0  502    0  0.00000000000E+00  0.00000000000E+00  0.88001159542E+02  0.88001159542E+02  0.00000000000E+00 0. -1.
         -2   -1    0    0    0  501 -0.00000000000E+00 -0.00000000000E+00 -0.48763636177E+03  0.48763636177E+03  0.00000000000E+00 0.  1.
         23    2    1    2    0    0 -0.50484953000E+02 -0.23592388544E+02 -0.32662310031E+03  0.34417933182E+03  0.93120521464E+02 0.  0.
        -24    2    1    2    0    0 -0.52369165108E+02 -0.19225307868E+02 -0.60749956901E+00  0.98587006839E+02  0.81282759211E+02 0.  0.
         11    1    4    4    0    0 -0.64924215949E+02 -0.14397902502E+02 -0.24743738928E+02  0.70955662418E+02  0.00000000000E+00 0. -1.
        -12    1    4    4    0    0  0.12555050840E+02 -0.48274053658E+01  0.24136239359E+02  0.27631344422E+02  0.00000000000E+00 0.  1.
        -11    1    3    3    0    0 -0.61621321685E+02  0.11042265900E+02 -0.26775824108E+03  0.27497926210E+03  0.00000000000E+00 0.  1.
         11    1    3    3    0    0  0.11136368685E+02 -0.34634654444E+02 -0.58864859237E+02  0.69200069718E+02  0.00000000000E+00 0. -1.
         21    1    1    2  502  501  0.10285411811E+03  0.42817696412E+02 -0.72404602341E+02  0.13287118265E+03  0.00000000000E+00 0. -1.
<scales pt_clust_5="13000.00000" pt_clust_6="13000.00000" pt_clust_7="13000.00000" pt_clust_8="13000.00000" pt_clust_9="68.24098"></scales>
<clustering>
<clus scale="   81.283">  5  6 -1 -1</clus>
<clus scale="   93.121">  7  8 -1 -1</clus>
<clus scale="   98.585">  1  5  2 -1</clus>
<clus scale="   68.241">  1  9  2 -1</clus>
<clus scale="   98.585">  1  5  2 -1</clus>
</clustering>
</event>
<event>
 9    1  0.2951046E-005  0.1531365E+03  0.7546771E-02  0.1198548E+00
         -2   -1    0    0    0  501 -0.00000000000E+00  0.00000000000E+00  0.13797675063E+03  0.13797675063E+03  0.00000000000E+00 0.  1.
          1   -1    0    0  502    0  0.00000000000E+00 -0.00000000000E+00 -0.21719213773E+03  0.21719213773E+03  0.00000000000E+00 0. -1.
        -24    2    1    2    0    0 -0.11194372774E+03  0.28645044254E+02  0.65834637133E+01  0.14042520089E+03  0.79523319277E+02 0.  0.
         23    2    1    2    0    0  0.13012258459E+03 -0.84184668993E+00 -0.88397083432E+02  0.18142343171E+03  0.90376000618E+02 0.  0.
         13    1    3    3    0    0 -0.99780860310E+02 -0.75860293399E+01 -0.58384989041E+01  0.10023899438E+03  0.00000000000E+00 0. -1.
        -14    1    3    3    0    0 -0.12162867431E+02  0.36231073594E+02  0.12421962617E+02  0.40186206504E+02  0.00000000000E+00 0.  1.
        -11    1    4    4    0    0  0.30653316166E+02 -0.38573891339E+02 -0.44311979519E+02  0.66265544696E+02  0.00000000000E+00 0. -1.
         11    1    4    4    0    0  0.99469268424E+02  0.37732044649E+02 -0.44085103913E+02  0.11515788701E+03  0.00000000000E+00 0.  1.
         21    1    1    2  502  501 -0.18178856849E+02 -0.27803197564E+02  0.25982326186E+01  0.33320255760E+02  0.00000000000E+00 0. -1.
<scales pt_clust_5="13000.00000" pt_clust_6="13000.00000" pt_clust_7="13000.00000" pt_clust_8="13000.00000" pt_clust_9="33.21880"></scales>
<clustering>
<clus scale="   33.219">  1  9  2 -1</clus>
<clus scale="   79.523">  5  6 -1 -1</clus>
<clus scale="   90.376">  7  8 -1 -1</clus>
<clus scale="  146.993">  1  5  2 -1</clus>
<clus scale="  153.137">  2  5  1 -1</clus>
</clustering>
</event>
<event>
 9    1  0.2951046E-005  0.1521075E+03  0.7546771E-02  0.1200056E+00
          3   -1    0    0  502    0  0.00000000000E+00  0.00000000000E+00  0.36739142144E+03  0.36739142144E+03  0.00000000000E+00 0. -1.
         -4   -1    0    0    0  501 -0.00000000000E+00 -0.00000000000E+00 -0.13710995367E+03  0.13710995367E+03  0.00000000000E+00 0.  1.
        -24    2    1    2    0    0  0.11507646305E+03 -0.64378727661E+02 -0.51283235566E+02  0.16195741512E+03  0.78822719695E+02 0.  0.
         23    2    1    2    0    0 -0.53115267907E+02  0.61058779696E+02  0.23598994946E+03  0.26555519491E+03  0.90988455518E+02 0.  0.
         11    1    3    3    0    0  0.47936001357E+01 -0.31518419401E+02  0.74811744840E+01  0.32746867567E+02  0.00000000000E+00 0. -1.
        -12    1    3    3    0    0  0.11028286291E+03 -0.32860308261E+02 -0.58764410050E+02  0.12921054755E+03  0.00000000000E+00 0.  1.
        -13    1    4    4    0    0 -0.76287955897E+02  0.29058665277E+02  0.17123350529E+03  0.18969757926E+03  0.00000000000E+00 0. -1.
         13    1    4    4    0    0  0.23172687991E+02  0.32000114419E+02  0.64756444165E+02  0.75857615652E+02  0.00000000000E+00 0.  1.
         21    1    1    2  502  501 -0.61961195139E+02  0.33199479653E+01  0.45574753877E+02  0.76988765080E+02  0.00000000000E+00 0. -1.
<scales pt_clust_5="13000.00000" pt_clust_6="13000.00000" pt_clust_7="13000.00000" pt_clust_8="13000.00000" pt_clust_9="62.05007"></scales>
<clustering>
<clus scale="   62.050">  1  9  2 -1</clus>
<clus scale="   78.823">  5  6 -1 -1</clus>
<clus scale="   90.988">  7  8 -1 -1</clus>
<clus scale="  145.158">  2  5  1 -1</clus>
<clus scale="   62.050">  1  5  2 -1</clus>
</clustering>
</event>
<event>
 9    1  0.4470604E-005  0.1728899E+03  0.7546771E-02  0.1176579E+00
          1   -1    0    0  502    0  0.00000000000E+00  0.00000000000E+00  0.47671984910E+03  0.47671984910E+03  0.00000000000E+00 0. -1.
         -2   -1    0    0    0  501 -0.00000000000E+00 -0.00000000000E+00 -0.40635768932E+03  0.40635768932E+03  0.00000000000E+00 0.  1.
         23    2    1    2    0    0 -0.67538769193E+02  0.12780092243E+03 -0.36399516096E+03  0.40281841732E+03  0.94210609871E+02 0.  0.
        -24    2    1    2    0    0  0.51750150850E+02 -0.14686193734E+03  0.40721129636E+03  0.44352345181E+03  0.81519971005E+02 0.  0.
         11    1    4    4    0    0  0.72019224516E+02 -0.11793705454E+03  0.29254092171E+03  0.32353687334E+03  0.00000000000E+00 0. -1.
        -12    1    4    4    0    0 -0.20269073666E+02 -0.28924882804E+02  0.11467037465E+03  0.11998657847E+03  0.00000000000E+00 0.  1.
        -11    1    3    3    0    0 -0.49299932277E+02  0.69027806113E+02 -0.97155837857E+02  0.12897510678E+03  0.00000000000E+00 0.  1.
         11    1    3    3    0    0 -0.18238836916E+02  0.58773116316E+02 -0.26683932310E+03  0.27384331054E+03  0.00000000000E+00 0. -1.
         21    1    1    2  502  501  0.15788618344E+02  0.19061014911E+02  0.27146024379E+02  0.36735669291E+02  0.00000000000E+00 0.  1.
<scales pt_clust_5="13000.00000" pt_clust_6="13000.00000" pt_clust_7="13000.00000" pt_clust_8="13000.00000" pt_clust_9="24.75081"></scales>
<clustering>
<clus scale="   24.751">  1  9  2 -1</clus>
<clus scale="   81.520">  5  6 -1 -1</clus>
<clus scale="   94.211">  7  8 -1 -1</clus>
<clus scale="  166.315">  1  5  2 -1</clus>
<clus scale="   24.751">  1  5  2 -1</clus>
</clustering>
</event>
<event>
 9    1  0.2951046E-005  0.9526414E+02  0.7546771E-02  0.1296998E+00
         -2   -1    0    0    0  501 -0.00000000000E+00  0.00000000000E+00  0.62259238935E+02  0.62259238935E+02  0.00000000000E+00 0.  1.
          1   -1    0    0  502    0  0.00000000000E+00 -0.00000000000E+00 -0.28993450183E+03  0.28993450183E+03  0.00000000000E+00 0. -1.
        -24    2    1    2    0    0 -0.22574970802E+02  0.47427456759E+01  0.57403262523E+01  0.83754780206E+02  0.80310577875E+02 0.  0.
         23    2    1    2    0    0  0.36549842000E+02 -0.30423753810E+02 -0.18764665605E+03  0.21412868123E+03  0.91533211750E+02 0.  0.
         13    1    3    3    0    0 -0.40185902897E+02 -0.19105510777E+02 -0.15681876400E+02  0.47178899744E+02  0.00000000000E+00 0. -1.
        -14    1    3    3    0    0  0.17610932094E+02  0.23848256453E+02  0.21422202652E+02  0.36575880462E+02  0.00000000000E+00 0.  1.
        -13    1    4    4    0    0  0.67421873226E+02 -0.19391215801E+02 -0.13411599229E+03  0.15135662400E+03  0.00000000000E+00 0. -1.
         13    1    4    4    0    0 -0.30872031227E+02 -0.11032538009E+02 -0.53530663753E+02  0.62772057229E+02  0.00000000000E+00 0.  1.
         21    1    1    2  502  501 -0.13974871197E+02  0.25681008135E+02 -0.45768933106E+02  0.54310279335E+02  0.00000000000E+00 0.  1.
<scales pt_clust_5="13000.00000" pt_clust_6="13000.00000" pt_clust_7="13000.00000" pt_clust_8="13000.00000" pt_clust_9="29.23715"></scales>
<clustering>
<clus scale="   29.237">  2  9  1 -1</clus>
<clus scale="   80.311">  5  6 -1 -1</clus>
<clus scale="   84.538">  1  5  2 -1</clus>
<clus scale="   91.533">  7  8 -1 -1</clus>
<clus scale="   29.237">  2  5  1 -1</clus>
</clustering>
</event>
<event>
 9    1  0.2951046E-005  0.1034910E+03  0.7546771E-02  0.1277463E+00
          1   -1    0    0  502    0  0.00000000000E+00  0.00000000000E+00  0.61429002085E+03  0.61429002085E+03  0.00000000000E+00 0. -1.
         -2   -1    0    0    0  501 -0.00000000000E+00 -0.00000000000E+00 -0.44895278845E+02  0.44895278845E+02  0.00000000000E+00 0.  1.
         23    2    1    2    0    0  0.39592975236E+02  0.36221253794E+02  0.33098176059E+02  0.11060738103E+03  0.90878603446E+02 0.  0.
        -24    2    1    2    0    0 -0.26716282743E+02 -0.12704805391E+02  0.36025716568E+03  0.37050854174E+03  0.81339917831E+02 0.  0.
         11    1    4    4    0    0 -0.55996673002E+02 -0.47342171387E+01  0.23664854998E+03  0.24322947273E+03  0.00000000000E+00 0. -1.
        -12    1    4    4    0    0  0.29280390259E+02 -0.79705882526E+01  0.12360861570E+03  0.12727906900E+03  0.00000000000E+00 0.  1.
        -13    1    3    3    0    0  0.32438598876E+01  0.56430066381E+02 -0.14479687315E+01  0.56541768916E+02  0.00000000000E+00 0.  1.
         13    1    3    3    0    0  0.36349115348E+02 -0.20208812588E+02  0.34546144790E+02  0.54065612109E+02  0.00000000000E+00 0. -1.
         21    1    1    2  502  501 -0.12876692493E+02 -0.23516448402E+02  0.17603940027E+03  0.17806937694E+03  0.00000000000E+00 0.  1.
<scales pt_clust_5="13000.00000" pt_clust_6="13000.00000" pt_clust_7="13000.00000" pt_clust_8="13000.00000" pt_clust_9="26.81105"></scales>
<clustering>
<clus scale="   26.811">  1  9  2 -1</clus>
<clus scale="   81.340">  5  6 -1 -1</clus>
<clus scale="   90.879">  7  8 -1 -1</clus>
<clus scale="   95.224">  1  5  2 -1</clus>
<clus scale="   26.811">  1  5  2 -1</clus>
</clustering>
</event>
<event>
 9    1  0.2951046E-005  0.1871116E+03  0.7546771E-02  0.1163292E+00
          1   -1    0    0  502    0  0.00000000000E+00  0.00000000000E+00  0.39274065503E+02  0.39274065503E+02  0.00000000000E+00 0. -1.
         -2   -1    0    0    0  501 -0.00000000000E+00 -0.00000000000E+00 -0.20282804600E+04  0.20282804600E+04  0.00000000000E+00 0.  1.
        -24    2    1    2    0    0  0.95070108226E+02  0.10788956382E+03 -0.16413677306E+04  0.16491439644E+04  0.70066431325E+02 0.  0.
         23    2    1    2    0    0 -0.12352503930E+03 -0.11202547518E+03 -0.23531728770E+03  0.30246712483E+03  0.91126249184E+02 0.  0.
         13    1    3    3    0    0  0.38875224016E+02  0.31804496046E+02 -0.27814471419E+03  0.28264339907E+03  0.00000000000E+00 0. -1.
        -14    1    3    3    0    0  0.56194884210E+02  0.76085067771E+02 -0.13632230164E+04  0.13665005653E+04  0.00000000000E+00 0.  1.
        -13    1    4    4    0    0 -0.22249034462E+02 -0.50829193965E+02 -0.13976191002E+03  0.15037292970E+03  0.00000000000E+00 0.  1.
         13    1    4    4    0    0 -0.10127600484E+03 -0.61196281212E+02 -0.95555377687E+02  0.15209419514E+03  0.00000000000E+00 0. -1.
         21    1    1    2  502  501  0.28454931072E+02  0.41359113592E+01 -0.11232137624E+03  0.11594343632E+03  0.00000000000E+00 0.  1.
<scales pt_clust_5="13000.00000" pt_clust_6="13000.00000" pt_clust_7="13000.00000" pt_clust_8="13000.00000" pt_clust_9="28.75394"></scales>
<clustering>
<clus scale="   28.754">  2  9  1 -1</clus>
<clus scale="   70.066">  5  6 -1 -1</clus>
<clus scale="   91.126">  7  8 -1 -1</clus>
<clus scale="  177.809">  2  5  1 -1</clus>
<clus scale="  187.112">  1  5  2 -1</clus>
</clustering>
</event>
<event>
 9    1  0.2951046E-005  0.1528532E+03  0.7546771E-02  0.1198647E+00
         -2   -1    0    0    0  501 -0.00000000000E+00  0.00000000000E+00  0.39923991705E+03  0.39923991705E+03  0.00000000000E+00 0.  1.
          1   -1    0    0  502    0  0.00000000000E+00 -0.00000000000E+00 -0.13407426421E+03  0.13407426421E+03  0.00000000000E+00 0. -1.
        -24    2    1    2    0    0  0.29720435565E+02 -0.12110322753E+03  0.30856787935E+03  0.34265965814E+03  0.81561076104E+02 0.  0.
         23    2    1    2    0    0  0.51919597230E+01  0.11611521890E+03 -0.47834774420E+02  0.15511014163E+03  0.90891638150E+02 0.  0.
         13    1    3    3    0    0  0.43403555578E+02 -0.11145935001E+03  0.20178406751E+03  0.23457166334E+03  0.00000000000E+00 0. -1.
        -14    1    3    3    0    0 -0.13683120013E+02 -0.96438775267E+01  0.10678381185E+03  0.10808799480E+03  0.00000000000E+00 0.  1.
        -11    1    4    4    0    0  0.28984441250E+02  0.34875149279E+00 -0.50801646850E+01  0.29428345781E+02  0.00000000000E+00 0.  1.
         11    1    4    4    0    0 -0.23792481527E+02  0.11576646741E+03 -0.42754609735E+02  0.12568179585E+03  0.00000000000E+00 0. -1.
         21    1    1    2  502  501 -0.34912395288E+02  0.49880086286E+01  0.44325479081E+01  0.35544381494E+02  0.00000000000E+00 0.  1.
<scales pt_clust_5="13000.00000" pt_clust_6="13000.00000" pt_clust_7="13000.00000" pt_clust_8="13000.00000" pt_clust_9="35.26692"></scales>
<clustering>
<clus scale="   35.267">  2  9  1 -1</clus>
<clus scale="   81.561">  5  6 -1 -1</clus>
<clus scale="   90.892">  7  8 -1 -1</clus>
<clus scale="  147.496">  1  5  2 -1</clus>
<clus scale="   35.267">  2  5  1 -1</clus>
</clustering>
</event>
<event>
 9    1  0.2951046E-005  0.2685388E+03  0.7546771E-02  0.1135843E+00
         -2   -1    0    0    0  501 -0.00000000000E+00  0.00000000000E+00  0.22669104195E+03  0.22669104195E+03  0.00000000000E+00 0.  1.
          1   -1    0    0  502    0  0.00000000000E+00 -0.00000000000E+00 -0.73688594612E+03  0.73688594612E+03  0.00000000000E+00 0. -1.
        -24    2    1    2    0    0  0.15182696454E+02 -0.89708962635E+02  0.76000328878E+02  0.13812098547E+03  0.70874144724E+02 0.  0.
         23    2    1    2    0    0 -0.18126661589E+03  0.24831160625E+03 -0.21135556756E+03  0.38586136923E+03  0.98496601394E+02 0.  0.
         11    1    3    3    0    0 -0.24285578390E+02 -0.49873733728E+02  0.20266108124E+02  0.59058392902E+02  0.00000000000E+00 0. -1.
        -12    1    3    3    0    0  0.39468274844E+02 -0.39835228907E+02  0.55734220754E+02  0.79062592573E+02  0.00000000000E+00 0.  1.
        -13    1    4    4    0    0 -0.12409827978E+03  0.21702627768E+03 -0.19899496782E+03  0.31953057047E+03  0.00000000000E+00 0. -1.
         13    1    4    4    0    0 -0.57168336107E+02  0.31285328572E+02 -0.12360599737E+02  0.66330798751E+02  0.00000000000E+00 0.  1.
         21    1    1    2  502  501  0.16608391943E+03 -0.15860264362E+03 -0.37483966550E+03  0.43959463337E+03  0.00000000000E+00 0.  1.
<scales pt_clust_5="13000.00000" pt_clust_6="13000.00000" pt_clust_7="13000.00000" pt_clust_8="13000.00000" pt_clust_9="249.82295"></scales>
<clustering>
<clus scale="   70.874">  5  6 -1 -1</clus>
<clus scale="   98.497">  7  8 -1 -1</clus>
<clus scale="  115.332">  1  5  2 -1</clus>
<clus scale="  249.823">  2  9  1 -1</clus>
<clus scale="  249.823">  2  5  1 -1</clus>
</clustering>
</event>
<event>
 9    1  0.2951046E-005  0.1142144E+03  0.7546771E-02  0.1256914E+00
          1   -1    0    0  502    0  0.00000000000E+00  0.00000000000E+00  0.10107488729E+04  0.10107488729E+04  0.00000000000E+00 0. -1.
         -2   -1    0    0    0  501 -0.00000000000E+00 -0.00000000000E+00 -0.67854535046E+02  0.67854535046E+02  0.00000000000E+00 0.  1.
        -24    2    1    2    0    0  0.59943280215E+02  0.39789949893E+02 -0.43194457945E+01  0.10764831206E+03  0.79956641512E+02 0.  0.
         23    2    1    2    0    0  0.38784319045E+01 -0.81452580395E+02  0.39407591217E+03  0.41259097582E+03  0.91027049200E+02 0.  0.
         11    1    3    3    0    0  0.18063118685E+02  0.40590312276E+02  0.29906274971E+02  0.53555905276E+02  0.00000000000E+00 0. -1.
        -12    1    3    3    0    0  0.41880161530E+02 -0.80036238263E+00 -0.34225720765E+02  0.54092406784E+02  0.00000000000E+00 0.  1.
        -11    1    4    4    0    0  0.38349796613E+02 -0.55509764401E+02  0.31850194005E+03  0.32556954197E+03  0.00000000000E+00 0.  1.
         11    1    4    4    0    0 -0.34471364708E+02 -0.25942815994E+02  0.75573972122E+02  0.87021433848E+02  0.00000000000E+00 0. -1.
         21    1    1    2  502  501 -0.63821712120E+02  0.41662630501E+02  0.55313787149E+03  0.55836412008E+03  0.00000000000E+00 0. -1.
<scales pt_clust_5="13000.00000" pt_clust_6="13000.00000" pt_clust_7="13000.00000" pt_clust_8="13000.00000" pt_clust_9="76.21670"></scales>
<clustering>
<clus scale="   76.217">  1  9  2 -1</clus>
<clus scale="   79.957">  5  6 -1 -1</clus>
<clus scale="   91.027">  7  8 -1 -1</clus>
<clus scale="  105.603">  2  5  1 -1</clus>
<clus scale="   76.217">  1  5  2 -1</clus>
</clustering>
</event>
<event>
 9    1  0.2951046E-005  0.1372132E+03  0.7546771E-02  0.1219780E+00
          1   -1    0    0  502    0  0.00000000000E+00  0.00000000000E+00  0.15700462191E+03  0.15700462191E+03  0.00000000000E+00 0. -1.
         -2   -1    0    0    0  501 -0.00000000000E+00 -0.00000000000E+00 -0.36234854324E+03  0.36234854324E+03  0.00000000000E+00 0.  1.
        -24    2    1    2    0    0  0.56181372784E+02  0.93045113061E+02 -0.26559052758E+03  0.29825628353E+03  0.81269567570E+02 0.  0.
         23    2    1    2    0    0 -0.86897421534E+02 -0.24357204185E+02  0.82517133416E+01  0.12963665330E+03  0.92699168496E+02 0.  0.
         13    1    3    3    0    0  0.47830738167E+02  0.17695297501E+02 -0.16234241899E+03  0.17016452060E+03  0.00000000000E+00 0. -1.
        -14    1    3    3    0    0  0.83506346176E+01  0.75349815559E+02 -0.10324810858E+03  0.12809176293E+03  0.00000000000E+00 0.  1.
        -13    1    4    4    0    0  0.16966429396E+02 -0.18846238201E+02  0.11401001793E+01  0.25383858044E+02  0.00000000000E+00 0.  1.
         13    1    4    4    0    0 -0.10386385093E+03 -0.55109659844E+01  0.71116131623E+01  0.10425279525E+03  0.00000000000E+00 0. -1.
         21    1    1    2  502  501  0.30716048749E+02 -0.68687908875E+02  0.51994892909E+02  0.91460228324E+02  0.00000000000E+00 0.  1.
<scales pt_clust_5="13000.00000" pt_clust_6="13000.00000" pt_clust_7="13000.00000" pt_clust_8="13000.00000" pt_clust_9="75.24297"></scales>
<clustering>
<clus scale="   75.243">  1  9  2 -1</clus>
<clus scale="   81.270">  5  6 -1 -1</clus>
<clus scale="   92.699">  7  8 -1 -1</clus>
<clus scale="  129.765">  2  5  1 -1</clus>
<clus scale="   75.243">  1  5  2 -1</clus>
</clustering>
</event>
<event>
 9    1  0.2951046E-005  0.1524377E+03  0.7546771E-02  0.1199940E+00
         -2   -1    0    0    0  501 -0.00000000000E+00  0.00000000000E+00  0.75482640571E+02  0.75482640571E+02  0.00000000000E+00 0.  1.
          1   -1    0    0  502    0  0.00000000000E+00 -0.00000000000E+00 -0.49283286070E+03  0.49283286070E+03  0.00000000000E+00 0. -1.
         23    2    1    2    0    0 -0.11777124033E+03 -0.35634386293E+02 -0.42541296787E+02  0.16030176562E+03  0.93525502362E+02 0.  0.
        -24    2    1    2    0    0  0.11205309030E+03  0.13531673077E+02 -0.32164270524E+03  0.35015292061E+03  0.80087681650E+02 0.  0.
         13    1    4    4    0    0  0.12004162540E+03  0.19545745724E+02 -0.25220464588E+03  0.27999859179E+03  0.00000000000E+00 0. -1.
        -14    1    4    4    0    0 -0.79885351005E+01 -0.60140726469E+01 -0.69438059365E+02  0.70154328813E+02  0.00000000000E+00 0.  1.
        -13    1    3    3    0    0 -0.12619902867E+02  0.28400610999E+02 -0.13030072040E+02  0.33699249707E+02  0.00000000000E+00 0. -1.
         13    1    3    3    0    0 -0.10515133746E+03 -0.64034997292E+02 -0.29511224747E+02  0.12660251591E+03  0.00000000000E+00 0.  1.
         21    1    1    2  502  501  0.57181500313E+01  0.22102713216E+02 -0.53166218101E+02  0.57860815052E+02  0.00000000000E+00 0. -1.
<scales pt_clust_5="13000.00000" pt_clust_6="13000.00000" pt_clust_7="13000.00000" pt_clust_8="13000.00000" pt_clust_9="22.83040"></scales>
<clustering>
<clus scale="   22.830">  2  9  1 -1</clus>
<clus scale="   80.088">  5  6 -1 -1</clus>
<clus scale="   93.526">  7  8 -1 -1</clus>
<clus scale="  144.583">  2  5  1 -1</clus>
<clus scale="   22.830">  2  5  1 -1</clus>
</clustering>
</event>
<event>
 9    1  0.2951046E-005  0.1049562E+03  0.7546771E-02  0.1275367E+00
          1   -1    0    0  502    0  0.00000000000E+00  0.00000000000E+00  0.62667383644E+03  0.62667383644E+03  0.00000000000E+00 0. -1.
         -2   -1    0    0    0  501 -0.00000000000E+00 -0.00000000000E+00 -0.36467178666E+02  0.36467178666E+02  0.00000000000E+00 0.  1.
         23    2    1    2    0    0 -0.33299018549E+02 -0.61453216562E+02  0.18000828728E+03  0.21332610564E+03  0.90662679168E+02 0.  0.
        -24    2    1    2    0    0 -0.45914268934E+02  0.43482016927E+02  0.26138532396E+03  0.28027720939E+03  0.78957080966E+02 0.  0.
         11    1    4    4    0    0 -0.50295784461E+02  0.38805200000E+02  0.26527855696E+03  0.27277870566E+03  0.00000000000E+00 0. -1.
        -12    1    4    4    0    0  0.43815155275E+01  0.46768169266E+01 -0.38932330024E+01  0.74985037237E+01  0.00000000000E+00 0.  1.
        -11    1    3    3    0    0  0.13399945080E+02 -0.45785744083E+02  0.14566577254E+03  0.15327886409E+03  0.00000000000E+00 0.  1.
         11    1    3    3    0    0 -0.46698963629E+02 -0.15667472478E+02  0.34342514746E+02  0.60047241543E+02  0.00000000000E+00 0. -1.
         21    1    1    2  502  501  0.79213287483E+02  0.17971199635E+02  0.14881304654E+03  0.16953770009E+03  0.00000000000E+00 0.  1.
<scales pt_clust_5="13000.00000" pt_clust_6="13000.00000" pt_clust_7="13000.00000" pt_clust_8="13000.00000" pt_clust_9="81.22628"></scales>
<clustering>
<clus scale="   78.957">  5  6 -1 -1</clus>
<clus scale="   81.226">  2  9  1 -1</clus>
<clus scale="   90.663">  7  8 -1 -1</clus>
<clus scale="   95.028">  1  5  2 -1</clus>
<clus scale="   95.028">  1  5  2 -1</clus>
</clustering>
</event>
<event>
 9    1  0.2951046E-005  0.1252899E+03  0.7546771E-02  0.1236912E+00
          3   -1    0    0  502    0  0.00000000000E+00  0.00000000000E+00  0.23453653149E+03  0.23453653149E+03  0.00000000000E+00 0. -1.
         -4   -1    0    0    0  501 -0.00000000000E+00 -0.00000000000E+00 -0.13138006979E+03  0.13138006979E+03  0.00000000000E+00 0.  1.
         23    2    1    2    0    0 -0.48176237312E+02  0.64130295556E+02 -0.54143250637E+02  0.13245537503E+03  0.90439427989E+02 0.  0.
        -24    2    1    2    0    0  0.61795859808E+02 -0.94105216618E+02  0.12352249007E+03  0.18629247862E+03  0.82295576757E+02 0.  0.
         11    1    4    4    0    0  0.10356856316E+02 -0.86175590631E+02  0.68652245689E+02  0.11066448270E+03  0.00000000000E+00 0. -1.
        -12    1    4    4    0    0  0.51439003492E+02 -0.79296259869E+01  0.54870244382E+02  0.75627995921E+02  0.00000000000E+00 0.  1.
        -11    1    3    3    0    0  0.38404230625E+01  0.59658984620E+02 -0.53526022003E+02  0.80243244742E+02  0.00000000000E+00 0.  1.
         11    1    3    3    0    0 -0.52016660374E+02  0.44713109357E+01 -0.61722863385E+00  0.52212130288E+02  0.00000000000E+00 0. -1.
         21    1    1    2  502  501 -0.13619622497E+02  0.29974921062E+02  0.33777222265E+02  0.47168747636E+02  0.00000000000E+00 0. -1.
<scales pt_clust_5="13000.00000" pt_clust_6="13000.00000" pt_clust_7="13000.00000" pt_clust_8="13000.00000" pt_clust_9="32.92400"></scales>
<clustering>
<clus scale="   32.924">  1  9  2 -1</clus>
<clus scale="   82.296">  5  6 -1 -1</clus>
<clus scale="   90.439">  7  8 -1 -1</clus>
<clus scale="  119.544">  1  5  2 -1</clus>
<clus scale="   32.924">  1  5  2 -1</clus>
</clustering>
</event>
<event>
 9    1  0.2951046E-005  0.1353948E+03  0.7546771E-02  0.1237802E+00
         -2   -1    0    0    0  501 -0.00000000000E+00  0.00000000000E+00  0.55279663204E+02  0.55279663204E+02  0.00000000000E+00 0.  1.
          1   -1    0    0  502    0  0.00000000000E+00 -0.00000000000E+00 -0.73419060869E+03  0.73419060869E+03  0.00000000000E+00 0. -1.
        -24    2    1    2    0    0 -0.81199393092E+01  0.10239870680E+03 -0.86451873457E+02  0.15653682980E+03  0.80488658151E+02 0.  0.
         23    2    1    2    0    0  0.72808309662E+01  0.26200995973E+02 -0.21842031724E+03  0.23740395175E+03  0.88958971607E+02 0.  0.
         13    1    3    3    0    0 -0.28730479713E+02  0.80191077987E+02 -0.92385969915E+02  0.12566310871E+03  0.00000000000E+00 0. -1.
        -14    1    3    3    0    0  0.20610540404E+02  0.22207628811E+02  0.59340964581E+01  0.30873721090E+02  0.00000000000E+00 0.  1.
        -13    1    4    4    0    0 -0.14760832499E+01 -0.31656348106E+02 -0.10642183289E+03  0.11104012659E+03  0.00000000000E+00 0.  1.
         13    1    4    4    0    0  0.87569142161E+01  0.57857344079E+02 -0.11199848435E+03  0.12636382515E+03  0.00000000000E+00 0. -1.
         21    1    1    2  502  501  0.83910834295E+00 -0.12859970277E+03 -0.37403875478E+03  0.39552949035E+03  0.00000000000E+00 0. -1.
<scales pt_clust_5="13000.00000" pt_clust_6="13000.00000" pt_clust_7="13000.00000" pt_clust_8="13000.00000" pt_clust_9="108.87297"></scales>
<clustering>
<clus scale="   80.489">  5  6 -1 -1</clus>
<clus scale="   88.959">  7  8 -1 -1</clus>
<clus scale="   93.023">  2  7  1 -1</clus>
<clus scale="  108.873">  2  9  1 -1</clus>
<clus scale="   93.023">  2  5  1 -1</clus>
</clustering>
</event>
<event>
 9    1  0.2951046E-005  0.9738456E+02  0.7546771E-02  0.1291941E+00
         -2   -1    0    0    0  501 -0.00000000000E+00  0.00000000000E+00  0.13944695285E+03  0.13944695285E+03  0.00000000000E+00 0.  1.
          1   -1    0    0  502    0  0.00000000000E+00 -0.00000000000E+00 -0.22475570747E+03  0.22475570747E+03  0.00000000000E+00 0. -1.
        -24    2    1    2    0    0 -0.23812663331E+02 -0.71786536920E+02  0.39293848987E+02  0.11636285915E+03  0.79220948010E+02 0.  0.
         23    2    1    2    0    0  0.11202339712E+01  0.29487146056E+02 -0.16136451738E+03  0.18737805192E+03  0.90560919621E+02 0.  0.
         11    1    3    3    0    0  0.32872272057E+01 -0.78148147336E+02  0.41305235491E+02  0.88453723911E+02  0.00000000000E+00 0. -1.
        -12    1    3    3    0    0 -0.27099890536E+02  0.63616104157E+01 -0.20113865038E+01  0.27909135240E+02  0.00000000000E+00 0.  1.
        -13    1    4    4    0    0 -0.18554096550E+02  0.55025272970E+02 -0.72763606959E+02  0.93094455592E+02  0.00000000000E+00 0.  1.
         13    1    4    4    0    0  0.19674330521E+02 -0.25538126914E+02 -0.88600910424E+02  0.94283596324E+02  0.00000000000E+00 0. -1.
         21    1    1    2  502  501  0.22692429360E+02  0.42299390864E+02  0.36761913785E+02  0.60461749254E+02  0.00000000000E+00 0.  1.
<scales pt_clust_5="13000.00000" pt_clust_6="13000.00000" pt_clust_7="13000.00000" pt_clust_8="13000.00000" pt_clust_9="48.00193"></scales>
<clustering>
<clus scale="   48.002">  1  9  2 -1</clus>
<clus scale="   79.221">  5  6 -1 -1</clus>
<clus scale="   86.939">  1  5  2 -1</clus>
<clus scale="   90.561">  7  8 -1 -1</clus>
<clus scale="   97.385">  2  5  1 -1</clus>
</clustering>
</event>
<event>
 9    1  0.2951046E-005  0.1227827E+03  0.7546771E-02  0.1240970E+00
          1   -1    0    0  502    0  0.00000000000E+00  0.00000000000E+00  0.50389873553E+03  0.50389873553E+03  0.00000000000E+00 0. -1.
         -2   -1    0    0    0  501 -0.00000000000E+00 -0.00000000000E+00 -0.79911939976E+02  0.79911939976E+02  0.00000000000E+00 0.  1.
         23    2    1    2    0    0 -0.63627385752E+02 -0.57728253528E+02 -0.11819945595E+02  0.12432356263E+03  0.89082218424E+02 0.  0.
        -24    2    1    2    0    0  0.35631493664E+02  0.71896201141E+02  0.35357834063E+03  0.37147568994E+03  0.80857146739E+02 0.  0.
         11    1    4    4    0    0  0.44252473121E+01  0.62505626479E+02  0.31407559193E+03  0.32026553608E+03  0.00000000000E+00 0. -1.
        -12    1    4    4    0    0  0.31206246352E+02  0.93905746617E+01  0.39502748696E+02  0.51210153860E+02  0.00000000000E+00 0.  1.
        -13    1    3    3    0    0 -0.30321467589E+02  0.19237330403E+02 -0.18124693570E+02  0.40224007692E+02  0.00000000000E+00 0. -1.
         13    1    3    3    0    0 -0.33305918163E+02 -0.76965583931E+02  0.63047479748E+01  0.84099554943E+02  0.00000000000E+00 0.  1.
         21    1    1    2  502  501  0.27995892088E+02 -0.14167947613E+02  0.82228400516E+02  0.88011422922E+02  0.00000000000E+00 0. -1.
<scales pt_clust_5="13000.00000" pt_clust_6="13000.00000" pt_clust_7="13000.00000" pt_clust_8="13000.00000" pt_clust_9="31.37675"></scales>
<clustering>
<clus scale="   31.377">  1  9  2 -1</clus>
<clus scale="   80.857">  5  6 -1 -1</clus>
<clus scale="   89.082">  7  8 -1 -1</clus>
<clus scale="  116.952">  1  5  2 -1</clus>
<clus scale="   31.377">  1  5  2 -1</clus>
</clustering>
</event>
<event>
 9    1  0.2951046E-005  0.1023231E+03  0.7546771E-02  0.1279959E+00
         -4   -1    0    0    0  501 -0.00000000000E+00  0.00000000000E+00  0.94310118419E+02  0.94310118419E+02  0.00000000000E+00 0.  1.
          3   -1    0    0  502    0  0.00000000000E+00 -0.00000000000E+00 -0.39066574422E+03  0.39066574422E+03  0.00000000000E+00 0. -1.
         23    2    1    2    0    0  0.23429104016E+02 -0.18581368005E+02  0.52017133495E+02  0.10839106928E+03  0.90269881859E+02 0.  0.
        -24    2    1    2    0    0  0.91865661000E+01  0.79028931459E+01 -0.19036713638E+03  0.21489500198E+03  0.98961439692E+02 0.  0.
         11    1    4    4    0    0 -0.17875591091E+02  0.25238694157E+02 -0.17766572671E+03  0.18033756926E+03  0.00000000000E+00 0. -1.
        -12    1    4    4    0    0  0.27062157191E+02 -0.17335801012E+02 -0.12701409670E+02  0.34557432719E+02  0.00000000000E+00 0.  1.
        -11    1    3    3    0    0 -0.36334868944E+01 -0.30642130049E+02 -0.15593739094E+02  0.34573213039E+02  0.00000000000E+00 0. -1.
         11    1    3    3    0    0  0.27062590911E+02  0.12060762044E+02  0.67610872589E+02  0.73817856241E+02  0.00000000000E+00 0.  1.
         21    1    1    2  502  501 -0.32615670116E+02  0.10678474859E+02 -0.15800562291E+03  0.16168979138E+03  0.00000000000E+00 0. -1.
<scales pt_clust_5="13000.00000" pt_clust_6="13000.00000" pt_clust_7="13000.00000" pt_clust_8="13000.00000" pt_clust_9="34.31926"></scales>
<clustering>
<clus scale="   34.319">  2  9  1 -1</clus>
<clus scale="   90.270">  7  8 -1 -1</clus>
<clus scale="   93.943">  1  7  2 -1</clus>
<clus scale="   98.961">  5  6 -1 -1</clus>
<clus scale="   34.319">  2  5  1 -1</clus>
</clustering>
</event>
<event>
 9    1  0.2951046E-005  0.1177312E+03  0.7546771E-02  0.1250822E+00
          1   -1    0    0  502    0  0.00000000000E+00  0.00000000000E+00  0.65058753932E+03  0.65058753932E+03  0.00000000000E+00 0. -1.
         -2   -1    0    0    0  501 -0.00000000000E+00 -0.00000000000E+00 -0.59928944467E+02  0.59928944467E+02  0.00000000000E+00 0.  1.
        -24    2    1    2    0    0 -0.48285411618E+01  0.10765066125E+03  0.10117277211E+03  0.16825829377E+03  0.80392437024E+02 0.  0.
         23    2    1    2    0    0  0.58799973608E+02 -0.17911897384E+02  0.14647542654E+03  0.18361896577E+03  0.92101037165E+02 0.  0.
         11    1    3    3    0    0 -0.31135483829E+02  0.65491528383E+02  0.92947046634E+02  0.11788855806E+03  0.00000000000E+00 0. -1.
        -12    1    3    3    0    0  0.26306942667E+02  0.42159132864E+02  0.82257254739E+01  0.50369735714E+02  0.00000000000E+00 0.  1.
        -11    1    4    4    0    0  0.81016833391E+02 -0.73540570517E+01  0.86238700198E+02  0.11855345992E+03  0.00000000000E+00 0.  1.
         11    1    4    4    0    0 -0.22216859783E+02 -0.10557840333E+02  0.60236726338E+02  0.65065505846E+02  0.00000000000E+00 0. -1.
         21    1    1    2  502  501 -0.53971432447E+02 -0.89738763863E+02  0.34301039621E+03  0.35863922425E+03  0.00000000000E+00 0. -1.
<scales pt_clust_5="13000.00000" pt_clust_6="13000.00000" pt_clust_7="13000.00000" pt_clust_8="13000.00000" pt_clust_9="104.71849"></scales>
<clustering>
<clus scale="   80.392">  5  6 -1 -1</clus>
<clus scale="   92.101">  7  8 -1 -1</clus>
<clus scale="  104.718">  1  9  2 -1</clus>
<clus scale="  108.816">  2  5  1 -1</clus>
<clus scale="  104.718">  1  5  2 -1</clus>
</clustering>
</event>
<event>
 9    1  0.2951046E-005  0.1247642E+03  0.7546771E-02  0.1241494E+00
          1   -1    0    0  502    0  0.00000000000E+00  0.00000000000E+00  0.24430405770E+03  0.24430405770E+03  0.00000000000E+00 0. -1.
         -2   -1    0    0    0  501 -0.00000000000E+00 -0.00000000000E+00 -0.14339177054E+03  0.14339177054E+03  0.00000000000E+00 0.  1.
         23    2    1    2    0    0  0.86492112149E+02  0.49362983420E+01 -0.79428491746E+02  0.15317774321E+03  0.98230765078E+02 0.  0.
        -24    2    1    2    0    0 -0.36849424566E+02 -0.31148944766E+02  0.12616415105E+03  0.15650137997E+03  0.79038927569E+02 0.  0.
         11    1    4    4    0    0  0.23098974421E+02  0.25551657891E+01  0.24584862537E+02  0.33830562477E+02  0.00000000000E+00 0. -1.
        -12    1    4    4    0    0 -0.59948398987E+02 -0.33704110555E+02  0.10157928851E+03  0.12267081749E+03  0.00000000000E+00 0.  1.
        -13    1    3    3    0    0  0.39774100171E+02 -0.36611453025E+02 -0.72266319126E+02  0.90248536924E+02  0.00000000000E+00 0.  1.
         13    1    3    3    0    0  0.46718011978E+02  0.41547751367E+02 -0.71621726205E+01  0.62929206283E+02  0.00000000000E+00 0. -1.
         21    1    1    2  502  501 -0.49642687583E+02  0.26212646424E+02  0.54176627856E+02  0.78016705063E+02  0.00000000000E+00 0. -1.
<scales pt_clust_5="13000.00000" pt_clust_6="13000.00000" pt_clust_7="13000.00000" pt_clust_8="13000.00000" pt_clust_9="56.13822"></scales>
<clustering>
<clus scale="   56.138">  1  9  2 -1</clus>
<clus scale="   79.039">  5  6 -1 -1</clus>
<clus scale="   98.231">  7  8 -1 -1</clus>
<clus scale="  110.290">  1  5  2 -1</clus>
<clus scale="   56.138">  1  5  2 -1</clus>
</clustering>
</event>
<event>
 9    1  0.2951046E-005  0.1431546E+03  0.7546771E-02  0.1232455E+00
          1   -1    0    0  502    0  0.00000000000E+00  0.00000000000E+00  0.10244159299E+04  0.10244159299E+04  0.00000000000E+00 0. -1.
         -2   -1    0    0    0  501 -0.00000000000E+00 -0.00000000000E+00 -0.90889867347E+02  0.90889867347E+02  0.00000000000E+00 0.  1.
        -24    2    1    2    0    0 -0.13250638872E+02 -0.34256716186E+02  0.16682834824E+02  0.89376391024E+02  0.79754123782E+02 0.  0.
         23    2    1    2    0    0  0.11541815469E+03 -0.84758113759E+01  0.55033407006E+02  0.15703330352E+03  0.90761185076E+02 0.  0.
         13    1    3    3    0    0 -0.44673105394E+02 -0.91131825536E+01  0.18230380141E+02  0.49102782018E+02  0.00000000000E+00 0. -1.
        -14    1    3    3    0    0  0.31422466522E+02 -0.25143533633E+02 -0.15475453174E+01  0.40273609006E+02  0.00000000000E+00 0.  1.
        -13    1    4    4    0    0  0.56976722527E+02 -0.28705701273E+02 -0.12980468026E+02  0.65106503098E+02  0.00000000000E+00 0.  1.
         13    1    4    4    0    0  0.58441432165E+02  0.20229889897E+02  0.68013875032E+02  0.91926800421E+02  0.00000000000E+00 0. -1.
         21    1    1    2  502  501 -0.10216751582E+03  0.42732527562E+02  0.86180982075E+03  0.86889610274E+03  0.00000000000E+00 0. -1.
<scales pt_clust_5="13000.00000" pt_clust_6="13000.00000" pt_clust_7="13000.00000" pt_clust_8="13000.00000" pt_clust_9="110.70528"></scales>
<clustering>
<clus scale="   79.754">  5  6 -1 -1</clus>
<clus scale="   87.806">  2  5  1 -1</clus>
<clus scale="   90.761">  7  8 -1 -1</clus>
<clus scale="  110.705">  1  9  2 -1</clus>
<clus scale="  110.705">  1  5  2 -1</clus>
</clustering>
</event>
<event>
 9    1  0.2951046E-005  0.9018188E+02  0.7546771E-02  0.1307229E+00
         -4   -1    0    0    0  501 -0.00000000000E+00  0.00000000000E+00  0.77894842090E+02  0.77894842090E+02  0.00000000000E+00 0.  1.
          3   -1    0    0  502    0  0.00000000000E+00 -0.00000000000E+00 -0.23551292305E+03  0.23551292305E+03  0.00000000000E+00 0. -1.
         23    2    1    2    0    0  0.26664455837E+02  0.94158233667E+00  0.25801026354E+02  0.97104713030E+02  0.89731558269E+02 0.  0.
        -24    2    1    2    0    0 -0.56048898881E+01  0.39882994395E+01 -0.17439186536E+03  0.19286589892E+03  0.82081733286E+02 0.  0.
         11    1    4    4    0    0 -0.42466073354E+02  0.66974110236E+01 -0.11652358674E+03  0.12420132434E+03  0.00000000000E+00 0. -1.
        -12    1    4    4    0    0  0.36861183466E+02 -0.27091115840E+01 -0.57868278623E+02  0.68664574585E+02  0.00000000000E+00 0.  1.
        -11    1    3    3    0    0  0.55865621654E+02  0.17545471576E+02  0.80362847427E+01  0.59104933196E+02  0.00000000000E+00 0. -1.
         11    1    3    3    0    0 -0.29201165817E+02 -0.16603889239E+02  0.17764741612E+02  0.37999779834E+02  0.00000000000E+00 0.  1.
         21    1    1    2  502  501 -0.21059565949E+02 -0.49298817762E+01 -0.90272419514E+01  0.23437153188E+02  0.00000000000E+00 0.  1.
<scales pt_clust_5="13000.00000" pt_clust_6="13000.00000" pt_clust_7="13000.00000" pt_clust_8="13000.00000" pt_clust_9="21.62889"></scales>
<clustering>
<clus scale="   21.629">  1  9  2 -1</clus>
<clus scale="   82.082">  5  6 -1 -1</clus>
<clus scale="   82.574">  2  5  1 -1</clus>
<clus scale="   89.732">  7  8 -1 -1</clus>
<clus scale="   82.574">  2  5  1 -1</clus>
</clustering>
</event>
<event>
 9    1  0.2951046E-005  0.9801618E+02  0.7546771E-02  0.1289562E+00
          1   -1    0    0  502    0  0.00000000000E+00  0.00000000000E+00  0.14585770278E+03  0.14585770278E+03  0.00000000000E+00 0. -1.
         -2   -1    0    0    0  501 -0.00000000000E+00 -0.00000000000E+00 -0.34092794398E+03  0.34092794398E+03  0.00000000000E+00 0.  1.
        -24    2    1    2    0    0  0.11805615503E+02  0.42694804114E+02 -0.31045484628E+03  0.32313016437E+03  0.77901686043E+02 0.  0.
         23    2    1    2    0    0 -0.30811856321E+01 -0.24535383677E+02  0.10967234328E+03  0.14271484816E+03  0.87909193189E+02 0.  0.
         11    1    3    3    0    0  0.35113383840E+02 -0.47174071367E+01 -0.98083853004E+02  0.10428636476E+03  0.00000000000E+00 0. -1.
        -12    1    3    3    0    0 -0.23307768337E+02  0.47412211251E+02 -0.21237099328E+03  0.21884379961E+03  0.00000000000E+00 0.  1.
        -13    1    4    4    0    0  0.24253520138E+02  0.22838032338E+02  0.60980788299E+02  0.69487160697E+02  0.00000000000E+00 0.  1.
         13    1    4    4    0    0 -0.27334705770E+02 -0.47373416015E+02  0.48691554985E+02  0.73227687464E+02  0.00000000000E+00 0. -1.
         21    1    1    2  502  501 -0.87244298713E+01 -0.18159420437E+02  0.57122617996E+01  0.20940634233E+02  0.00000000000E+00 0. -1.
<scales pt_clust_5="13000.00000" pt_clust_6="13000.00000" pt_clust_7="13000.00000" pt_clust_8="13000.00000" pt_clust_9="20.14647"></scales>
<clustering>
<clus scale="   20.146">  1  9  2 -1</clus>
<clus scale="   77.902">  5  6 -1 -1</clus>
<clus scale="   87.909">  7  8 -1 -1</clus>
<clus scale="   89.151">  2  5  1 -1</clus>
<clus scale="   20.146">  1  5  2 -1</clus>
</clustering>
</event>
<event>
 9    1  0.2951046E-005  0.9887876E+02  0.7546771E-02  0.1289429E+00
         -2   -1    0    0    0  501 -0.00000000000E+00  0.00000000000E+00  0.23579035713E+03  0.23579035713E+03  0.00000000000E+00 0.  1.
          1   -1    0    0  502    0  0.00000000000E+00 -0.00000000000E+00 -0.17977813232E+03  0.17977813232E+03  0.00000000000E+00 0. -1.
         23    2    1    2    0    0  0.36772538483E+02  0.25547178877E+01  0.18560463439E+03  0.21043040289E+03  0.92049595225E+02 0.  0.
        -24    2    1    2    0    0 -0.29892795186E+02  0.48769829515E+02 -0.48902749237E+02  0.10926128373E+03  0.79211575945E+02 0.  0.
         11    1    4    4    0    0 -0.17751958597E+02 -0.18569528420E+02 -0.27347707696E+02  0.37521414365E+02  0.00000000000E+00 0. -1.
        -12    1    4    4    0    0 -0.12140836590E+02  0.67339357935E+02 -0.21555041541E+02  0.71739869362E+02  0.00000000000E+00 0.  1.
        -11    1    3    3    0    0  0.52360713452E+02  0.34652024004E+02  0.12987135212E+03  0.14425316351E+03  0.00000000000E+00 0.  1.
         11    1    3    3    0    0 -0.15588174969E+02 -0.32097306117E+02  0.55733282274E+02  0.66177239379E+02  0.00000000000E+00 0. -1.
         21    1    1    2  502  501 -0.68797432969E+01 -0.51324547403E+02 -0.80689660350E+02  0.95876802832E+02  0.00000000000E+00 0.  1.
<scales pt_clust_5="13000.00000" pt_clust_6="13000.00000" pt_clust_7="13000.00000" pt_clust_8="13000.00000" pt_clust_9="51.78359"></scales>
<clustering>
<clus scale="   51.784">  2  9  1 -1</clus>
<clus scale="   79.212">  5  6 -1 -1</clus>
<clus scale="   87.054">  2  5  1 -1</clus>
<clus scale="   92.050">  7  8 -1 -1</clus>
<clus scale="   51.784">  2  5  1 -1</clus>
</clustering>
</event>
<event>
 9    1  0.2951046E-005  0.1005983E+03  0.7546771E-02  0.1283306E+00
         -2   -1    0    0    0  501 -0.00000000000E+00  0.00000000000E+00  0.69717483012E+02  0.69717483012E+02  0.00000000000E+00 0.  1.
          1   -1    0    0  502    0  0.00000000000E+00 -0.00000000000E+00 -0.27314358434E+03  0.27314358434E+03  0.00000000000E+00 0. -1.
        -24    2    1    2    0    0 -0.26476592202E+02 -0.42552301033E+02 -0.18939740065E+02  0.96712928469E+02  0.80516883456E+02 0.  0.
         23    2    1    2    0    0  0.12927870887E+02  0.88771125376E+02 -0.11900816817E+03  0.16486381479E+03  0.70496033855E+02 0.  0.
         13    1    3    3    0    0  0.96535772601E+01 -0.35762496239E+02 -0.39859867682E+02  0.54414673966E+02  0.00000000000E+00 0. -1.
        -14    1    3    3    0    0 -0.36130169462E+02 -0.67898047944E+01  0.20920127618E+02  0.42298254503E+02  0.00000000000E+00 0.  1.
        -11    1    4    4    0    0 -0.25917084460E+02  0.60497077338E+02 -0.73948479324E+02  0.98994793942E+02  0.00000000000E+00 0.  1.
         11    1    4    4    0    0  0.38844955347E+02  0.28274048037E+02 -0.45059688851E+02  0.65869020849E+02  0.00000000000E+00 0. -1.
         21    1    1    2  502  501  0.13548721314E+02 -0.46218824342E+02 -0.65478193087E+02  0.81284324090E+02  0.00000000000E+00 0. -1.
<scales pt_clust_5="13000.00000" pt_clust_6="13000.00000" pt_clust_7="13000.00000" pt_clust_8="13000.00000" pt_clust_9="48.16376"></scales>
<clustering>
<clus scale="   48.164">  2  9  1 -1</clus>
<clus scale="   70.496">  7  8 -1 -1</clus>
<clus scale="   80.517">  5  6 -1 -1</clus>
<clus scale="   92.772">  2  7  1 -1</clus>
<clus scale="   48.164">  2  5  1 -1</clus>
</clustering>
</event>
<event>
 9    1  0.2951046E-005  0.1760627E+03  0.7546771E-02  0.1173275E+00
          1   -1    0    0  502    0  0.00000000000E+00  0.00000000000E+00  0.77959163181E+03  0.77959163181E+03  0.00000000000E+00 0. -1.
         -2   -1    0    0    0  501 -0.00000000000E+00 -0.00000000000E+00 -0.90287229316E+02  0.90287229316E+02  0.00000000000E+00 0.  1.
        -24    2    1    2    0    0 -0.11844675481E+03  0.56940549007E+02  0.10669489372E+02  0.15357422370E+03  0.78735915163E+02 0.  0.
         23    2    1    2    0    0  0.12559380577E+03 -0.88918448078E+02  0.64480127481E+03  0.66920494052E+03  0.91576601659E+02 0.  0.
         11    1    3    3    0    0 -0.44386437131E+02 -0.11881645108E+02 -0.16607142399E+02  0.48858228277E+02  0.00000000000E+00 0. -1.
        -12    1    3    3    0    0 -0.74060317675E+02  0.68822194115E+02  0.27276631771E+02  0.10471599542E+03  0.00000000000E+00 0.  1.
        -13    1    4    4    0    0 -0.76643417915E+01 -0.34116905129E+02  0.12223944250E+03  0.12714238732E+03  0.00000000000E+00 0.  1.
         13    1    4    4    0    0  0.13325814756E+03 -0.54801542949E+02  0.52256183230E+03  0.54206255320E+03  0.00000000000E+00 0. -1.
         21    1    1    2  502  501 -0.71470509642E+01  0.31977899072E+02  0.33833638312E+02  0.47099696899E+02  0.00000000000E+00 0.  1.
<scales pt_clust_5="13000.00000" pt_clust_6="13000.00000" pt_clust_7="13000.00000" pt_clust_8="13000.00000" pt_clust_9="32.76685"></scales>
<clustering>
<clus scale="   32.767">  2  9  1 -1</clus>
<clus scale="   78.736">  5  6 -1 -1</clus>
<clus scale="   91.577">  7  8 -1 -1</clus>
<clus scale="  169.738">  2  5  1 -1</clus>
<clus scale="  176.063">  1  5  2 -1</clus>
</clustering>
</event>
<event>
 9    1  0.2951046E-005  0.1243672E+03  0.7546771E-02  0.1236740E+00
          1   -1    0    0  502    0  0.00000000000E+00  0.00000000000E+00  0.94035268022E+03  0.94035268022E+03  0.00000000000E+00 0. -1.
         -2   -1    0    0    0  501 -0.00000000000E+00 -0.00000000000E+00 -0.55564928064E+02  0.55564928064E+02  0.00000000000E+00 0.  1.
        -24    2    1    2    0    0  0.21413752942E+02  0.75546687020E+02  0.67525373446E+02  0.13096680109E+03  0.80167176532E+02 0.  0.
         23    2    1    2    0    0 -0.73246232328E+02 -0.15280518661E+03  0.50227683597E+03  0.53651302951E+03  0.82763369164E+02 0.  0.
         13    1    3    3    0    0 -0.28433755452E+02  0.10705026720E+02  0.16616747842E+02  0.34629356838E+02  0.00000000000E+00 0. -1.
        -14    1    3    3    0    0  0.49847508394E+02  0.64841660300E+02  0.50908625604E+02  0.96337444249E+02  0.00000000000E+00 0.  1.
        -13    1    4    4    0    0 -0.26784179768E+02 -0.11443169112E+03  0.40828485817E+03  0.42486295393E+03  0.00000000000E+00 0. -1.
         13    1    4    4    0    0 -0.46462052560E+02 -0.38373495492E+02  0.93991977806E+02  0.11165007558E+03  0.00000000000E+00 0.  1.
         21    1    1    2  502  501  0.51832479386E+02  0.77258499589E+02  0.31498554274E+03  0.32843777769E+03  0.00000000000E+00 0. -1.
<scales pt_clust_5="13000.00000" pt_clust_6="13000.00000" pt_clust_7="13000.00000" pt_clust_8="13000.00000" pt_clust_9="93.03484"></scales>
<clustering>
<clus scale="   80.167">  5  6 -1 -1</clus>
<clus scale="   82.763">  7  8 -1 -1</clus>
<clus scale="   93.035">  1  9  2 -1</clus>
<clus scale="  122.655">  2  5  1 -1</clus>
<clus scale="   93.035">  1  5  2 -1</clus>
</clustering>
</event>
<event>
 9    1  0.2951046E-005  0.1200071E+03  0.7546771E-02  0.1246544E+00
          1   -1    0    0  502    0  0.00000000000E+00  0.00000000000E+00  0.11777332408E+03  0.11777332408E+03  0.00000000000E+00 0. -1.
         -2   -1    0    0    0  501 -0.00000000000E+00 -0.00000000000E+00 -0.15102012108E+03  0.15102012108E+03  0.00000000000E+00 0.  1.
        -24    2    1    2    0    0 -0.64082121943E+01  0.84933783994E+02 -0.29859607527E+02  0.12096183648E+03  0.80531713478E+02 0.  0.
         23    2    1    2    0    0  0.30635378544E+02 -0.64601309010E+02 -0.48877979111E+01  0.11616748144E+03  0.91428319635E+02 0.  0.
         13    1    3    3    0    0 -0.15697580281E+02  0.16331036831E+02  0.24184288495E+02  0.33136031758E+02  0.00000000000E+00 0. -1.
        -14    1    3    3    0    0  0.92893680864E+01  0.68602747163E+02 -0.54043896022E+02  0.87825804722E+02  0.00000000000E+00 0.  1.
        -13    1    4    4    0    0  0.18280658918E+00  0.21297154366E+02  0.10492174829E+02  0.23742113112E+02  0.00000000000E+00 0.  1.
         13    1    4    4    0    0  0.30452571954E+02 -0.85898463377E+02 -0.15379972740E+02  0.92425368328E+02  0.00000000000E+00 0. -1.
         21    1    1    2  502  501 -0.24227166349E+02 -0.20332474984E+02  0.15006084419E+01  0.31664127242E+02  0.00000000000E+00 0.  1.
<scales pt_clust_5="13000.00000" pt_clust_6="13000.00000" pt_clust_7="13000.00000" pt_clust_8="13000.00000" pt_clust_9="31.62855"></scales>
<clustering>
<clus scale="   31.629">  1  9  2 -1</clus>
<clus scale="   80.532">  5  6 -1 -1</clus>
<clus scale="   91.428">  7  8 -1 -1</clus>
<clus scale="  111.928">  2  5  1 -1</clus>
<clus scale="   31.629">  1  5  2 -1</clus>
</clustering>
</event>
<event>
 9    1  0.2951046E-005  0.2593854E+03  0.7546771E-02  0.1108105E+00
         -2   -1    0    0    0  501 -0.00000000000E+00  0.00000000000E+00  0.33343325328E+03  0.33343325328E+03  0.00000000000E+00 0.  1.
          1   -1    0    0  502    0  0.00000000000E+00 -0.00000000000E+00 -0.14879922860E+04  0.14879922860E+04  0.00000000000E+00 0. -1.
        -24    2    1    2    0    0  0.15299485240E+02 -0.24164048915E+03  0.26696326479E+03  0.36937098210E+03  0.80878535001E+02 0.  0.
         23    2    1    2    0    0  0.13328085580E+02  0.24924036068E+03 -0.12543870999E+04  0.12823151389E+04  0.92448491771E+02 0.  0.
         13    1    3    3    0    0  0.17341212596E+02 -0.12137593455E+03  0.77813840818E+02  0.14521648999E+03  0.00000000000E+00 0. -1.
        -14    1    3    3    0    0 -0.20417273558E+01 -0.12026455461E+03  0.18914942398E+03  0.22415449212E+03  0.00000000000E+00 0.  1.
        -11    1    4    4    0    0 -0.16189492142E+02  0.38387949484E+02 -0.97947095268E+02  0.10643950297E+03  0.00000000000E+00 0.  1.
         11    1    4    4    0    0  0.29517577721E+02  0.21085241120E+03 -0.11564400047E+04  0.11758756359E+04  0.00000000000E+00 0. -1.
         21    1    1    2  502  501 -0.28627570820E+02 -0.75998715266E+01 -0.16713519755E+03  0.16973941828E+03  0.00000000000E+00 0. -1.
<scales pt_clust_5="13000.00000" pt_clust_6="13000.00000" pt_clust_7="13000.00000" pt_clust_8="13000.00000" pt_clust_9="29.61918"></scales>
<clustering>
<clus scale="   29.619">  2  9  1 -1</clus>
<clus scale="   80.879">  5  6 -1 -1</clus>
<clus scale="   92.448">  7  8 -1 -1</clus>
<clus scale="  255.490">  1  5  2 -1</clus>
<clus scale="   29.619">  2  5  1 -1</clus>
</clustering>
</event>
<event>
 9    1  0.2951046E-005  0.1752707E+03  0.7546771E-02  0.1174226E+00
         -2   -1    0    0    0  501 -0.00000000000E+00  0.00000000000E+00  0.31060536339E+03  0.31060536339E+03  0.00000000000E+00 0.  1.
          1   -1    0    0  502    0  0.00000000000E+00 -0.00000000000E+00 -0.20492358960E+03  0.20492358960E+03  0.00000000000E+00 0. -1.
         23    2    1    2    0    0  0.13195299787E+03 -0.63830733845E+02  0.21015638266E+03  0.27187737475E+03  0.90915595457E+02 0.  0.
        -24    2    1    2    0    0 -0.14141094650E+03  0.90690530109E+02 -0.10951465377E+03  0.21473266573E+03  0.76777798234E+02 0.  0.
         13    1    4    4    0    0 -0.13482673374E+03  0.92283241870E+02 -0.11967198777E+03  0.20252365175E+03  0.00000000000E+00 0. -1.
        -14    1    4    4    0    0 -0.65842127601E+01 -0.15927117610E+01  0.10157334003E+02  0.12209013984E+02  0.00000000000E+00 0.  1.
        -11    1    3    3    0    0  0.11987532027E+03 -0.81497827513E+02  0.15260755476E+03  0.21047815580E+03  0.00000000000E+00 0.  1.
         11    1    3    3    0    0  0.12077677603E+02  0.17667093669E+02  0.57548827899E+02  0.61399218949E+02  0.00000000000E+00 0. -1.
         21    1    1    2  502  501  0.94579486235E+01 -0.26859796265E+02  0.50400448908E+01  0.28918912498E+02  0.00000000000E+00 0.  1.
<scales pt_clust_5="13000.00000" pt_clust_6="13000.00000" pt_clust_7="13000.00000" pt_clust_8="13000.00000" pt_clust_9="28.47633"></scales>
<clustering>
<clus scale="   28.476">  2  9  1 -1</clus>
<clus scale="   76.778">  5  6 -1 -1</clus>
<clus scale="   90.916">  7  8 -1 -1</clus>
<clus scale="  168.372">  2  5  1 -1</clus>
<clus scale="   28.476">  2  5  1 -1</clus>
</clustering>
</event>
<event>
 9    1  0.2951046E-005  0.1173685E+03  0.7546771E-02  0.1251486E+00
         -4   -1    0    0    0  501 -0.00000000000E+00  0.00000000000E+00  0.30597102486E+03  0.30597102486E+03  0.00000000000E+00 0.  1.
          3   -1    0    0  502    0  0.00000000000E+00 -0.00000000000E+00 -0.13731172327E+03  0.13731172327E+03  0.00000000000E+00 0. -1.
        -24    2    1    2    0    0  0.14089791641E+02  0.71437887307E+02  0.24415508797E+03  0.26716032775E+03  0.80380593236E+02 0.  0.
         23    2    1    2    0    0 -0.50083961425E+02 -0.62245981729E+02 -0.56734052273E+02  0.13450422660E+03  0.92139399025E+02 0.  0.
         13    1    3    3    0    0  0.47749189385E+02  0.38656592124E+02  0.13488809861E+03  0.14821982441E+03  0.00000000000E+00 0. -1.
        -14    1    3    3    0    0 -0.33659397743E+02  0.32781295183E+02  0.10926698936E+03  0.11894050334E+03  0.00000000000E+00 0.  1.
        -11    1    4    4    0    0 -0.24348536613E+02  0.22626658424E+02 -0.16707942558E+02  0.37201777527E+02  0.00000000000E+00 0.  1.
         11    1    4    4    0    0 -0.25735424812E+02 -0.84872640153E+02 -0.40026109714E+02  0.97302449074E+02  0.00000000000E+00 0. -1.
         21    1    1    2  502  501  0.35994169784E+02 -0.91919055779E+01 -0.18761734108E+02  0.41618193778E+02  0.00000000000E+00 0. -1.
<scales pt_clust_5="13000.00000" pt_clust_6="13000.00000" pt_clust_7="13000.00000" pt_clust_8="13000.00000" pt_clust_9="37.14931"></scales>
<clustering>
<clus scale="   37.149">  2  9  1 -1</clus>
<clus scale="   80.381">  5  6 -1 -1</clus>
<clus scale="   92.139">  7  8 -1 -1</clus>
<clus scale="  108.382">  1  5  2 -1</clus>
<clus scale="   37.149">  2  5  1 -1</clus>
</clustering>
</event>
<event>
 9    1  0.2951046E-005  0.9101247E+02  0.7546771E-02  0.1304729E+00
         -4   -1    0    0    0  501 -0.00000000000E+00  0.00000000000E+00  0.58310335338E+03  0.58310335338E+03  0.00000000000E+00 0.  1.
          3   -1    0    0  502    0  0.00000000000E+00 -0.00000000000E+00 -0.32821696607E+02  0.32821696607E+02  0.00000000000E+00 0. -1.
        -24    2    1    2    0    0 -0.13384026287E+02  0.57351773049E+01  0.38858948103E+03  0.39725122662E+03  0.81207929850E+02 0.  0.
         23    2    1    2    0    0  0.48732876853E+02 -0.34723022673E+01  0.15105087651E+03  0.18168870353E+03  0.88359875099E+02 0.  0.
         13    1    3    3    0    0  0.16594438251E+02  0.35475958474E+02  0.15473531994E+03  0.15961496874E+03  0.00000000000E+00 0. -1.
        -14    1    3    3    0    0 -0.29978464538E+02 -0.29740781169E+02  0.23385416109E+03  0.23763625788E+03  0.00000000000E+00 0.  1.
        -13    1    4    4    0    0  0.18600560074E+02  0.84091194936E+01 -0.60442981423E+01  0.21289144317E+02  0.00000000000E+00 0. -1.
         13    1    4    4    0    0  0.30132316779E+02 -0.11881421761E+02  0.15709517465E+03  0.16039955921E+03  0.00000000000E+00 0.  1.
         21    1    1    2  502  501 -0.35348850566E+02 -0.22628750376E+01  0.10641299243E+02  0.36985119837E+02  0.00000000000E+00 0. -1.
<scales pt_clust_5="13000.00000" pt_clust_6="13000.00000" pt_clust_7="13000.00000" pt_clust_8="13000.00000" pt_clust_9="35.42121"></scales>
<clustering>
<clus scale="   35.421">  2  9  1 -1</clus>
<clus scale="   81.208">  5  6 -1 -1</clus>
<clus scale="   84.086">  1  5  2 -1</clus>
<clus scale="   88.360">  7  8 -1 -1</clus>
<clus scale="   35.421">  2  5  1 -1</clus>
</clustering>
</event>
<event>
 9    1  0.2951046E-005  0.1082086E+03  0.7546771E-02  0.1267801E+00
         -2   -1    0    0    0  501 -0.00000000000E+00  0.00000000000E+00  0.68514178436E+02  0.68514178436E+02  0.00000000000E+00 0.  1.
          1   -1    0    0  502    0  0.00000000000E+00 -0.00000000000E+00 -0.20662715520E+03  0.20662715520E+03  0.00000000000E+00 0. -1.
        -24    2    1    2    0    0 -0.53806861125E+02  0.38019613539E+02 -0.46447134878E+02  0.11371743422E+03  0.80210031722E+02 0.  0.
         23    2    1    2    0    0  0.54999644068E+02 -0.11112426916E+02 -0.73332542299E+02  0.12884278070E+03  0.89857406482E+02 0.  0.
         13    1    3    3    0    0 -0.59127082368E+02  0.50140205297E+02 -0.14139648265E+02  0.78803437169E+02  0.00000000000E+00 0. -1.
        -14    1    3    3    0    0  0.53202212431E+01 -0.12120591758E+02 -0.32307486612E+02  0.34913997048E+02  0.00000000000E+00 0.  1.
        -11    1    4    4    0    0 -0.23960017256E+02 -0.12011648568E+02 -0.15459920766E+02  0.30941416876E+02  0.00000000000E+00 0.  1.
         11    1    4    4    0    0  0.78959661324E+02  0.89922165237E+00 -0.57872621533E+02  0.97901363826E+02  0.00000000000E+00 0. -1.
         21    1    1    2  502  501 -0.11927829430E+01 -0.26907186623E+02 -0.18333299591E+02  0.32581118719E+02  0.00000000000E+00 0.  1.
<scales pt_clust_5="13000.00000" pt_clust_6="13000.00000" pt_clust_7="13000.00000" pt_clust_8="13000.00000" pt_clust_9="26.93361"></scales>
<clustering>
<clus scale="   26.934">  2  9  1 -1</clus>
<clus scale="   80.210">  5  6 -1 -1</clus>
<clus scale="   89.857">  7  8 -1 -1</clus>
<clus scale="  100.341">  1  5  2 -1</clus>
<clus scale="   26.934">  2  5  1 -1</clus>
</clustering>
</event>
<event>
 9    1  0.3321442E-005  0.1233939E+03  0.7546771E-02  0.1240242E+00
          3   -1    0    0  502    0  0.00000000000E+00  0.00000000000E+00  0.28272434231E+03  0.28272434231E+03  0.00000000000E+00 0. -1.
         -4   -1    0    0    0  501 -0.00000000000E+00 -0.00000000000E+00 -0.41623640648E+03  0.41623640648E+03  0.00000000000E+00 0.  1.
         23    2    1    2    0    0  0.46894973413E+02 -0.69987792065E+02 -0.36750686118E+03  0.38763031844E+03  0.89991895115E+02 0.  0.
        -24    2    1    2    0    0 -0.10859013675E+02  0.99058287612E+02  0.23181108468E+03  0.26497902579E+03  0.80913797386E+02 0.  0.
         13    1    4    4    0    0  0.24007044518E+02  0.82625836680E+02  0.18717214949E+03  0.20600189470E+03  0.00000000000E+00 0. -1.
        -14    1    4    4    0    0 -0.34866058193E+02  0.16432450933E+02  0.44638935183E+02  0.58977131092E+02  0.00000000000E+00 0.  1.
        -13    1    3    3    0    0  0.72346549514E+02 -0.39895530277E+02 -0.27321055050E+03  0.28542894294E+03  0.00000000000E+00 0.  1.
         13    1    3    3    0    0 -0.25451576101E+02 -0.30092261788E+02 -0.94296310686E+02  0.10220137550E+03  0.00000000000E+00 0. -1.
         21    1    1    2  502  501 -0.36035959738E+02 -0.29070495548E+02  0.21837123374E+01  0.46351404565E+02  0.00000000000E+00 0.  1.
<scales pt_clust_5="13000.00000" pt_clust_6="13000.00000" pt_clust_7="13000.00000" pt_clust_8="13000.00000" pt_clust_9="46.29994"></scales>
<clustering>
<clus scale="   46.300">  1  9  2 -1</clus>
<clus scale="   80.914">  5  6 -1 -1</clus>
<clus scale="   89.992">  7  8 -1 -1</clus>
<clus scale="  116.938">  1  5  2 -1</clus>
<clus scale="   46.300">  1  5  2 -1</clus>
</clustering>
</event>
<event>
 9    1  0.2951046E-005  0.1860773E+03  0.7546771E-02  0.1163361E+00
          1   -1    0    0  502    0  0.00000000000E+00  0.00000000000E+00  0.35514109247E+03  0.35514109247E+03  0.00000000000E+00 0. -1.
         -2   -1    0    0    0  501 -0.00000000000E+00 -0.00000000000E+00 -0.25758500680E+03  0.25758500680E+03  0.00000000000E+00 0.  1.
        -24    2    1    2    0    0 -0.42957193742E+02  0.16171948327E+03 -0.18205466653E+03  0.25926838882E+03  0.77959502792E+02 0.  0.
         23    2    1    2    0    0  0.39817219731E+02 -0.13406742996E+03  0.16062612605E+03  0.23126181547E+03  0.90120964055E+02 0.  0.
         13    1    3    3    0    0 -0.51141982588E+02  0.11795739837E+03 -0.17000467578E+03  0.21314558405E+03  0.00000000000E+00 0. -1.
        -14    1    3    3    0    0  0.81847888458E+01  0.43762084901E+02 -0.12049990751E+02  0.46122804776E+02  0.00000000000E+00 0.  1.
        -11    1    4    4    0    0 -0.22929664862E+02 -0.36065142237E+02  0.16004141436E+02  0.45635474780E+02  0.00000000000E+00 0.  1.
         11    1    4    4    0    0  0.62746884593E+02 -0.98002287724E+02  0.14462198461E+03  0.18562634069E+03  0.00000000000E+00 0. -1.
         21    1    1    2  502  501  0.31399740115E+01 -0.27652053305E+02  0.11898462615E+03  0.12219589497E+03  0.00000000000E+00 0.  1.
<scales pt_clust_5="13000.00000" pt_clust_6="13000.00000" pt_clust_7="13000.00000" pt_clust_8="13000.00000" pt_clust_9="27.82976"></scales>
<clustering>
<clus scale="   27.830">  1  9  2 -1</clus>
<clus scale="   77.960">  5  6 -1 -1</clus>
<clus scale="   90.121">  7  8 -1 -1</clus>
<clus scale="  180.501">  2  5  1 -1</clus>
<clus scale="   27.830">  1  5  2 -1</clus>
</clustering>
</event>
<event>
 9    1  0.2951046E-005  0.1078552E+03  0.7546771E-02  0.1268755E+00
          1   -1    0    0  502    0  0.00000000000E+00  0.00000000000E+00  0.69790787954E+02  0.69790787954E+02  0.00000000000E+00 0. -1.
         -2   -1    0    0    0  501 -0.00000000000E+00 -0.00000000000E+00 -0.24607769256E+03  0.24607769256E+03  0.00000000000E+00 0.  1.
         23    2    1    2    0    0 -0.42601926989E+02 -0.33857920758E+02 -0.15579566986E+03  0.18887388900E+03  0.91868232920E+02 0.  0.
        -24    2    1    2    0    0  0.35244003075E+02  0.53737474101E+02 -0.18459934896E+02  0.10569994747E+03  0.81864850965E+02 0.  0.
         13    1    4    4    0    0  0.24541163094E+02  0.75086029979E+02 -0.20848214789E+02  0.81699624503E+02  0.00000000000E+00 0. -1.
        -14    1    4    4    0    0  0.10702839981E+02 -0.21348555878E+02  0.23882798924E+01  0.24000322969E+02  0.00000000000E+00 0.  1.
        -13    1    3    3    0    0 -0.42022843365E+02  0.11967998788E+02 -0.25132017578E+02  0.50406057840E+02  0.00000000000E+00 0. -1.
         13    1    3    3    0    0 -0.57908362444E+00 -0.45825919545E+02 -0.13066365228E+03  0.13846783116E+03  0.00000000000E+00 0.  1.
         21    1    1    2  502  501  0.73579239143E+01 -0.19879553343E+02 -0.20312998473E+01  0.21294644034E+02  0.00000000000E+00 0. -1.
<scales pt_clust_5="13000.00000" pt_clust_6="13000.00000" pt_clust_7="13000.00000" pt_clust_8="13000.00000" pt_clust_9="21.19754"></scales>
<clustering>
<clus scale="   21.198">  1  9  2 -1</clus>
<clus scale="   81.865">  5  6 -1 -1</clus>
<clus scale="   91.868">  7  8 -1 -1</clus>
<clus scale="   99.473">  1  5  2 -1</clus>
<clus scale="   21.198">  1  5  2 -1</clus>
</clustering>
</event>
<event>
 9    1  0.2951046E-005  0.1964903E+03  0.7546771E-02  0.1153673E+00
          1   -1    0    0  502    0  0.00000000000E+00  0.00000000000E+00  0.13759072383E+03  0.13759072383E+03  0.00000000000E+00 0. -1.
         -2   -1    0    0    0  501 -0.00000000000E+00 -0.00000000000E+00 -0.50721240105E+03  0.50721240105E+03  0.00000000000E+00 0.  1.
         23    2    1    2    0    0 -0.22598726446E+02 -0.17715803772E+03 -0.34753936814E+03  0.40122413977E+03  0.91112705793E+02 0.  0.
        -24    2    1    2    0    0 -0.28966918124E+02  0.16171802417E+03  0.47652672134E+01  0.18342749244E+03  0.81431784476E+02 0.  0.
         13    1    4    4    0    0 -0.16404839419E+02  0.15542670746E+03 -0.17325647666E+02  0.15724744264E+03  0.00000000000E+00 0. -1.
        -14    1    4    4    0    0 -0.12562078705E+02  0.62913167087E+01  0.22090914879E+02  0.26180049800E+02  0.00000000000E+00 0.  1.
        -11    1    3    3    0    0 -0.51714320042E+02 -0.15578559937E+03 -0.27721715170E+03  0.32216901319E+03  0.00000000000E+00 0. -1.
         11    1    3    3    0    0  0.29115593596E+02 -0.21372438351E+02 -0.70322216447E+02  0.79055126573E+02  0.00000000000E+00 0.  1.
         21    1    1    2  502  501  0.51565644570E+02  0.15440013545E+02 -0.26847576294E+02  0.60151492675E+02  0.00000000000E+00 0.  1.
<scales pt_clust_5="13000.00000" pt_clust_6="13000.00000" pt_clust_7="13000.00000" pt_clust_8="13000.00000" pt_clust_9="53.82759"></scales>
<clustering>
<clus scale="   53.828">  1  9  2 -1</clus>
<clus scale="   81.432">  5  6 -1 -1</clus>
<clus scale="   91.113">  7  8 -1 -1</clus>
<clus scale="  192.193">  1  5  2 -1</clus>
<clus scale="   53.828">  1  5  2 -1</clus>
</clustering>
</event>
<event>
 9    1  0.2951046E-005  0.9775147E+02  0.7546771E-02  0.1289497E+00
          1   -1    0    0  502    0  0.00000000000E+00  0.00000000000E+00  0.94561199324E+02  0.94561199324E+02  0.00000000000E+00 0. -1.
         -2   -1    0    0    0  501 -0.00000000000E+00 -0.00000000000E+00 -0.17134683799E+03  0.17134683799E+03  0.00000000000E+00 0.  1.
        -24    2    1    2    0    0  0.13293699644E+02  0.45742830034E+02 -0.99131242383E+02  0.13553115283E+03  0.79199502651E+02 0.  0.
         23    2    1    2    0    0  0.10426886682E+02 -0.33140194203E+02 -0.13666385212E+01  0.94547244835E+02  0.87922246146E+02 0.  0.
         13    1    3    3    0    0  0.86993677867E+01  0.56780767020E+02 -0.28926149472E+02  0.64315290768E+02  0.00000000000E+00 0. -1.
        -14    1    3    3    0    0  0.45943318578E+01 -0.11037936986E+02 -0.70205092911E+02  0.71215862059E+02  0.00000000000E+00 0.  1.
        -11    1    4    4    0    0 -0.23939944482E+02 -0.50356757352E+02 -0.47547603474E+01  0.55960090232E+02  0.00000000000E+00 0. -1.
         11    1    4    4    0    0  0.34366831163E+02  0.17216563149E+02  0.33881218262E+01  0.38587154603E+02  0.00000000000E+00 0.  1.
         21    1    1    2  502  501 -0.23720586326E+02 -0.12602635831E+02  0.23712242240E+02  0.35829639652E+02  0.00000000000E+00 0. -1.
<scales pt_clust_5="13000.00000" pt_clust_6="13000.00000" pt_clust_7="13000.00000" pt_clust_8="13000.00000" pt_clust_9="26.86062"></scales>
<clustering>
<clus scale="   26.861">  1  9  2 -1</clus>
<clus scale="   79.200">  5  6 -1 -1</clus>
<clus scale="   87.922">  7  8 -1 -1</clus>
<clus scale="   89.987">  2  5  1 -1</clus>
<clus scale="   26.861">  1  5  2 -1</clus>
</clustering>
</event>
<event>
 9    1  0.2951046E-005  0.1378259E+03  0.7546771E-02  0.1218047E+00
          1   -1    0    0  502    0  0.00000000000E+00  0.00000000000E+00  0.27792113226E+02  0.27792113226E+02  0.00000000000E+00 0. -1.
         -2   -1    0    0    0  501 -0.00000000000E+00 -0.00000000000E+00 -0.85792554796E+03  0.85792554796E+03  0.00000000000E+00 0.  1.
         23    2    1    2    0    0 -0.97898317235E+02  0.48235363003E+02 -0.54887479234E+03  0.56768317032E+03  0.95341037514E+02 0.  0.
        -24    2    1    2    0    0  0.74663265272E+02 -0.40897151230E+02 -0.25050582331E+03  0.27879862879E+03  0.87910907970E+02 0.  0.
         13    1    4    4    0    0  0.87921531674E+01  0.24175578191E+02 -0.29269406593E+02  0.38967405617E+02  0.00000000000E+00 0. -1.
        -14    1    4    4    0    0  0.65871112105E+02 -0.65072729421E+02 -0.22123641672E+03  0.23983122317E+03  0.00000000000E+00 0.  1.
        -11    1    3    3    0    0 -0.54721983922E+02 -0.19086618706E+02 -0.32077868183E+03  0.32597201913E+03  0.00000000000E+00 0.  1.
         11    1    3    3    0    0 -0.43176333313E+02  0.67321981709E+02 -0.22809611051E+03  0.24171115119E+03  0.00000000000E+00 0. -1.
         21    1    1    2  502  501  0.23235051963E+02 -0.73382117729E+01 -0.30752819080E+02  0.39235862080E+02  0.00000000000E+00 0.  1.
<scales pt_clust_5="13000.00000" pt_clust_6="13000.00000" pt_clust_7="13000.00000" pt_clust_8="13000.00000" pt_clust_9="24.36631"></scales>
<clustering>
<clus scale="   24.366">  1  9  2 -1</clus>
<clus scale="   87.911">  5  6 -1 -1</clus>
<clus scale="   95.341">  7  8 -1 -1</clus>
<clus scale="  132.795">  1  5  2 -1</clus>
<clus scale="   24.366">  1  5  2 -1</clus>
</clustering>
</event>
<event>
 9    1  0.2951046E-005  0.1272307E+03  0.7546771E-02  0.1235223E+00
          1   -1    0    0  502    0  0.00000000000E+00  0.00000000000E+00  0.33634094589E+02  0.33634094589E+02  0.00000000000E+00 0. -1.
         -2   -1    0    0    0  501 -0.00000000000E+00 -0.00000000000E+00 -0.12156341701E+04  0.12156341701E+04  0.00000000000E+00 0.  1.
        -24    2    1    2    0    0  0.19680614315E+02  0.88675752909E+02 -0.10464241519E+04  0.10532783249E+04  0.78364585206E+02 0.  0.
         23    2    1    2    0    0 -0.29834091785E+02 -0.65965482100E+02 -0.11096372276E+03  0.16099551262E+03  0.91460862974E+02 0.  0.
         13    1    3    3    0    0 -0.13354440419E+01  0.69976848615E+02 -0.38856853737E+03  0.39482154322E+03  0.00000000000E+00 0. -1.
        -14    1    3    3    0    0  0.21016058356E+02  0.18698904294E+02 -0.65785561454E+03  0.65845678165E+03  0.00000000000E+00 0.  1.
        -13    1    4    4    0    0  0.27573742246E+02 -0.18200633419E+01 -0.12862560013E+02  0.30480638808E+02  0.00000000000E+00 0.  1.
         13    1    4    4    0    0 -0.57407834032E+02 -0.64145418758E+02 -0.98101162743E+02  0.13051487382E+03  0.00000000000E+00 0. -1.
         21    1    1    2  502  501  0.10153477471E+02 -0.22710270809E+02 -0.24612200889E+02  0.34994427236E+02  0.00000000000E+00 0. -1.
<scales pt_clust_5="13000.00000" pt_clust_6="13000.00000" pt_clust_7="13000.00000" pt_clust_8="13000.00000" pt_clust_9="24.87669"></scales>
<clustering>
<clus scale="   24.877">  1  9  2 -1</clus>
<clus scale="   78.365">  5  6 -1 -1</clus>
<clus scale="   91.461">  7  8 -1 -1</clus>
<clus scale="  118.168">  2  5  1 -1</clus>
<clus scale="   24.877">  1  5  2 -1</clus>
</clustering>
</event>
<event>
 9    1  0.2951046E-005  0.1526575E+03  0.7546771E-02  0.1209373E+00
         -2   -1    0    0    0  501 -0.00000000000E+00  0.00000000000E+00  0.37371310239E+02  0.37371310239E+02  0.00000000000E+00 0.  1.
          1   -1    0    0  502    0  0.00000000000E+00 -0.00000000000E+00 -0.59151163833E+03  0.59151163833E+03  0.00000000000E+00 0. -1.
        -24    2    1    2    0    0  0.85689171830E+01  0.80544089620E+02 -0.18725443151E+03  0.21924754913E+03  0.80277574490E+02 0.  0.
         23    2    1    2    0    0 -0.30725628821E+02 -0.90005794689E+02 -0.32007927556E+03  0.35699222795E+03  0.12628381062E+03 0.  0.
         11    1    3    3    0    0 -0.65419781360E+01  0.27576275155E+02 -0.15022843070E+03  0.15287848056E+03  0.00000000000E+00 0. -1.
        -12    1    3    3    0    0  0.15110895319E+02  0.52967814466E+02 -0.37026000812E+02  0.66369068569E+02  0.00000000000E+00 0.  1.
        -13    1    4    4    0    0 -0.72342117226E+02 -0.63219379669E+02 -0.27000056925E+03  0.28658398295E+03  0.00000000000E+00 0. -1.
         13    1    4    4    0    0  0.41616488405E+02 -0.26786415020E+02 -0.50078706313E+02  0.70408244992E+02  0.00000000000E+00 0.  1.
         21    1    1    2  502  501  0.22156711638E+02  0.94617050685E+01 -0.46806621019E+02  0.52643171491E+02  0.00000000000E+00 0. -1.
<scales pt_clust_5="13000.00000" pt_clust_6="13000.00000" pt_clust_7="13000.00000" pt_clust_8="13000.00000" pt_clust_9="24.09240"></scales>
<clustering>
<clus scale="   24.092">  2  9  1 -1</clus>
<clus scale="   80.278">  5  6 -1 -1</clus>
<clus scale="  117.478">  1  5  2 -1</clus>
<clus scale="  126.284">  7  8 -1 -1</clus>
<clus scale="   24.092">  2  5  1 -1</clus>
</clustering>
</event>
<event>
 9    1  0.2951046E-005  0.1006571E+03  0.7546771E-02  0.1284968E+00
          1   -1    0    0  502    0  0.00000000000E+00  0.00000000000E+00  0.20536320308E+03  0.20536320308E+03  0.00000000000E+00 0. -1.
         -2   -1    0    0    0  501 -0.00000000000E+00 -0.00000000000E+00 -0.10986110558E+03  0.10986110558E+03  0.00000000000E+00 0.  1.
         23    2    1    2    0    0  0.36112579616E+01  0.57037887307E+02  0.96569348081E+01  0.10773440077E+03  0.90813451360E+02 0.  0.
        -24    2    1    2    0    0 -0.59622634155E+02 -0.22660086126E+01  0.11185510855E+02  0.99271163802E+02  0.78547151514E+02 0.  0.
         11    1    4    4    0    0 -0.42976010855E+02  0.19495092885E+02 -0.25377541831E+02  0.53581860596E+02  0.00000000000E+00 0. -1.
        -12    1    4    4    0    0 -0.16646623300E+02 -0.21761101498E+02  0.36563052686E+02  0.45689303206E+02  0.00000000000E+00 0.  1.
        -13    1    3    3    0    0  0.32251430544E+02  0.10954037939E+02 -0.25963683066E+02  0.42828244858E+02  0.00000000000E+00 0.  1.
         13    1    3    3    0    0 -0.28640172582E+02  0.46083849368E+02  0.35620617874E+02  0.64906155916E+02  0.00000000000E+00 0. -1.
         21    1    1    2  502  501  0.56011376193E+02 -0.54771878695E+02  0.74659651835E+02  0.10821874408E+03  0.00000000000E+00 0. -1.
<scales pt_clust_5="13000.00000" pt_clust_6="13000.00000" pt_clust_7="13000.00000" pt_clust_8="13000.00000" pt_clust_9="78.34049"></scales>
<clustering>
<clus scale="   78.340">  1  9  2 -1</clus>
<clus scale="   78.547">  5  6 -1 -1</clus>
<clus scale="   89.746">  1  5  2 -1</clus>
<clus scale="   90.813">  7  8 -1 -1</clus>
<clus scale="   78.340">  1  5  2 -1</clus>
</clustering>
</event>
<event>
 9    1  0.2951046E-005  0.1048560E+03  0.7546771E-02  0.1273806E+00
          1   -1    0    0  502    0  0.00000000000E+00  0.00000000000E+00  0.51544645996E+03  0.51544645996E+03  0.00000000000E+00 0. -1.
         -2   -1    0    0    0  501 -0.00000000000E+00 -0.00000000000E+00 -0.10180795748E+03  0.10180795748E+03  0.00000000000E+00 0.  1.
        -24    2    1    2    0    0  0.26501122821E+02 -0.28010722726E+02 -0.48459944236E+02  0.10698689487E+03  0.87240583333E+02 0.  0.
         23    2    1    2    0    0 -0.79795503099E+02  0.51274344852E+02  0.19303585657E+03  0.23499281524E+03  0.94669955837E+02 0.  0.
         11    1    3    3    0    0 -0.26081288851E+02  0.10213411312E+02 -0.25976138377E+02  0.38200879096E+02  0.00000000000E+00 0. -1.
        -12    1    3    3    0    0  0.52582411672E+02 -0.38224134038E+02 -0.22483805859E+02  0.68786015774E+02  0.00000000000E+00 0.  1.
        -13    1    4    4    0    0 -0.44847844544E+00  0.49894646163E+02  0.45789937613E+02  0.67722929908E+02  0.00000000000E+00 0.  1.
         13    1    4    4    0    0 -0.79347024654E+02  0.13796986892E+01  0.14724591896E+03  0.16726988533E+03  0.00000000000E+00 0. -1.
         21    1    1    2  502  501  0.53294380278E+02 -0.23263622126E+02  0.26906259014E+03  0.27527470733E+03  0.00000000000E+00 0.  1.
<scales pt_clust_5="13000.00000" pt_clust_6="13000.00000" pt_clust_7="13000.00000" pt_clust_8="13000.00000" pt_clust_9="58.15056"></scales>
<clustering>
<clus scale="   58.151">  1  9  2 -1</clus>
<clus scale="   87.241">  5  6 -1 -1</clus>
<clus scale="   94.670">  7  8 -1 -1</clus>
<clus scale="   98.200">  2  5  1 -1</clus>
<clus scale="   58.151">  1  5  2 -1</clus>
</clustering>
</event>
<event>
 9    1  0.2951046E-005  0.2481050E+03  0.7546771E-02  0.1114957E+00
          1   -1    0    0  502    0  0.00000000000E+00  0.00000000000E+00  0.18325542104E+03  0.18325542104E+03  0.00000000000E+00 0. -1.
         -2   -1    0    0    0  501 -0.00000000000E+00 -0.00000000000E+00 -0.10010462034E+04  0.10010462034E+04  0.00000000000E+00 0.  1.
        -24    2    1    2    0    0  0.17659000013E+03 -0.16004575281E+03 -0.77656776502E+03  0.81850210799E+03  0.10044668225E+03 0.  0.
         23    2    1    2    0    0 -0.14074407039E+03  0.13473977527E+03 -0.14019178680E+03  0.25753991876E+03  0.93324017707E+02 0.  0.
         11    1    3    3    0    0  0.70075010141E+02 -0.93187401217E+01 -0.27868645177E+03  0.28751258123E+03  0.00000000000E+00 0. -1.
        -12    1    3    3    0    0  0.10651498999E+03 -0.15072701269E+03 -0.49788131325E+03  0.53098952676E+03  0.00000000000E+00 0.  1.
        -11    1    4    4    0    0 -0.66364474559E+02  0.11906850141E+03 -0.66499296868E+02  0.15166973329E+03  0.00000000000E+00 0.  1.
         11    1    4    4    0    0 -0.74379595830E+02  0.15671273859E+02 -0.73692489934E+02  0.10587018548E+03  0.00000000000E+00 0. -1.
         21    1    1    2  502  501 -0.35845929739E+02  0.25305977544E+02  0.98968769427E+02  0.10825959773E+03  0.00000000000E+00 0. -1.
<scales pt_clust_5="13000.00000" pt_clust_6="13000.00000" pt_clust_7="13000.00000" pt_clust_8="13000.00000" pt_clust_9="43.87850"></scales>
<clustering>
<clus scale="   43.879">  1  9  2 -1</clus>
<clus scale="   93.324">  7  8 -1 -1</clus>
<clus scale="  100.447">  5  6 -1 -1</clus>
<clus scale="  245.308">  1  7  2 -1</clus>
<clus scale="   43.879">  1  5  2 -1</clus>
</clustering>
</event>
<event>
 9    1  0.2951046E-005  0.9380115E+02  0.7546771E-02  0.1299488E+00
         -2   -1    0    0    0  501 -0.00000000000E+00  0.00000000000E+00  0.15507047709E+03  0.15507047709E+03  0.00000000000E+00 0.  1.
          1   -1    0    0  502    0  0.00000000000E+00 -0.00000000000E+00 -0.35731165046E+03  0.35731165046E+03  0.00000000000E+00 0. -1.
         23    2    1    2    0    0 -0.20116730232E+02 -0.14771313933E+02  0.10174115299E+03  0.13868988686E+03  0.90888656915E+02 0.  0.
        -24    2    1    2    0    0 -0.45602940980E+02  0.54805880362E+02 -0.73667678490E+02  0.13086168511E+03  0.81329828650E+02 0.  0.
         11    1    4    4    0    0  0.82674774461E+01  0.53606709591E+02 -0.35354707787E+02  0.64745547023E+02  0.00000000000E+00 0. -1.
        -12    1    4    4    0    0 -0.53870418426E+02  0.11991707708E+01 -0.38312970703E+02  0.66116138091E+02  0.00000000000E+00 0.  1.
        -13    1    3    3    0    0 -0.53188153068E+02 -0.18707758569E+02  0.83395153959E+02  0.10066633778E+03  0.00000000000E+00 0.  1.
         13    1    3    3    0    0  0.33071422835E+02  0.39364446361E+01  0.18345999030E+02  0.38023549087E+02  0.00000000000E+00 0. -1.
         21    1    1    2  502  501  0.65719671212E+02 -0.40034566430E+02 -0.23031464787E+03  0.24283055557E+03  0.00000000000E+00 0. -1.
<scales pt_clust_5="13000.00000" pt_clust_6="13000.00000" pt_clust_7="13000.00000" pt_clust_8="13000.00000" pt_clust_9="76.95350"></scales>
<clustering>
<clus scale="   76.954">  2  9  1 -1</clus>
<clus scale="   81.330">  5  6 -1 -1</clus>
<clus scale="   84.572">  2  5  1 -1</clus>
<clus scale="   90.889">  7  8 -1 -1</clus>
<clus scale="   76.954">  2  5  1 -1</clus>
</clustering>
</event>
<event>
 9    1  0.2951046E-005  0.1303612E+03  0.7546771E-02  0.1229328E+00
          1   -1    0    0  502    0  0.00000000000E+00  0.00000000000E+00  0.29492156354E+03  0.29492156354E+03  0.00000000000E+00 0. -1.
         -2   -1    0    0    0  501 -0.00000000000E+00 -0.00000000000E+00 -0.68260575230E+02  0.68260575230E+02  0.00000000000E+00 0.  1.
         23    2    1    2    0    0  0.97503447714E+01  0.93723783099E+02  0.83987309393E+02  0.15492982308E+03  0.89834098189E+02 0.  0.
        -24    2    1    2    0    0 -0.30249352882E+02 -0.90984272052E+02  0.97632514134E+02  0.15869002379E+03  0.80357045259E+02 0.  0.
         13    1    4    4    0    0 -0.42412536195E+02 -0.60980404647E+02  0.10183079619E+03  0.12604342121E+03  0.00000000000E+00 0. -1.
        -14    1    4    4    0    0  0.12163183313E+02 -0.30003867405E+02 -0.41982820571E+01  0.32646602577E+02  0.00000000000E+00 0.  1.
        -13    1    3    3    0    0  0.46746125283E+02  0.49800169711E+02  0.25351018772E+02  0.72855550818E+02  0.00000000000E+00 0. -1.
         13    1    3    3    0    0 -0.36995780511E+02  0.43923613388E+02  0.58636290621E+02  0.82074272257E+02  0.00000000000E+00 0.  1.
         21    1    1    2  502  501  0.20499008111E+02 -0.27395110466E+01  0.45041164786E+02  0.49562291912E+02  0.00000000000E+00 0. -1.
<scales pt_clust_5="13000.00000" pt_clust_6="13000.00000" pt_clust_7="13000.00000" pt_clust_8="13000.00000" pt_clust_9="20.68125"></scales>
<clustering>
<clus scale="   20.681">  1  9  2 -1</clus>
<clus scale="   80.357">  5  6 -1 -1</clus>
<clus scale="   89.834">  7  8 -1 -1</clus>
<clus scale="  124.021">  1  5  2 -1</clus>
<clus scale="   20.681">  1  5  2 -1</clus>
</clustering>
</event>
<event>
 9    1  0.2951046E-005  0.9689632E+02  0.7546771E-02  0.1291872E+00
         -2   -1    0    0    0  501 -0.00000000000E+00  0.00000000000E+00  0.43792691137E+03  0.43792691137E+03  0.00000000000E+00 0.  1.
          1   -1    0    0  502    0  0.00000000000E+00 -0.00000000000E+00 -0.53966201310E+02  0.53966201310E+02  0.00000000000E+00 0. -1.
         23    2    1    2    0    0  0.17285481119E+02  0.30693006693E+02  0.35230979283E+03  0.36535434241E+03  0.90115242185E+02 0.  0.
        -24    2    1    2    0    0 -0.42693018256E+02 -0.16965323050E+02  0.29484070875E+02  0.97578669017E+02  0.80881210536E+02 0.  0.
         11    1    4    4    0    0 -0.54765110029E+02 -0.27100624670E+02 -0.33097968908E+01  0.61193266701E+02  0.00000000000E+00 0. -1.
        -12    1    4    4    0    0  0.12072091773E+02  0.10135301620E+02  0.32793867766E+02  0.36385402317E+02  0.00000000000E+00 0.  1.
        -13    1    3    3    0    0  0.46140286095E+02 -0.15481387942E+01  0.25070997729E+03  0.25492511733E+03  0.00000000000E+00 0.  1.
         13    1    3    3    0    0 -0.28854804976E+02  0.32241145487E+02  0.10159981554E+03  0.11042922508E+03  0.00000000000E+00 0. -1.
         21    1    1    2  502  501  0.25407537137E+02 -0.13727683643E+02  0.21668463538E+01  0.28960101255E+02  0.00000000000E+00 0.  1.
<scales pt_clust_5="13000.00000" pt_clust_6="13000.00000" pt_clust_7="13000.00000" pt_clust_8="13000.00000" pt_clust_9="28.87892"></scales>
<clustering>
<clus scale="   28.879">  2  9  1 -1</clus>
<clus scale="   80.881">  5  6 -1 -1</clus>
<clus scale="   88.374">  2  5  1 -1</clus>
<clus scale="   90.115">  7  8 -1 -1</clus>
<clus scale="   28.879">  2  5  1 -1</clus>
</clustering>
</event>
<event>
 9    1  0.2951046E-005  0.1149943E+03  0.7546771E-02  0.1257006E+00
          1   -1    0    0  502    0  0.00000000000E+00  0.00000000000E+00  0.31669587765E+03  0.31669587765E+03  0.00000000000E+00 0. -1.
         -2   -1    0    0    0  501 -0.00000000000E+00 -0.00000000000E+00 -0.94644193452E+02  0.94644193452E+02  0.00000000000E+00 0.  1.
         23    2    1    2    0    0 -0.28744678053E+02  0.65905696176E+02 -0.39363233981E+02  0.12402370938E+03  0.93073084154E+02 0.  0.
        -24    2    1    2    0    0  0.28061403765E+02 -0.38293430187E+02  0.19417375919E+03  0.21462332520E+03  0.78140218742E+02 0.  0.
         13    1    4    4    0    0  0.47292775694E+02 -0.29722684437E+02  0.18183169312E+03  0.19021779419E+03  0.00000000000E+00 0. -1.
        -14    1    4    4    0    0 -0.19231371929E+02 -0.85707457492E+01  0.12342066066E+02  0.24405531007E+02  0.00000000000E+00 0.  1.
        -11    1    3    3    0    0  0.25678543883E+02  0.45635457962E+02 -0.40082288441E+02  0.65943706948E+02  0.00000000000E+00 0.  1.
         11    1    3    3    0    0 -0.54423221936E+02  0.20270238214E+02  0.71905445913E+00  0.58080002432E+02  0.00000000000E+00 0. -1.
         21    1    1    2  502  501  0.68327428839E+00 -0.27612265989E+02  0.67241158997E+02  0.72693036530E+02  0.00000000000E+00 0. -1.
<scales pt_clust_5="13000.00000" pt_clust_6="13000.00000" pt_clust_7="13000.00000" pt_clust_8="13000.00000" pt_clust_9="27.62072"></scales>
<clustering>
<clus scale="   27.621">  1  9  2 -1</clus>
<clus scale="   78.140">  5  6 -1 -1</clus>
<clus scale="   93.073">  7  8 -1 -1</clus>
<clus scale="  103.281">  1  5  2 -1</clus>
<clus scale="   27.621">  1  5  2 -1</clus>
</clustering>
</event>
<event>
 9    1  0.2951046E-005  0.9972143E+02  0.7546771E-02  0.1284123E+00
         -2   -1    0    0    0  501 -0.00000000000E+00  0.00000000000E+00  0.32028922947E+03  0.32028922947E+03  0.00000000000E+00 0.  1.
          1   -1    0    0  502    0  0.00000000000E+00 -0.00000000000E+00 -0.56738272325E+02  0.56738272325E+02  0.00000000000E+00 0. -1.
         23    2    1    2    0    0 -0.39199408164E+02  0.21868761453E+02  0.23387159437E+03  0.25532273274E+03  0.92081153717E+02 0.  0.
        -24    2    1    2    0    0  0.11078450430E+02 -0.18216794177E+02  0.30460167887E+02  0.93336921317E+02  0.85611771382E+02 0.  0.
         13    1    4    4    0    0 -0.34613413231E+01 -0.39668661616E+02 -0.13720237335E+02  0.42116843550E+02  0.00000000000E+00 0. -1.
        -14    1    4    4    0    0  0.14539791753E+02  0.21451867438E+02  0.44180405222E+02  0.51220077766E+02  0.00000000000E+00 0.  1.
        -11    1    3    3    0    0 -0.10943382638E+02 -0.27886068425E+02  0.15508022741E+03  0.15794703976E+03  0.00000000000E+00 0.  1.
         11    1    3    3    0    0 -0.28256025526E+02  0.49754829878E+02  0.78791366963E+02  0.97375692976E+02  0.00000000000E+00 0. -1.
         21    1    1    2  502  501  0.28120957734E+02 -0.36519672754E+01 -0.78080511438E+00  0.28367847742E+02  0.00000000000E+00 0. -1.
<scales pt_clust_5="13000.00000" pt_clust_6="13000.00000" pt_clust_7="13000.00000" pt_clust_8="13000.00000" pt_clust_9="28.35710"></scales>
<clustering>
<clus scale="   28.357">  2  9  1 -1</clus>
<clus scale="   85.612">  5  6 -1 -1</clus>
<clus scale="   92.081">  7  8 -1 -1</clus>
<clus scale="   93.781">  2  5  1 -1</clus>
<clus scale="   28.357">  2  5  1 -1</clus>
</clustering>
</event>
<event>
 9    1  0.2951046E-005  0.9192672E+02  0.7546771E-02  0.1307151E+00
          1   -1    0    0  502    0  0.00000000000E+00  0.00000000000E+00  0.59430816692E+03  0.59430816692E+03  0.00000000000E+00 0. -1.
         -2   -1    0    0    0  501 -0.00000000000E+00 -0.00000000000E+00 -0.27672441887E+02  0.27672441887E+02  0.00000000000E+00 0.  1.
         23    2    1    2    0    0  0.87286835433E+01 -0.30075950213E+01  0.75462162235E+02  0.11860613458E+03  0.91036485475E+02 0.  0.
        -24    2    1    2    0    0 -0.29267210492E+02 -0.13278981764E+02  0.39282122176E+03  0.40158907910E+03  0.77021913905E+02 0.  0.
         13    1    4    4    0    0 -0.15489573553E+02 -0.44920802951E+02  0.18992578141E+03  0.19577948787E+03  0.00000000000E+00 0. -1.
        -14    1    4    4    0    0 -0.13777636939E+02  0.31641821188E+02  0.20289544035E+03  0.20580959123E+03  0.00000000000E+00 0.  1.
        -11    1    3    3    0    0 -0.15661826870E+02 -0.36041647697E+02  0.87350946171E+01  0.40256615203E+02  0.00000000000E+00 0.  1.
         11    1    3    3    0    0  0.24390510414E+02  0.33034052676E+02  0.66727067618E+02  0.78349519382E+02  0.00000000000E+00 0. -1.
         21    1    1    2  502  501  0.20538526949E+02  0.16286576785E+02  0.98352341042E+02  0.10178539513E+03  0.00000000000E+00 0.  1.
<scales pt_clust_5="13000.00000" pt_clust_6="13000.00000" pt_clust_7="13000.00000" pt_clust_8="13000.00000" pt_clust_9="26.21228"></scales>
<clustering>
<clus scale="   26.212">  1  9  2 -1</clus>
<clus scale="   77.022">  5  6 -1 -1</clus>
<clus scale="   78.072">  1  5  2 -1</clus>
<clus scale="   91.036">  7  8 -1 -1</clus>
<clus scale="   26.212">  1  5  2 -1</clus>
</clustering>
</event>
<event>
 9    1  0.2951046E-005  0.1855053E+03  0.7546771E-02  0.1163696E+00
          3   -1    0    0  502    0  0.00000000000E+00  0.00000000000E+00  0.86956564710E+02  0.86956564710E+02  0.00000000000E+00 0. -1.
         -4   -1    0    0    0  501 -0.00000000000E+00 -0.00000000000E+00 -0.58452844882E+03  0.58452844882E+03  0.00000000000E+00 0.  1.
        -24    2    1    2    0    0 -0.10888598038E+03 -0.12623562886E+03 -0.40812006377E+03  0.44800074995E+03  0.79693756292E+02 0.  0.
         23    2    1    2    0    0  0.81633281222E+02  0.12539104795E+03 -0.63256007470E+02  0.18567363623E+03  0.89924797487E+02 0.  0.
         11    1    3    3    0    0 -0.80363349383E+02 -0.85190430613E+02 -0.18201742856E+03  0.21643941806E+03  0.00000000000E+00 0. -1.
        -12    1    3    3    0    0 -0.28522630992E+02 -0.41045198247E+02 -0.22610263521E+03  0.23156133189E+03  0.00000000000E+00 0.  1.
        -11    1    4    4    0    0  0.39222790522E+02  0.87750423126E+02  0.58324120736E+01  0.96294242225E+02  0.00000000000E+00 0.  1.
         11    1    4    4    0    0  0.42410490700E+02  0.37640624820E+02 -0.69088419544E+02  0.89379394008E+02  0.00000000000E+00 0. -1.
         21    1    1    2  502  501  0.27252699154E+02  0.84458091429E+00 -0.26195812876E+02  0.37810627346E+02  0.00000000000E+00 0.  1.
<scales pt_clust_5="13000.00000" pt_clust_6="13000.00000" pt_clust_7="13000.00000" pt_clust_8="13000.00000" pt_clust_9="27.26578"></scales>
<clustering>
<clus scale="   27.266">  1  9  2 -1</clus>
<clus scale="   79.694">  5  6 -1 -1</clus>
<clus scale="   89.925">  7  8 -1 -1</clus>
<clus scale="  180.767">  2  5  1 -1</clus>
<clus scale="   27.266">  1  5  2 -1</clus>
</clustering>
</event>
<event>
 9    1  0.2951046E-005  0.1447791E+03  0.7546771E-02  0.1211456E+00
         -2   -1    0    0    0  501 -0.00000000000E+00  0.00000000000E+00  0.43133722345E+02  0.43133722345E+02  0.00000000000E+00 0.  1.
          1   -1    0    0  502    0  0.00000000000E+00 -0.00000000000E+00 -0.68589159300E+03  0.68589159300E+03  0.00000000000E+00 0. -1.
         23    2    1    2    0    0  0.97214173577E+02  0.32651473621E+01 -0.24716084476E+03  0.28416435019E+03  0.10099325722E+03 0.  0.
        -24    2    1    2    0    0 -0.97781426748E+02 -0.61114960286E+02 -0.31974908822E+03  0.34946792410E+03  0.81191777746E+02 0.  0.
         13    1    4    4    0    0 -0.53670032167E+02  0.11234500113E+02 -0.10184728683E+03  0.11567003147E+03  0.00000000000E+00 0. -1.
        -14    1    4    4    0    0 -0.44111394581E+02 -0.72349460399E+02 -0.21790180139E+03  0.23379789264E+03  0.00000000000E+00 0.  1.
        -13    1    3    3    0    0  0.39443408702E+02  0.12000362747E+02 -0.21200286715E+03  0.21597455145E+03  0.00000000000E+00 0. -1.
         13    1    3    3    0    0  0.57770764876E+02 -0.87352153851E+01 -0.35157977617E+02  0.68189798741E+02  0.00000000000E+00 0.  1.
         21    1    1    2  502  501  0.56725317088E+00  0.57849812924E+02 -0.75847937676E+02  0.95393041052E+02  0.00000000000E+00 0.  1.
<scales pt_clust_5="13000.00000" pt_clust_6="13000.00000" pt_clust_7="13000.00000" pt_clust_8="13000.00000" pt_clust_9="57.85259"></scales>
<clustering>
<clus scale="   57.853">  1  9  2 -1</clus>
<clus scale="   81.192">  5  6 -1 -1</clus>
<clus scale="  100.993">  7  8 -1 -1</clus>
<clus scale="  131.732">  2  5  1 -1</clus>
<clus scale="  131.732">  2  5  1 -1</clus>
</clustering>
</event>
<event>
 9    1  0.2951046E-005  0.9985017E+02  0.7546771E-02  0.1289531E+00
          1   -1    0    0  502    0  0.00000000000E+00  0.00000000000E+00  0.49919801548E+03  0.49919801548E+03  0.00000000000E+00 0. -1.
         -2   -1    0    0    0  501 -0.00000000000E+00 -0.00000000000E+00 -0.33998982133E+02  0.33998982133E+02  0.00000000000E+00 0.  1.
         23    2    1    2    0    0 -0.19286131093E+02 -0.57542194832E+01  0.12824724677E+03  0.15850414908E+03  0.90945824949E+02 0.  0.
        -24    2    1    2    0    0  0.49122157502E+02  0.54915205213E+02  0.18633615625E+03  0.21347231917E+03  0.73624736372E+02 0.  0.
         13    1    4    4    0    0  0.21576652381E+02  0.65893059870E+02  0.15761100642E+03  0.17218791076E+03  0.00000000000E+00 0. -1.
        -14    1    4    4    0    0  0.27545505121E+02 -0.10977854657E+02  0.28725149825E+02  0.41284408409E+02  0.00000000000E+00 0.  1.
        -13    1    3    3    0    0 -0.77097362700E+01  0.42474428351E+02  0.52588637696E+02  0.68037356737E+02  0.00000000000E+00 0. -1.
         13    1    3    3    0    0 -0.11576394823E+02 -0.48228647834E+02  0.75658609074E+02  0.90466792339E+02  0.00000000000E+00 0.  1.
         21    1    1    2  502  501 -0.29836026409E+02 -0.49160985730E+02  0.15061563033E+03  0.16122052937E+03  0.00000000000E+00 0.  1.
<scales pt_clust_5="13000.00000" pt_clust_6="13000.00000" pt_clust_7="13000.00000" pt_clust_8="13000.00000" pt_clust_9="57.50644"></scales>
<clustering>
<clus scale="   57.506">  1  9  2 -1</clus>
<clus scale="   73.625">  5  6 -1 -1</clus>
<clus scale="   84.377">  1  5  2 -1</clus>
<clus scale="   90.946">  7  8 -1 -1</clus>
<clus scale="   57.506">  1  5  2 -1</clus>
</clustering>
</event>
<event>
 9    1  0.2951046E-005  0.9506341E+02  0.7546771E-02  0.1296898E+00
          1   -1    0    0  502    0  0.00000000000E+00  0.00000000000E+00  0.58249321430E+03  0.58249321430E+03  0.00000000000E+00 0. -1.
         -2   -1    0    0    0  501 -0.00000000000E+00 -0.00000000000E+00 -0.36364392759E+02  0.36364392759E+02  0.00000000000E+00 0.  1.
         23    2    1    2    0    0 -0.14627740398E+02 -0.14512867159E+02  0.50027014276E+02  0.10629082005E+03  0.91490120604E+02 0.  0.
        -24    2    1    2    0    0  0.43742280990E+02  0.21548758989E+02  0.31276042136E+03  0.32679481917E+03  0.81228298685E+02 0.  0.
         11    1    4    4    0    0 -0.10158531311E+02  0.37123350518E+02  0.13627147205E+03  0.14160244704E+03  0.00000000000E+00 0. -1.
        -12    1    4    4    0    0  0.53900812301E+02 -0.15574591529E+02  0.17648894931E+03  0.18519237214E+03  0.00000000000E+00 0.  1.
        -11    1    3    3    0    0  0.29869309594E+02 -0.29764793763E+02  0.74020088254E+01  0.42812478765E+02  0.00000000000E+00 0.  1.
         11    1    3    3    0    0 -0.44497049992E+02  0.15251926604E+02  0.42625005451E+02  0.63478341289E+02  0.00000000000E+00 0. -1.
         21    1    1    2  502  501 -0.29114540592E+02 -0.70358918300E+01  0.18334138590E+03  0.18577196783E+03  0.00000000000E+00 0. -1.
<scales pt_clust_5="13000.00000" pt_clust_6="13000.00000" pt_clust_7="13000.00000" pt_clust_8="13000.00000" pt_clust_9="29.95263"></scales>
<clustering>
<clus scale="   29.953">  1  9  2 -1</clus>
<clus scale="   81.228">  5  6 -1 -1</clus>
<clus scale="   85.233">  1  5  2 -1</clus>
<clus scale="   91.490">  7  8 -1 -1</clus>
<clus scale="   29.953">  1  5  2 -1</clus>
</clustering>
</event>
<event>
 9    1  0.2951046E-005  0.1008244E+03  0.7546771E-02  0.1282141E+00
          1   -1    0    0  502    0  0.00000000000E+00  0.00000000000E+00  0.20897562737E+03  0.20897562737E+03  0.00000000000E+00 0. -1.
         -2   -1    0    0    0  501 -0.00000000000E+00 -0.00000000000E+00 -0.23197566827E+03  0.23197566827E+03  0.00000000000E+00 0.  1.
        -24    2    1    2    0    0 -0.19453467346E+02  0.38890934893E+02 -0.20239849815E+03  0.22359243771E+03  0.84483631191E+02 0.  0.
         23    2    1    2    0    0  0.14596238632E+02 -0.10117770864E+02  0.13896835579E+03  0.16749824479E+03  0.91804349726E+02 0.  0.
         13    1    3    3    0    0 -0.24826506920E+02  0.45405903951E+02 -0.53423336120E+02  0.74378117761E+02  0.00000000000E+00 0. -1.
        -14    1    3    3    0    0  0.53730395740E+01 -0.65149690577E+01 -0.14897516203E+03  0.14921431995E+03  0.00000000000E+00 0.  1.
        -11    1    4    4    0    0 -0.31998189192E+02  0.20076348279E+02  0.50827765317E+02  0.63327763255E+02  0.00000000000E+00 0.  1.
         11    1    4    4    0    0  0.46594427824E+02 -0.30194119143E+02  0.88140590472E+02  0.10417048154E+03  0.00000000000E+00 0. -1.
         21    1    1    2  502  501  0.48572287145E+01 -0.28773164029E+02  0.40430101458E+02  0.49860613142E+02  0.00000000000E+00 0. -1.
<scales pt_clust_5="13000.00000" pt_clust_6="13000.00000" pt_clust_7="13000.00000" pt_clust_8="13000.00000" pt_clust_9="29.18026"></scales>
<clustering>
<clus scale="   29.180">  1  9  2 -1</clus>
<clus scale="   84.484">  5  6 -1 -1</clus>
<clus scale="   91.804">  7  8 -1 -1</clus>
<clus scale="   94.207">  2  5  1 -1</clus>
<clus scale="   29.180">  1  5  2 -1</clus>
</clustering>
</event>
<event>
 9    1  0.2951046E-005  0.1070334E+03  0.7546771E-02  0.1270202E+00
         -4   -1    0    0    0  501 -0.00000000000E+00  0.00000000000E+00  0.18540635330E+03  0.18540635330E+03  0.00000000000E+00 0.  1.
          3   -1    0    0  502    0  0.00000000000E+00 -0.00000000000E+00 -0.12790619083E+03  0.12790619083E+03  0.00000000000E+00 0. -1.
        -24    2    1    2    0    0  0.30107471699E+02 -0.69339325136E+02  0.11674288999E+03  0.16097996510E+03  0.81063215681E+02 0.  0.
         23    2    1    2    0    0 -0.33321343541E+02  0.41530605147E+02 -0.65125011855E+02  0.12372741955E+03  0.90730943350E+02 0.  0.
         13    1    3    3    0    0 -0.24891252701E+02 -0.21812643397E+02  0.60918468442E+02  0.69328390074E+02  0.00000000000E+00 0. -1.
        -14    1    3    3    0    0  0.54998724400E+02 -0.47526681738E+02  0.55824421549E+02  0.91651575021E+02  0.00000000000E+00 0.  1.
        -11    1    4    4    0    0  0.10383425010E+00  0.30055833731E+02  0.16851545279E+02  0.34457778528E+02  0.00000000000E+00 0.  1.
         11    1    4    4    0    0 -0.33425177791E+02  0.11474771416E+02 -0.81976557134E+02  0.89269641026E+02  0.00000000000E+00 0. -1.
         21    1    1    2  502  501  0.32138718422E+01  0.27808719989E+02  0.58822843411E+01  0.28605159477E+02  0.00000000000E+00 0.  1.
<scales pt_clust_5="13000.00000" pt_clust_6="13000.00000" pt_clust_7="13000.00000" pt_clust_8="13000.00000" pt_clust_9="27.99382"></scales>
<clustering>
<clus scale="   27.994">  1  9  2 -1</clus>
<clus scale="   81.063">  5  6 -1 -1</clus>
<clus scale="   90.731">  7  8 -1 -1</clus>
<clus scale="   98.971">  1  5  2 -1</clus>
<clus scale="  107.033">  2  5  1 -1</clus>
</clustering>
</event>
<event>
 9    1  0.3500640E-005  0.9109422E+02  0.7546771E-02  0.1306691E+00
          1   -1    0    0  502    0  0.00000000000E+00  0.00000000000E+00  0.44325994540E+03  0.44325994540E+03  0.00000000000E+00 0. -1.
         -2   -1    0    0    0  501 -0.00000000000E+00 -0.00000000000E+00 -0.29120158586E+03  0.29120158586E+03  0.00000000000E+00 0.  1.
         23    2    1    2    0    0 -0.15938588930E+01  0.13457370672E+01 -0.27716415690E+03  0.29174656262E+03  0.91058967340E+02 0.  0.
        -24    2    1    2    0    0  0.23044931231E+02 -0.10388709463E+02  0.35244198633E+03  0.36248296968E+03  0.80867517799E+02 0.  0.
         13    1    4    4    0    0 -0.22096170164E+02  0.20398828638E+02  0.12205769220E+03  0.12570772916E+03  0.00000000000E+00 0. -1.
        -14    1    4    4    0    0  0.45141101395E+02 -0.30787538101E+02  0.23038429414E+03  0.23677524052E+03  0.00000000000E+00 0.  1.
        -13    1    3    3    0    0 -0.86878041186E+01 -0.40709200326E+02 -0.19247425321E+03  0.19692398300E+03  0.00000000000E+00 0.  1.
         13    1    3    3    0    0  0.70939452256E+01  0.42054937393E+02 -0.84689903695E+02  0.94822579621E+02  0.00000000000E+00 0. -1.
         21    1    1    2  502  501 -0.21451072338E+02  0.90429723958E+01  0.76780530110E+02  0.80231998966E+02  0.00000000000E+00 0. -1.
<scales pt_clust_5="13000.00000" pt_clust_6="13000.00000" pt_clust_7="13000.00000" pt_clust_8="13000.00000" pt_clust_9="23.27926"></scales>
<clustering>
<clus scale="   23.279">  1  9  2 -1</clus>
<clus scale="   80.868">  5  6 -1 -1</clus>
<clus scale="   80.907">  1  5  2 -1</clus>
<clus scale="   91.059">  7  8 -1 -1</clus>
<clus scale="   23.279">  1  5  2 -1</clus>
</clustering>
</event>
<event>
 9    1  0.2951046E-005  0.1516227E+03  0.7546771E-02  0.1199587E+00
          1   -1    0    0  502    0  0.00000000000E+00  0.00000000000E+00  0.41544839850E+03  0.41544839850E+03  0.00000000000E+00 0. -1.
         -2   -1    0    0    0  501 -0.00000000000E+00 -0.00000000000E+00 -0.21081687324E+03  0.21081687324E+03  0.00000000000E+00 0.  1.
         23    2    1    2    0    0 -0.72200425493E+02  0.99155752459E+02 -0.16045924189E+03  0.22171350159E+03  0.91460066648E+02 0.  0.
        -24    2    1    2    0    0  0.35943448834E+02 -0.10066205779E+03  0.30618696957E+03  0.33536727275E+03  0.85416426412E+02 0.  0.
         11    1    4    4    0    0  0.32631061584E+02 -0.41115774154E+02  0.24250057774E+03  0.24811655178E+03  0.00000000000E+00 0. -1.
        -12    1    4    4    0    0  0.33123872498E+01 -0.59546283636E+02  0.63686391834E+02  0.87250720965E+02  0.00000000000E+00 0.  1.
        -11    1    3    3    0    0 -0.44108846516E+02 -0.28947115396E+01 -0.28694383791E+02  0.52700449306E+02  0.00000000000E+00 0. -1.
         11    1    3    3    0    0 -0.28091578977E+02  0.10205046400E+03 -0.13176485810E+03  0.16901305228E+03  0.00000000000E+00 0.  1.
         21    1    1    2  502  501  0.36256976659E+02  0.15063053310E+01  0.58903797574E+02  0.69184497403E+02  0.00000000000E+00 0.  1.
<scales pt_clust_5="13000.00000" pt_clust_6="13000.00000" pt_clust_7="13000.00000" pt_clust_8="13000.00000" pt_clust_9="36.28825"></scales>
<clustering>
<clus scale="   36.288">  1  9  2 -1</clus>
<clus scale="   85.416">  5  6 -1 -1</clus>
<clus scale="   91.460">  7  8 -1 -1</clus>
<clus scale="  148.056">  1  5  2 -1</clus>
<clus scale="   36.288">  1  5  2 -1</clus>
</clustering>
</event>
<event>
 9    1  0.2951046E-005  0.1008565E+03  0.7546771E-02  0.1288418E+00
          1   -1    0    0  502    0  0.00000000000E+00  0.00000000000E+00  0.31921765922E+03  0.31921765922E+03  0.00000000000E+00 0. -1.
         -2   -1    0    0    0  501 -0.00000000000E+00 -0.00000000000E+00 -0.64973776792E+02  0.64973776792E+02  0.00000000000E+00 0.  1.
        -24    2    1    2    0    0  0.10934740998E+01 -0.10774109856E+02 -0.15730672646E+02  0.85317671229E+02  0.83152713926E+02 0.  0.
         23    2    1    2    0    0  0.10630415272E+02 -0.70256224093E+01  0.24968367446E+03  0.26944588877E+03  0.10048275764E+03 0.  0.
         11    1    3    3    0    0  0.36384599012E+02 -0.22470094192E+02 -0.21214325207E+02  0.47736692096E+02  0.00000000000E+00 0. -1.
        -12    1    3    3    0    0 -0.35291124912E+02  0.11695984336E+02  0.54836525616E+01  0.37580979133E+02  0.00000000000E+00 0.  1.
        -11    1    4    4    0    0 -0.25833553563E+02  0.15824682537E+02  0.21275521063E+02  0.37019466009E+02  0.00000000000E+00 0.  1.
         11    1    4    4    0    0  0.36463968835E+02 -0.22850304946E+02  0.22840815339E+03  0.23242642276E+03  0.00000000000E+00 0. -1.
         21    1    1    2  502  501 -0.11723889372E+02  0.17799732265E+02  0.20290880619E+02  0.29427876019E+02  0.00000000000E+00 0. -1.
<scales pt_clust_5="13000.00000" pt_clust_6="13000.00000" pt_clust_7="13000.00000" pt_clust_8="13000.00000" pt_clust_9="21.31385"></scales>
<clustering>
<clus scale="   21.314">  1  9  2 -1</clus>
<clus scale="   83.153">  5  6 -1 -1</clus>
<clus scale="   83.604">  2  5  1 -1</clus>
<clus scale="  100.483">  7  8 -1 -1</clus>
<clus scale="   21.314">  1  5  2 -1</clus>
</clustering>
</event>
<event>
 9    1  0.2951046E-005  0.1235476E+03  0.7546771E-02  0.1239272E+00
          1   -1    0    0  502    0  0.00000000000E+00  0.00000000000E+00  0.90112138971E+03  0.90112138971E+03  0.00000000000E+00 0. -1.
         -2   -1    0    0    0  501 -0.00000000000E+00 -0.00000000000E+00 -0.22210412726E+02  0.22210412726E+02  0.00000000000E+00 0.  1.
         23    2    1    2    0    0 -0.62312914475E+02  0.33087531952E+02  0.29104086373E+03  0.31334469478E+03  0.92208618391E+02 0.  0.
        -24    2    1    2    0    0  0.90462045313E+02 -0.44413724375E+02  0.47021859342E+03  0.48848592939E+03  0.85773055528E+02 0.  0.
         13    1    4    4    0    0 -0.37899716073E+01 -0.32604083356E+02  0.18433711134E+03  0.18723664373E+03  0.00000000000E+00 0. -1.
        -14    1    4    4    0    0  0.94252016920E+02 -0.11809641019E+02  0.28588148208E+03  0.30124928566E+03  0.00000000000E+00 0.  1.
        -13    1    3    3    0    0 -0.36735713566E+02  0.64295547899E+02  0.21272810584E+03  0.22524803472E+03  0.00000000000E+00 0.  1.
         13    1    3    3    0    0 -0.25577200908E+02 -0.31208015947E+02  0.78312757893E+02  0.88096660064E+02  0.00000000000E+00 0. -1.
         21    1    1    2  502  501 -0.28149130838E+02  0.11326192423E+02  0.11765151983E+03  0.12150117826E+03  0.00000000000E+00 0. -1.
<scales pt_clust_5="13000.00000" pt_clust_6="13000.00000" pt_clust_7="13000.00000" pt_clust_8="13000.00000" pt_clust_9="30.34232"></scales>
<clustering>
<clus scale="   30.342">  1  9  2 -1</clus>
<clus scale="   85.773">  5  6 -1 -1</clus>
<clus scale="   92.209">  7  8 -1 -1</clus>
<clus scale="  118.822">  1  5  2 -1</clus>
<clus scale="   30.342">  1  5  2 -1</clus>
</clustering>
</event>
<event>
 9    1  0.2951046E-005  0.2944720E+03  0.7546771E-02  0.1088265E+00
          1   -1    0    0  502    0  0.00000000000E+00  0.00000000000E+00  0.69031987134E+03  0.69031987134E+03  0.00000000000E+00 0. -1.
         -2   -1    0    0    0  501 -0.00000000000E+00 -0.00000000000E+00 -0.17683936691E+03  0.17683936691E+03  0.00000000000E+00 0.  1.
        -24    2    1    2    0    0  0.33989513075E+01 -0.27292254226E+03  0.48059039893E+02  0.29000097528E+03  0.85396881713E+02 0.  0.
         23    2    1    2    0    0 -0.12677229960E+01  0.29915665999E+03  0.40890341949E+03  0.51481196811E+03  0.91285495567E+02 0.  0.
         11    1    3    3    0    0 -0.27183064139E+02 -0.93708596185E+02  0.46746323362E+02  0.10819167585E+03  0.00000000000E+00 0. -1.
        -12    1    3    3    0    0  0.30582015446E+02 -0.17921394607E+03  0.13127165302E+01  0.18180929943E+03  0.00000000000E+00 0.  1.
        -11    1    4    4    0    0 -0.45847976070E+02  0.17234520863E+03  0.23591293227E+03  0.29573606384E+03  0.00000000000E+00 0.  1.
         11    1    4    4    0    0  0.44580253074E+02  0.12681145136E+03  0.17299048722E+03  0.21907590426E+03  0.00000000000E+00 0. -1.
         21    1    1    2  502  501 -0.21312283115E+01 -0.26234117731E+02  0.56518045052E+02  0.62346294868E+02  0.00000000000E+00 0. -1.
<scales pt_clust_5="13000.00000" pt_clust_6="13000.00000" pt_clust_7="13000.00000" pt_clust_8="13000.00000" pt_clust_9="26.32054"></scales>
<clustering>
<clus scale="   26.321">  1  9  2 -1</clus>
<clus scale="   85.397">  5  6 -1 -1</clus>
<clus scale="   91.285">  7  8 -1 -1</clus>
<clus scale="  292.700">  2  5  1 -1</clus>
<clus scale="   26.321">  1  5  2 -1</clus>
</clustering>
</event>
<event>
 9    1  0.2951046E-005  0.1698764E+03  0.7546771E-02  0.1204447E+00
         -2   -1    0    0    0  501 -0.00000000000E+00  0.00000000000E+00  0.94208730426E+02  0.94208730426E+02  0.00000000000E+00 0.  1.
          1   -1    0    0  502    0  0.00000000000E+00 -0.00000000000E+00 -0.58970494651E+03  0.58970494651E+03  0.00000000000E+00 0. -1.
         23    2    1    2    0    0  0.21972950732E+02  0.33448373794E+02 -0.63163830492E+02  0.11388451068E+03  0.85897660133E+02 0.  0.
        -24    2    1    2    0    0 -0.37602984256E+02 -0.17409413203E+03 -0.12583459954E+03  0.23244003712E+03  0.80444224065E+02 0.  0.
         13    1    4    4    0    0 -0.82711834892E+01 -0.11682143458E+03 -0.12024214192E+03  0.16785062630E+03  0.00000000000E+00 0. -1.
        -14    1    4    4    0    0 -0.29331800767E+02 -0.57272697445E+02 -0.55924576190E+01  0.64589410828E+02  0.00000000000E+00 0.  1.
        -11    1    3    3    0    0  0.19953807236E+02 -0.11037219155E+02  0.12562992488E+02  0.26034657865E+02  0.00000000000E+00 0.  1.
         11    1    3    3    0    0  0.20191434963E+01  0.44485592949E+02 -0.75726822979E+02  0.87849852811E+02  0.00000000000E+00 0. -1.
         21    1    1    2  502  501  0.15630033523E+02  0.14064575823E+03 -0.30649778605E+03  0.33758912914E+03  0.00000000000E+00 0. -1.
<scales pt_clust_5="13000.00000" pt_clust_6="13000.00000" pt_clust_7="13000.00000" pt_clust_8="13000.00000" pt_clust_9="149.62196"></scales>
<clustering>
<clus scale="   80.444">  5  6 -1 -1</clus>
<clus scale="   85.898">  7  8 -1 -1</clus>
<clus scale="   94.763">  1  7  2 -1</clus>
<clus scale="  149.622">  2  9  1 -1</clus>
<clus scale="  149.622">  2  5  1 -1</clus>
</clustering>
</event>
<event>
 9    1  0.2951046E-005  0.9857665E+02  0.7546771E-02  0.1287072E+00
          1   -1    0    0  502    0  0.00000000000E+00  0.00000000000E+00  0.72586251606E+03  0.72586251606E+03  0.00000000000E+00 0. -1.
         -2   -1    0    0    0  501 -0.00000000000E+00 -0.00000000000E+00 -0.31151143634E+02  0.31151143634E+02  0.00000000000E+00 0.  1.
         23    2    1    2    0    0 -0.26605312405E+02  0.32680442402E+02  0.69939494761E+02  0.12036267113E+03  0.88429552242E+02 0.  0.
        -24    2    1    2    0    0  0.48688382728E+02 -0.26002017250E+02  0.53972976486E+03  0.54853501778E+03  0.80844190514E+02 0.  0.
         13    1    4    4    0    0  0.96406071021E+01 -0.50423503467E+02  0.25677866436E+03  0.26186017925E+03  0.00000000000E+00 0. -1.
        -14    1    4    4    0    0  0.39047775626E+02  0.24421486217E+02  0.28295110050E+03  0.28667483853E+03  0.00000000000E+00 0.  1.
        -13    1    3    3    0    0  0.25453606303E+02  0.27572368759E+02  0.64088663782E+01  0.38068296009E+02  0.00000000000E+00 0.  1.
         13    1    3    3    0    0 -0.52058918708E+02  0.51080736436E+01  0.63530628383E+02  0.82294375119E+02  0.00000000000E+00 0. -1.
         21    1    1    2  502  501 -0.22083070323E+02 -0.66784251520E+01  0.85042112802E+02  0.88115970784E+02  0.00000000000E+00 0. -1.
<scales pt_clust_5="13000.00000" pt_clust_6="13000.00000" pt_clust_7="13000.00000" pt_clust_8="13000.00000" pt_clust_9="23.07083"></scales>
<clustering>
<clus scale="   23.071">  1  9  2 -1</clus>
<clus scale="   80.844">  5  6 -1 -1</clus>
<clus scale="   88.430">  7  8 -1 -1</clus>
<clus scale="   91.833">  1  5  2 -1</clus>
<clus scale="   23.071">  1  5  2 -1</clus>
</clustering>
</event>
<event>
 9    1  0.2951046E-005  0.1004412E+03  0.7546771E-02  0.1285650E+00
         -2   -1    0    0    0  501 -0.00000000000E+00  0.00000000000E+00  0.15715463036E+03  0.15715463036E+03  0.00000000000E+00 0.  1.
          1   -1    0    0  502    0  0.00000000000E+00 -0.00000000000E+00 -0.14188158530E+03  0.14188158530E+03  0.00000000000E+00 0. -1.
         23    2    1    2    0    0 -0.33400988884E+02 -0.13901839738E+02  0.11351315833E+03  0.15216301824E+03  0.94654423028E+02 0.  0.
        -24    2    1    2    0    0  0.12990813087E+02  0.17993783405E+02 -0.90874489607E+02  0.12479217183E+03  0.82597674441E+02 0.  0.
         13    1    4    4    0    0 -0.71571345854E+01  0.47710335899E+02 -0.62935597155E+02  0.79299370214E+02  0.00000000000E+00 0. -1.
        -14    1    4    4    0    0  0.20147947672E+02 -0.29716552494E+02 -0.27938892452E+02  0.45492801618E+02  0.00000000000E+00 0.  1.
        -11    1    3    3    0    0 -0.19238817656E+02  0.36162894225E+02  0.21020450046E+02  0.46040703118E+02  0.00000000000E+00 0. -1.
         11    1    3    3    0    0 -0.14162171228E+02 -0.50064733962E+02  0.92492708284E+02  0.10612231512E+03  0.00000000000E+00 0.  1.
         21    1    1    2  502  501  0.20410175797E+02 -0.40919436671E+01 -0.73656236701E+01  0.22081025589E+02  0.00000000000E+00 0. -1.
<scales pt_clust_5="13000.00000" pt_clust_6="13000.00000" pt_clust_7="13000.00000" pt_clust_8="13000.00000" pt_clust_9="20.81632"></scales>
<clustering>
<clus scale="   20.816">  2  9  1 -1</clus>
<clus scale="   82.598">  5  6 -1 -1</clus>
<clus scale="   89.170">  2  5  1 -1</clus>
<clus scale="   94.654">  7  8 -1 -1</clus>
<clus scale="   20.816">  2  5  1 -1</clus>
</clustering>
</event>
<event>
 9    1  0.2951046E-005  0.1854382E+03  0.7546771E-02  0.1197761E+00
         -2   -1    0    0    0  501 -0.00000000000E+00  0.00000000000E+00  0.31265571025E+03  0.31265571025E+03  0.00000000000E+00 0.  1.
          1   -1    0    0  502    0  0.00000000000E+00 -0.00000000000E+00 -0.36947981993E+03  0.36947981993E+03  0.00000000000E+00 0. -1.
         23    2    1    2    0    0 -0.53813777408E+02  0.17033895744E+03 -0.13188291698E+03  0.24144623277E+03  0.94825610821E+02 0.  0.
        -24    2    1    2    0    0  0.11216858849E+02 -0.19440318073E+02 -0.14666687235E+03  0.16912498855E+03  0.81168629519E+02 0.  0.
         13    1    4    4    0    0 -0.27509565337E+02 -0.14146009367E+02 -0.20668290485E+02  0.37203010599E+02  0.00000000000E+00 0. -1.
        -14    1    4    4    0    0  0.38726424185E+02 -0.52943087059E+01 -0.12599858186E+03  0.13192197795E+03  0.00000000000E+00 0.  1.
        -11    1    3    3    0    0  0.70577602869E+01  0.12758960168E+03 -0.86570349067E+02  0.15434812527E+03  0.00000000000E+00 0. -1.
         11    1    3    3    0    0 -0.60871537695E+02  0.42749355761E+02 -0.45312567911E+02  0.87098107499E+02  0.00000000000E+00 0.  1.
         21    1    1    2  502  501  0.42596918559E+02 -0.15089863937E+03  0.22172567964E+03  0.27156430886E+03  0.00000000000E+00 0.  1.
<scales pt_clust_5="13000.00000" pt_clust_6="13000.00000" pt_clust_7="13000.00000" pt_clust_8="13000.00000" pt_clust_9="159.35941"></scales>
<clustering>
<clus scale="   81.169">  5  6 -1 -1</clus>
<clus scale="   84.215">  2  5  1 -1</clus>
<clus scale="   94.826">  7  8 -1 -1</clus>
<clus scale="  159.359">  1  9  2 -1</clus>
<clus scale="   84.215">  2  5  1 -1</clus>
</clustering>
</event>
<event>
 9    1  0.2951046E-005  0.1339379E+03  0.7546771E-02  0.1224650E+00
         -2   -1    0    0    0  501 -0.00000000000E+00  0.00000000000E+00  0.86582262772E+02  0.86582262772E+02  0.00000000000E+00 0.  1.
          1   -1    0    0  502    0  0.00000000000E+00 -0.00000000000E+00 -0.33974887860E+03  0.33974887860E+03  0.00000000000E+00 0. -1.
         23    2    1    2    0    0  0.72961257390E+02 -0.61968683500E+02 -0.42185130133E+01  0.13277286293E+03  0.91909599408E+02 0.  0.
        -24    2    1    2    0    0 -0.64134345392E+02  0.82357388611E+02 -0.19457356894E+03  0.23481984464E+03  0.79909523775E+02 0.  0.
         13    1    4    4    0    0 -0.54486590515E+02  0.95427925642E+01 -0.10755429231E+03  0.12094535638E+03  0.00000000000E+00 0. -1.
        -14    1    4    4    0    0 -0.96477548775E+01  0.72814596046E+02 -0.87019276633E+02  0.11387448826E+03  0.00000000000E+00 0.  1.
        -13    1    3    3    0    0  0.30138016626E+02  0.80573102710E+00  0.35869710788E+02  0.46857074179E+02  0.00000000000E+00 0.  1.
         13    1    3    3    0    0  0.42823240765E+02 -0.62774414527E+02 -0.40088223801E+02  0.85915788749E+02  0.00000000000E+00 0. -1.
         21    1    1    2  502  501 -0.88269119981E+01 -0.20388705111E+02 -0.54374533879E+02  0.58738433807E+02  0.00000000000E+00 0. -1.
<scales pt_clust_5="13000.00000" pt_clust_6="13000.00000" pt_clust_7="13000.00000" pt_clust_8="13000.00000" pt_clust_9="22.21742"></scales>
<clustering>
<clus scale="   22.217">  2  9  1 -1</clus>
<clus scale="   79.910">  5  6 -1 -1</clus>
<clus scale="   91.910">  7  8 -1 -1</clus>
<clus scale="  126.006">  2  5  1 -1</clus>
<clus scale="   22.217">  2  5  1 -1</clus>
</clustering>
</event>
<event>
 9    1  0.2951046E-005  0.1891194E+03  0.7546771E-02  0.1164753E+00
         -2   -1    0    0    0  501 -0.00000000000E+00  0.00000000000E+00  0.52801222894E+03  0.52801222894E+03  0.00000000000E+00 0.  1.
          1   -1    0    0  502    0  0.00000000000E+00 -0.00000000000E+00 -0.34963497418E+03  0.34963497418E+03  0.00000000000E+00 0. -1.
        -24    2    1    2    0    0 -0.10768407422E+02  0.17431040816E+03  0.37847121241E+03  0.42458454638E+03  0.80817704798E+02 0.  0.
         23    2    1    2    0    0  0.13618891985E+03 -0.39728287986E+02  0.18328228505E+02  0.16749146874E+03  0.87130415945E+02 0.  0.
         11    1    3    3    0    0 -0.82898272507E+01  0.82866619643E+02  0.93113576858E+02  0.12492292056E+03  0.00000000000E+00 0. -1.
        -12    1    3    3    0    0 -0.24785801710E+01  0.91443788521E+02  0.28535763555E+03  0.29966162582E+03  0.00000000000E+00 0.  1.
        -13    1    4    4    0    0  0.13806706072E+03 -0.12115153515E+02  0.12117804492E+02  0.13912631450E+03  0.00000000000E+00 0.  1.
         13    1    4    4    0    0 -0.18781408692E+01 -0.27613134471E+02  0.62104240129E+01  0.28365154236E+02  0.00000000000E+00 0. -1.
         21    1    1    2  502  501 -0.12542051243E+03 -0.13458212018E+03 -0.21842218616E+03  0.28557118800E+03  0.00000000000E+00 0. -1.
<scales pt_clust_5="13000.00000" pt_clust_6="13000.00000" pt_clust_7="13000.00000" pt_clust_8="13000.00000" pt_clust_9="170.98137"></scales>
<clustering>
<clus scale="   80.818">  5  6 -1 -1</clus>
<clus scale="   87.130">  7  8 -1 -1</clus>
<clus scale="  166.486">  2  7  1 -1</clus>
<clus scale="  170.981">  2  9  1 -1</clus>
<clus scale="  166.486">  2  5  1 -1</clus>
</clustering>
</event>
<event>
 9    1  0.2951046E-005  0.1584628E+03  0.7546771E-02  0.1192517E+00
         -2   -1    0    0    0  501 -0.00000000000E+00  0.00000000000E+00  0.12271491025E+03  0.12271491025E+03  0.00000000000E+00 0.  1.
          1   -1    0    0  502    0  0.00000000000E+00 -0.00000000000E+00 -0.44631062363E+03  0.44631062363E+03  0.00000000000E+00 0. -1.
        -24    2    1    2    0    0  0.23586633119E+02 -0.11471327426E+03 -0.36786128695E+01  0.14110410841E+03  0.78621706070E+02 0.  0.
         23    2    1    2    0    0 -0.11786506133E+02  0.15676796668E+03 -0.10800224245E+03  0.21155195624E+03  0.91512997487E+02 0.  0.
         11    1    3    3    0    0  0.23382003804E+01 -0.10616199933E+03 -0.25782863004E+02  0.10927302186E+03  0.00000000000E+00 0. -1.
        -12    1    3    3    0    0  0.21248432739E+02 -0.85512749259E+01  0.22104250135E+02  0.31831086546E+02  0.00000000000E+00 0.  1.
        -11    1    4    4    0    0 -0.16118577257E+02  0.10462448530E+03 -0.17903313044E+02  0.10736209794E+03  0.00000000000E+00 0.  1.
         11    1    4    4    0    0  0.43320711233E+01  0.52143481381E+02 -0.90098929409E+02  0.10418985829E+03  0.00000000000E+00 0. -1.
         21    1    1    2  502  501 -0.11800126986E+02 -0.42054692422E+02 -0.21191485805E+03  0.21636946923E+03  0.00000000000E+00 0.  1.
<scales pt_clust_5="13000.00000" pt_clust_6="13000.00000" pt_clust_7="13000.00000" pt_clust_8="13000.00000" pt_clust_9="43.67883"></scales>
<clustering>
<clus scale="   43.679">  2  9  1 -1</clus>
<clus scale="   78.622">  5  6 -1 -1</clus>
<clus scale="   91.513">  7  8 -1 -1</clus>
<clus scale="  151.384">  1  5  2 -1</clus>
<clus scale="   43.679">  2  5  1 -1</clus>
</clustering>
</event>
<event>
 9    1  0.2951046E-005  0.1250437E+03  0.7546771E-02  0.1237546E+00
          1   -1    0    0  502    0  0.00000000000E+00  0.00000000000E+00  0.11694695663E+03  0.11694695663E+03  0.00000000000E+00 0. -1.
         -2   -1    0    0    0  501 -0.00000000000E+00 -0.00000000000E+00 -0.23781918437E+03  0.23781918437E+03  0.00000000000E+00 0.  1.
        -24    2    1    2    0    0  0.73000834568E+02  0.62085637849E+02 -0.14465357295E+03  0.19121030479E+03  0.80330419009E+02 0.  0.
         23    2    1    2    0    0 -0.55983371778E+02 -0.41740902097E+02 -0.17180945243E+02  0.11475612768E+03  0.89427865552E+02 0.  0.
         11    1    3    3    0    0  0.63823813722E+02  0.40601886008E+02 -0.43218260343E+02  0.87119517747E+02  0.00000000000E+00 0. -1.
        -12    1    3    3    0    0  0.91770208458E+01  0.21483751841E+02 -0.10143531261E+03  0.10409078705E+03  0.00000000000E+00 0.  1.
        -13    1    4    4    0    0  0.10821836298E+02 -0.32447711045E+02  0.18034401604E+02  0.38667890221E+02  0.00000000000E+00 0. -1.
         13    1    4    4    0    0 -0.66805208076E+02 -0.92931910521E+01 -0.35215346847E+02  0.76088237459E+02  0.00000000000E+00 0.  1.
         21    1    1    2  502  501 -0.17017462790E+02 -0.20344735752E+02  0.40962290459E+02  0.48799708527E+02  0.00000000000E+00 0. -1.
<scales pt_clust_5="13000.00000" pt_clust_6="13000.00000" pt_clust_7="13000.00000" pt_clust_8="13000.00000" pt_clust_9="26.52362"></scales>
<clustering>
<clus scale="   26.524">  1  9  2 -1</clus>
<clus scale="   80.330">  5  6 -1 -1</clus>
<clus scale="   89.428">  7  8 -1 -1</clus>
<clus scale="  118.708">  2  5  1 -1</clus>
<clus scale="   26.524">  1  5  2 -1</clus>
</clustering>
</event>
<event>
 9    1  0.2951046E-005  0.8276548E+02  0.7546771E-02  0.1321725E+00
         -2   -1    0    0    0  501 -0.00000000000E+00  0.00000000000E+00  0.18943327178E+03  0.18943327178E+03  0.00000000000E+00 0.  1.
          1   -1    0    0  502    0  0.00000000000E+00 -0.00000000000E+00 -0.23714539911E+03  0.23714539911E+03  0.00000000000E+00 0. -1.
         23    2    1    2    0    0 -0.12646082933E+02  0.13863165933E+02  0.13477245906E+03  0.15903706966E+03  0.82322919177E+02 0.  0.
        -24    2    1    2    0    0 -0.38945625989E+02  0.50207021806E+02 -0.54706850741E+02  0.11557501571E+03  0.79543937023E+02 0.  0.
         11    1    4    4    0    0 -0.57089728370E+02  0.10431846016E+02 -0.33066170348E+02  0.66793952706E+02  0.00000000000E+00 0. -1.
        -12    1    4    4    0    0  0.18144102381E+02  0.39775175790E+02 -0.21640680392E+02  0.48781063008E+02  0.00000000000E+00 0.  1.
        -11    1    3    3    0    0  0.10600305805E+02 -0.17728833235E+02  0.11156804149E+03  0.11346411721E+03  0.00000000000E+00 0.  1.
         11    1    3    3    0    0 -0.23246388738E+02  0.31591999168E+02  0.23204417570E+02  0.45572952456E+02  0.00000000000E+00 0. -1.
         21    1    1    2  502  501  0.51591708922E+02 -0.64070187739E+02 -0.12777773564E+03  0.15196658551E+03  0.00000000000E+00 0. -1.
<scales pt_clust_5="13000.00000" pt_clust_6="13000.00000" pt_clust_7="13000.00000" pt_clust_8="13000.00000" pt_clust_9="82.25991"></scales>
<clustering>
<clus scale="   79.544">  5  6 -1 -1</clus>
<clus scale="   82.260">  2  9  1 -1</clus>
<clus scale="   82.260">  2  5  1 -1</clus>
<clus scale="   82.323">  7  8 -1 -1</clus>
<clus scale="   82.260">  2  5  1 -1</clus>
</clustering>
</event>
<event>
 9    1  0.2951046E-005  0.1725227E+03  0.7546771E-02  0.1176553E+00
          1   -1    0    0  502    0  0.00000000000E+00  0.00000000000E+00  0.20764469725E+03  0.20764469725E+03  0.00000000000E+00 0. -1.
         -2   -1    0    0    0  501 -0.00000000000E+00 -0.00000000000E+00 -0.93816620628E+03  0.93816620628E+03  0.00000000000E+00 0.  1.
        -24    2    1    2    0    0  0.28831051943E+02 -0.14913754781E+03 -0.82352861889E+03  0.84115276184E+03  0.79153931669E+02 0.  0.
         23    2    1    2    0    0  0.42424048264E+00  0.63056123724E+02  0.15853620316E+03  0.19258697779E+03  0.89329511269E+02 0.  0.
         11    1    3    3    0    0  0.37797485755E+02 -0.14079466474E+03 -0.60631572807E+03  0.62359486019E+03  0.00000000000E+00 0. -1.
        -12    1    3    3    0    0 -0.89664338113E+01 -0.83428830737E+01 -0.21721289082E+03  0.21755790166E+03  0.00000000000E+00 0.  1.
        -13    1    4    4    0    0 -0.26401013687E+02  0.52332275328E+02  0.15208042756E+03  0.16298508217E+03  0.00000000000E+00 0. -1.
         13    1    4    4    0    0  0.26825254169E+02  0.10723848396E+02  0.64557756036E+01  0.29601895620E+02  0.00000000000E+00 0.  1.
         21    1    1    2  502  501 -0.29255292426E+02  0.86081424087E+02 -0.65529093295E+02  0.11207116389E+03  0.00000000000E+00 0. -1.
<scales pt_clust_5="13000.00000" pt_clust_6="13000.00000" pt_clust_7="13000.00000" pt_clust_8="13000.00000" pt_clust_9="90.91691"></scales>
<clustering>
<clus scale="   79.154">  5  6 -1 -1</clus>
<clus scale="   89.330">  7  8 -1 -1</clus>
<clus scale="   90.917">  1  9  2 -1</clus>
<clus scale="  167.480">  2  5  1 -1</clus>
<clus scale="   90.917">  1  5  2 -1</clus>
</clustering>
</event>
<event>
 9    1  0.2951046E-005  0.1640457E+03  0.7546771E-02  0.1185666E+00
         -2   -1    0    0    0  501 -0.00000000000E+00  0.00000000000E+00  0.56120731767E+03  0.56120731767E+03  0.00000000000E+00 0.  1.
          1   -1    0    0  502    0  0.00000000000E+00 -0.00000000000E+00 -0.10194114540E+03  0.10194114540E+03  0.00000000000E+00 0. -1.
         23    2    1    2    0    0  0.13838746467E+03 -0.35758380402E+02  0.45770212685E+03  0.48762355862E+03  0.88632645515E+02 0.  0.
        -24    2    1    2    0    0 -0.11469612264E+03  0.28355824832E+02  0.21801203948E+02  0.14349960036E+03  0.78470309413E+02 0.  0.
         11    1    4    4    0    0 -0.10632601315E+03  0.50360206716E+02  0.12998798077E+02  0.11836528310E+03  0.00000000000E+00 0. -1.
        -12    1    4    4    0    0 -0.83701094959E+01 -0.22004381884E+02  0.88024058716E+01  0.25134317261E+02  0.00000000000E+00 0.  1.
        -13    1    3    3    0    0  0.10466178427E+03 -0.65255671281E+02  0.33103735992E+03  0.35326778141E+03  0.00000000000E+00 0.  1.
         13    1    3    3    0    0  0.33725680400E+02  0.29497290879E+02  0.12666476694E+03  0.13435577721E+03  0.00000000000E+00 0. -1.
         21    1    1    2  502  501 -0.23691342026E+02  0.74025555697E+01 -0.20237158531E+02  0.32025304079E+02  0.00000000000E+00 0. -1.
<scales pt_clust_5="13000.00000" pt_clust_6="13000.00000" pt_clust_7="13000.00000" pt_clust_8="13000.00000" pt_clust_9="24.82091"></scales>
<clustering>
<clus scale="   24.821">  2  9  1 -1</clus>
<clus scale="   78.470">  5  6 -1 -1</clus>
<clus scale="   88.633">  7  8 -1 -1</clus>
<clus scale="  158.785">  2  5  1 -1</clus>
<clus scale="   24.821">  2  5  1 -1</clus>
</clustering>
</event>
<event>
 9    1  0.2951046E-005  0.1229740E+03  0.7546771E-02  0.1242759E+00
         -2   -1    0    0    0  501 -0.00000000000E+00  0.00000000000E+00  0.48179546263E+02  0.48179546263E+02  0.00000000000E+00 0.  1.
          1   -1    0    0  502    0  0.00000000000E+00 -0.00000000000E+00 -0.59425315970E+03  0.59425315970E+03  0.00000000000E+00 0. -1.
        -24    2    1    2    0    0  0.74166625374E+02 -0.22752232449E+02 -0.68246691658E+02  0.12682243978E+03  0.73538887050E+02 0.  0.
         23    2    1    2    0    0 -0.11112424553E+03  0.30518101029E+00 -0.29265946856E+03  0.32546105757E+03  0.89031704327E+02 0.  0.
         13    1    3    3    0    0  0.41051141308E+02 -0.16129496257E+02 -0.79759798302E+02  0.91142647961E+02  0.00000000000E+00 0. -1.
        -14    1    3    3    0    0  0.33115484066E+02 -0.66227361921E+01  0.11513106644E+02  0.35679791819E+02  0.00000000000E+00 0.  1.
        -11    1    4    4    0    0 -0.53360375559E+02  0.44623236916E+02 -0.13991980790E+03  0.15625656977E+03  0.00000000000E+00 0.  1.
         11    1    4    4    0    0 -0.57763869968E+02 -0.44318055906E+02 -0.15273966066E+03  0.16920448780E+03  0.00000000000E+00 0. -1.
         21    1    1    2  502  501  0.36957620153E+02  0.22447051439E+02 -0.18516745322E+03  0.19014920862E+03  0.00000000000E+00 0. -1.
<scales pt_clust_5="13000.00000" pt_clust_6="13000.00000" pt_clust_7="13000.00000" pt_clust_8="13000.00000" pt_clust_9="43.24044"></scales>
<clustering>
<clus scale="   43.240">  2  9  1 -1</clus>
<clus scale="   73.539">  5  6 -1 -1</clus>
<clus scale="   89.032">  7  8 -1 -1</clus>
<clus scale="  112.267">  1  5  2 -1</clus>
<clus scale="   43.240">  2  5  1 -1</clus>
</clustering>
</event>
<event>
 9    1  0.2951046E-005  0.1236601E+03  0.7546771E-02  0.1239496E+00
         -2   -1    0    0    0  501 -0.00000000000E+00  0.00000000000E+00  0.17568082467E+03  0.17568082467E+03  0.00000000000E+00 0.  1.
          1   -1    0    0  502    0  0.00000000000E+00 -0.00000000000E+00 -0.17144254381E+03  0.17144254381E+03  0.00000000000E+00 0. -1.
        -24    2    1    2    0    0 -0.78293135067E+02 -0.23577803886E+02  0.92539745234E+02  0.14743502074E+03  0.80546589367E+02 0.  0.
         23    2    1    2    0    0  0.10334030002E+03  0.33352701145E+01 -0.40613273886E+02  0.14214458910E+03  0.88686552317E+02 0.  0.
         13    1    3    3    0    0 -0.26144943341E+02  0.29418180363E+02  0.22738639404E+02  0.45453637039E+02  0.00000000000E+00 0. -1.
        -14    1    3    3    0    0 -0.52148191726E+02 -0.52995984250E+02  0.69801105830E+02  0.10198138370E+03  0.00000000000E+00 0.  1.
        -13    1    4    4    0    0  0.68792818563E+02  0.14291033257E+02 -0.67177780805E+02  0.97208743184E+02  0.00000000000E+00 0. -1.
         13    1    4    4    0    0  0.34547481453E+02 -0.10955763142E+02  0.26564506920E+02  0.44935845921E+02  0.00000000000E+00 0.  1.
         21    1    1    2  502  501 -0.25047164949E+02  0.20242533772E+02 -0.47688190486E+02  0.57543758630E+02  0.00000000000E+00 0. -1.
<scales pt_clust_5="13000.00000" pt_clust_6="13000.00000" pt_clust_7="13000.00000" pt_clust_8="13000.00000" pt_clust_9="32.20436"></scales>
<clustering>
<clus scale="   32.204">  2  9  1 -1</clus>
<clus scale="   80.547">  5  6 -1 -1</clus>
<clus scale="   88.687">  7  8 -1 -1</clus>
<clus scale="  117.959">  1  5  2 -1</clus>
<clus scale="   32.204">  2  5  1 -1</clus>
</clustering>
</event>
<event>
 9    1  0.2951046E-005  0.1467973E+03  0.7546771E-02  0.1205641E+00
         -2   -1    0    0    0  501 -0.00000000000E+00  0.00000000000E+00  0.68027923708E+02  0.68027923708E+02  0.00000000000E+00 0.  1.
          1   -1    0    0  502    0  0.00000000000E+00 -0.00000000000E+00 -0.53321932385E+03  0.53321932385E+03  0.00000000000E+00 0. -1.
         23    2    1    2    0    0 -0.82364948880E+02 -0.75902090226E+02 -0.79716752359E+02  0.16244882973E+03  0.86543339262E+02 0.  0.
        -24    2    1    2    0    0  0.12040871828E+03  0.62472613613E+02 -0.23444152320E+03  0.28246964902E+03  0.80157269987E+02 0.  0.
         13    1    4    4    0    0  0.95090066617E+02  0.30303078850E+02 -0.21523992807E+03  0.23725223706E+03  0.00000000000E+00 0. -1.
        -14    1    4    4    0    0  0.25318651663E+02  0.32169534763E+02 -0.19201595127E+02  0.45217411960E+02  0.00000000000E+00 0.  1.
        -11    1    3    3    0    0 -0.61346970031E+02 -0.30849036010E+01 -0.16102663039E+02  0.63500103301E+02  0.00000000000E+00 0.  1.
         11    1    3    3    0    0 -0.21017978849E+02 -0.72817186625E+02 -0.63614089320E+02  0.98948726433E+02  0.00000000000E+00 0. -1.
         21    1    1    2  502  501 -0.38043769400E+02  0.13429476613E+02 -0.15103312459E+03  0.15632876880E+03  0.00000000000E+00 0.  1.
<scales pt_clust_5="13000.00000" pt_clust_6="13000.00000" pt_clust_7="13000.00000" pt_clust_8="13000.00000" pt_clust_9="40.34451"></scales>
<clustering>
<clus scale="   40.345">  2  9  1 -1</clus>
<clus scale="   80.157">  5  6 -1 -1</clus>
<clus scale="   86.543">  7  8 -1 -1</clus>
<clus scale="  143.125">  2  5  1 -1</clus>
<clus scale="   40.345">  2  5  1 -1</clus>
</clustering>
</event>
<event>
 9    1  0.2951046E-005  0.9486365E+02  0.7546771E-02  0.1298041E+00
          1   -1    0    0  502    0  0.00000000000E+00  0.00000000000E+00  0.50947777698E+03  0.50947777698E+03  0.00000000000E+00 0. -1.
         -2   -1    0    0    0  501 -0.00000000000E+00 -0.00000000000E+00 -0.25523387485E+02  0.25523387485E+02  0.00000000000E+00 0.  1.
        -24    2    1    2    0    0  0.20359476971E+02  0.11362241078E+02  0.13068208607E+03  0.15440835957E+03  0.78870305324E+02 0.  0.
         23    2    1    2    0    0 -0.67707336927E+01 -0.46002607511E+02  0.22220029950E+03  0.24434127594E+03  0.90374793468E+02 0.  0.
         13    1    3    3    0    0 -0.24776752255E+02  0.20051497706E+02  0.79305779774E+02  0.85471379526E+02  0.00000000000E+00 0. -1.
        -14    1    3    3    0    0  0.45136229226E+02 -0.86892566285E+01  0.51376306298E+02  0.68936980049E+02  0.00000000000E+00 0.  1.
        -11    1    4    4    0    0  0.35537043687E+02 -0.23135262219E+02  0.16108471170E+03  0.16657252527E+03  0.00000000000E+00 0.  1.
         11    1    4    4    0    0 -0.42307777380E+02 -0.22867345292E+02  0.61115587806E+02  0.77768750667E+02  0.00000000000E+00 0. -1.
         21    1    1    2  502  501 -0.13588743278E+02  0.34640366433E+02  0.13107200392E+03  0.13625152895E+03  0.00000000000E+00 0. -1.
<scales pt_clust_5="13000.00000" pt_clust_6="13000.00000" pt_clust_7="13000.00000" pt_clust_8="13000.00000" pt_clust_9="37.21033"></scales>
<clustering>
<clus scale="   37.210">  1  9  2 -1</clus>
<clus scale="   78.870">  5  6 -1 -1</clus>
<clus scale="   83.976">  2  5  1 -1</clus>
<clus scale="   90.375">  7  8 -1 -1</clus>
<clus scale="   37.210">  1  5  2 -1</clus>
</clustering>
</event>
<event>
 9    1  0.2951046E-005  0.1431126E+03  0.7546771E-02  0.1223184E+00
          1   -1    0    0  502    0  0.00000000000E+00  0.00000000000E+00  0.13790050358E+03  0.13790050358E+03  0.00000000000E+00 0. -1.
         -2   -1    0    0    0  501 -0.00000000000E+00 -0.00000000000E+00 -0.27637427681E+03  0.27637427681E+03  0.00000000000E+00 0.  1.
        -24    2    1    2    0    0  0.62109932922E+02  0.16639198692E+02 -0.16710881700E+03  0.19613720368E+03  0.80062096194E+02 0.  0.
         23    2    1    2    0    0 -0.93577413161E+02 -0.52449904999E+02  0.41401707304E+01  0.16454086222E+03  0.12469494592E+03 0.  0.
         11    1    3    3    0    0  0.33322353468E+02  0.48784086181E+02 -0.87330926289E+02  0.10543698114E+03  0.00000000000E+00 0. -1.
        -12    1    3    3    0    0  0.28787579454E+02 -0.32144887489E+02 -0.79777890709E+02  0.90700222538E+02  0.00000000000E+00 0.  1.
        -11    1    4    4    0    0 -0.19119744333E+02  0.35407235938E+02  0.25182496056E+02  0.47469938780E+02  0.00000000000E+00 0. -1.
         11    1    4    4    0    0 -0.74457668827E+02 -0.87857140937E+02 -0.21042325326E+02  0.11707092344E+03  0.00000000000E+00 0.  1.
         21    1    1    2  502  501  0.31467480239E+02  0.35810706307E+02  0.24494873042E+02  0.53596714490E+02  0.00000000000E+00 0. -1.
<scales pt_clust_5="13000.00000" pt_clust_6="13000.00000" pt_clust_7="13000.00000" pt_clust_8="13000.00000" pt_clust_9="47.67189"></scales>
<clustering>
<clus scale="   47.672">  1  9  2 -1</clus>
<clus scale="   80.062">  5  6 -1 -1</clus>
<clus scale="  106.500">  2  5  1 -1</clus>
<clus scale="  124.695">  7  8 -1 -1</clus>
<clus scale="   47.672">  1  5  2 -1</clus>
</clustering>
</event>
<event>
 9    1  0.2951046E-005  0.1282929E+03  0.7546771E-02  0.1233247E+00
          3   -1    0    0  502    0  0.00000000000E+00  0.00000000000E+00  0.22670549782E+03  0.22670549782E+03  0.00000000000E+00 0. -1.
         -4   -1    0    0    0  501 -0.00000000000E+00 -0.00000000000E+00 -0.36832922839E+03  0.36832922839E+03  0.00000000000E+00 0.  1.
         23    2    1    2    0    0 -0.53744174014E+02 -0.71181286575E+02 -0.31489598167E+03  0.33988692243E+03  0.91697486174E+02 0.  0.
        -24    2    1    2    0    0  0.16835970581E+02  0.10722005763E+03  0.13688305925E+03  0.19201950756E+03  0.79717806737E+02 0.  0.
         13    1    4    4    0    0  0.10358661348E+00  0.63855139934E+02  0.21093671879E+02  0.67249034339E+02  0.00000000000E+00 0. -1.
        -14    1    4    4    0    0  0.16732383967E+02  0.43364917692E+02  0.11578938737E+03  0.12477047322E+03  0.00000000000E+00 0.  1.
        -13    1    3    3    0    0 -0.38286204076E+02 -0.10254259216E+02 -0.23454582724E+03  0.23787124318E+03  0.00000000000E+00 0.  1.
         13    1    3    3    0    0 -0.15457969939E+02 -0.60927027359E+02 -0.80350154429E+02  0.10201567926E+03  0.00000000000E+00 0. -1.
         21    1    1    2  502  501  0.36908203433E+02 -0.36038771050E+02  0.36389191847E+02  0.63128296213E+02  0.00000000000E+00 0. -1.
<scales pt_clust_5="13000.00000" pt_clust_6="13000.00000" pt_clust_7="13000.00000" pt_clust_8="13000.00000" pt_clust_9="51.58496"></scales>
<clustering>
<clus scale="   51.585">  1  9  2 -1</clus>
<clus scale="   79.718">  5  6 -1 -1</clus>
<clus scale="   91.697">  7  8 -1 -1</clus>
<clus scale="  120.023">  1  5  2 -1</clus>
<clus scale="   51.585">  1  5  2 -1</clus>
</clustering>
</event>
<event>
 9    1  0.2951046E-005  0.9656821E+02  0.7546771E-02  0.1294956E+00
          1   -1    0    0  502    0  0.00000000000E+00  0.00000000000E+00  0.55537181096E+03  0.55537181096E+03  0.00000000000E+00 0. -1.
         -2   -1    0    0    0  501 -0.00000000000E+00 -0.00000000000E+00 -0.48870704912E+02  0.48870704912E+02  0.00000000000E+00 0.  1.
         23    2    1    2    0    0  0.10016813752E+01  0.23888511380E+02  0.44772150318E+02  0.10492804273E+03  0.91835093323E+02 0.  0.
        -24    2    1    2    0    0 -0.50027989354E+02 -0.22725984674E+02  0.11832323844E+03  0.15242484082E+03  0.78826856126E+02 0.  0.
         13    1    4    4    0    0 -0.41797097755E+02  0.18886880622E+02  0.31047248393E+02  0.55386309438E+02  0.00000000000E+00 0. -1.
        -14    1    4    4    0    0 -0.82308915990E+01 -0.41612865296E+02  0.87275990045E+02  0.97038531383E+02  0.00000000000E+00 0.  1.
        -11    1    3    3    0    0  0.22315372048E+02  0.41735725485E+02  0.57400159080E+02  0.74395059472E+02  0.00000000000E+00 0. -1.
         11    1    3    3    0    0 -0.21313690673E+02 -0.17847214104E+02 -0.12628008762E+02  0.30532983259E+02  0.00000000000E+00 0.  1.
         21    1    1    2  502  501  0.49026307978E+02 -0.11625267062E+01  0.34340571729E+03  0.34688963232E+03  0.00000000000E+00 0. -1.
<scales pt_clust_5="13000.00000" pt_clust_6="13000.00000" pt_clust_7="13000.00000" pt_clust_8="13000.00000" pt_clust_9="49.04009"></scales>
<clustering>
<clus scale="   49.040">  1  9  2 -1</clus>
<clus scale="   78.827">  5  6 -1 -1</clus>
<clus scale="   84.294">  1  5  2 -1</clus>
<clus scale="   91.835">  7  8 -1 -1</clus>
<clus scale="   49.040">  1  5  2 -1</clus>
</clustering>
</event>
<event>
 9    1  0.2951046E-005  0.9194900E+02  0.7546771E-02  0.1315671E+00
          1   -1    0    0  502    0  0.00000000000E+00  0.00000000000E+00  0.48800019338E+03  0.48800019338E+03  0.00000000000E+00 0. -1.
         -2   -1    0    0    0  501 -0.00000000000E+00 -0.00000000000E+00 -0.53006599215E+02  0.53006599215E+02  0.00000000000E+00 0.  1.
        -24    2    1    2    0    0  0.13592700509E+02  0.72023994707E+01 -0.17571620673E+02  0.69496679904E+02  0.65455256468E+02 0.  0.
         23    2    1    2    0    0  0.19922171062E+02 -0.93273707409E+01  0.38303406337E+03  0.39429390233E+03  0.90932364766E+02 0.  0.
         11    1    3    3    0    0 -0.19629624023E+02  0.13583192904E+02 -0.25312374581E+02  0.34792837994E+02  0.00000000000E+00 0. -1.
        -12    1    3    3    0    0  0.33222324533E+02 -0.63807934332E+01  0.77407539084E+01  0.34703841909E+02  0.00000000000E+00 0.  1.
        -13    1    4    4    0    0 -0.30284945340E+01 -0.48035482392E+02  0.17916171070E+03  0.18551414482E+03  0.00000000000E+00 0. -1.
         13    1    4    4    0    0  0.22950665596E+02  0.38708111651E+02  0.20387235268E+03  0.20877975751E+03  0.00000000000E+00 0.  1.
         21    1    1    2  502  501 -0.33514871571E+02  0.21249712701E+01  0.69531151463E+02  0.77216210365E+02  0.00000000000E+00 0. -1.
<scales pt_clust_5="13000.00000" pt_clust_6="13000.00000" pt_clust_7="13000.00000" pt_clust_8="13000.00000" pt_clust_9="33.58217"></scales>
<clustering>
<clus scale="   33.582">  1  9  2 -1</clus>
<clus scale="   65.455">  5  6 -1 -1</clus>
<clus scale="   66.860">  2  5  1 -1</clus>
<clus scale="   90.932">  7  8 -1 -1</clus>
<clus scale="   33.582">  1  5  2 -1</clus>
</clustering>
</event>
<event>
 9    1  0.2951046E-005  0.9957725E+02  0.7546771E-02  0.1286323E+00
         -2   -1    0    0    0  501 -0.00000000000E+00  0.00000000000E+00  0.23266226399E+03  0.23266226399E+03  0.00000000000E+00 0.  1.
          1   -1    0    0  502    0  0.00000000000E+00 -0.00000000000E+00 -0.14965610478E+03  0.14965610478E+03  0.00000000000E+00 0. -1.
         23    2    1    2    0    0 -0.31925948162E+02 -0.24590976643E+02  0.19172762333E+03  0.21606021686E+03  0.91096396544E+02 0.  0.
        -24    2    1    2    0    0  0.13549436641E+02  0.45475644508E+02 -0.99988360460E+02  0.13710111799E+03  0.80916147027E+02 0.  0.
         11    1    4    4    0    0  0.41678273315E+02  0.15526053062E+02 -0.23566309502E+02  0.50333962031E+02  0.00000000000E+00 0. -1.
        -12    1    4    4    0    0 -0.28128836674E+02  0.29949591445E+02 -0.76422050959E+02  0.86767155958E+02  0.00000000000E+00 0.  1.
        -11    1    3    3    0    0 -0.18436685720E+02  0.22840439758E+02  0.14562405741E+03  0.14855289686E+03  0.00000000000E+00 0.  1.
         11    1    3    3    0    0 -0.13489262442E+02 -0.47431416401E+02  0.46103565917E+02  0.67507319998E+02  0.00000000000E+00 0. -1.
         21    1    1    2  502  501  0.18376511521E+02 -0.20884667865E+02 -0.87331036536E+01  0.29157033918E+02  0.00000000000E+00 0.  1.
<scales pt_clust_5="13000.00000" pt_clust_6="13000.00000" pt_clust_7="13000.00000" pt_clust_8="13000.00000" pt_clust_9="27.81844"></scales>
<clustering>
<clus scale="   27.818">  2  9  1 -1</clus>
<clus scale="   80.916">  5  6 -1 -1</clus>
<clus scale="   90.358">  2  5  1 -1</clus>
<clus scale="   91.096">  7  8 -1 -1</clus>
<clus scale="   27.818">  2  5  1 -1</clus>
</clustering>
</event>
<event>
 9    1  0.2951046E-005  0.1658218E+03  0.7546771E-02  0.1208309E+00
          3   -1    0    0  502    0  0.00000000000E+00  0.00000000000E+00  0.26765606452E+03  0.26765606452E+03  0.00000000000E+00 0. -1.
         -4   -1    0    0    0  501 -0.00000000000E+00 -0.00000000000E+00 -0.33114411704E+03  0.33114411704E+03  0.00000000000E+00 0.  1.
        -24    2    1    2    0    0  0.13231250938E+03 -0.14322833307E+02 -0.16147073664E+03  0.22532104725E+03  0.83576502982E+02 0.  0.
         23    2    1    2    0    0  0.25250531270E+02 -0.90204552014E+01  0.17348593511E+03  0.19720729366E+03  0.89857604295E+02 0.  0.
         11    1    3    3    0    0  0.12781210172E+03 -0.45728501426E+00 -0.10038974461E+03  0.16252459284E+03  0.00000000000E+00 0. -1.
        -12    1    3    3    0    0  0.45004076580E+01 -0.13865548293E+02 -0.61080992034E+02  0.62796454410E+02  0.00000000000E+00 0.  1.
        -11    1    4    4    0    0  0.49519298001E+02 -0.83462112783E+01  0.16335602612E+03  0.17090058919E+03  0.00000000000E+00 0. -1.
         11    1    4    4    0    0 -0.24268766731E+02 -0.67424392305E+00  0.10129908986E+02  0.26306704460E+02  0.00000000000E+00 0.  1.
         21    1    1    2  502  501 -0.15756304065E+03  0.23343288509E+02 -0.75503250985E+02  0.17627184065E+03  0.00000000000E+00 0.  1.
<scales pt_clust_5="13000.00000" pt_clust_6="13000.00000" pt_clust_7="13000.00000" pt_clust_8="13000.00000" pt_clust_9="143.21951"></scales>
<clustering>
<clus scale="   83.577">  5  6 -1 -1</clus>
<clus scale="   89.858">  7  8 -1 -1</clus>
<clus scale="   93.773">  1  7  2 -1</clus>
<clus scale="  143.220">  1  9  2 -1</clus>
<clus scale="   93.773">  1  5  2 -1</clus>
</clustering>
</event>
<event>
 9    1  0.2951046E-005  0.1072904E+03  0.7546771E-02  0.1268416E+00
         -2   -1    0    0    0  501 -0.00000000000E+00  0.00000000000E+00  0.14102608773E+03  0.14102608773E+03  0.00000000000E+00 0.  1.
          1   -1    0    0  502    0  0.00000000000E+00 -0.00000000000E+00 -0.21660631583E+03  0.21660631583E+03  0.00000000000E+00 0. -1.
         23    2    1    2    0    0 -0.30927766479E+02  0.41629407291E+02  0.81305131528E+02  0.13347250545E+03  0.92275950314E+02 0.  0.
        -24    2    1    2    0    0  0.72883409106E+02 -0.30706735704E+02 -0.11805369599E+03  0.16595784656E+03  0.85734688193E+02 0.  0.
         13    1    4    4    0    0 -0.21163763228E+01  0.21225216820E+02 -0.42327426660E+02  0.47398311420E+02  0.00000000000E+00 0. -1.
        -14    1    4    4    0    0  0.74999785429E+02 -0.51931952525E+02 -0.75726269327E+02  0.11855953514E+03  0.00000000000E+00 0.  1.
        -13    1    3    3    0    0  0.32525529942E+02  0.10542504632E+02  0.18187113627E+02  0.38727581954E+02  0.00000000000E+00 0.  1.
         13    1    3    3    0    0 -0.63453296421E+02  0.31086902659E+02  0.63118017902E+02  0.94744923492E+02  0.00000000000E+00 0. -1.
         21    1    1    2  502  501 -0.41955642627E+02 -0.10922671586E+02 -0.38831663644E+02  0.58202051546E+02  0.00000000000E+00 0. -1.
<scales pt_clust_5="13000.00000" pt_clust_6="13000.00000" pt_clust_7="13000.00000" pt_clust_8="13000.00000" pt_clust_9="43.35413"></scales>
<clustering>
<clus scale="   43.354">  2  9  1 -1</clus>
<clus scale="   85.735">  5  6 -1 -1</clus>
<clus scale="   92.276">  7  8 -1 -1</clus>
<clus scale="  101.719">  2  5  1 -1</clus>
<clus scale="   43.354">  2  5  1 -1</clus>
</clustering>
</event>
<event>
 9    1  0.2951046E-005  0.1144999E+03  0.7546771E-02  0.1264084E+00
          1   -1    0    0  502    0  0.00000000000E+00  0.00000000000E+00  0.35358756577E+03  0.35358756577E+03  0.00000000000E+00 0. -1.
         -2   -1    0    0    0  501 -0.00000000000E+00 -0.00000000000E+00 -0.14113783860E+03  0.14113783860E+03  0.00000000000E+00 0.  1.
         23    2    1    2    0    0  0.34098225342E+02 -0.46485762510E+01 -0.99068647077E+02  0.15063835045E+03  0.10813425711E+03 0.  0.
        -24    2    1    2    0    0 -0.68783055886E+02 -0.10278283365E+02  0.22384830159E+03  0.24863083229E+03  0.82900402601E+02 0.  0.
         13    1    4    4    0    0 -0.69066211425E+02 -0.39084751081E+02  0.16728448569E+03  0.18515360779E+03  0.00000000000E+00 0. -1.
        -14    1    4    4    0    0  0.28315553909E+00  0.28806467716E+02  0.56563815905E+02  0.63477224491E+02  0.00000000000E+00 0.  1.
        -13    1    3    3    0    0 -0.15054996012E+02 -0.46186764541E+02 -0.35375924477E+02  0.60094310515E+02  0.00000000000E+00 0.  1.
         13    1    3    3    0    0  0.49153221354E+02  0.41538188290E+02 -0.63692722600E+02  0.90544039937E+02  0.00000000000E+00 0. -1.
         21    1    1    2  502  501  0.34684830545E+02  0.14926859616E+02  0.87670072662E+02  0.95456221633E+02  0.00000000000E+00 0. -1.
<scales pt_clust_5="13000.00000" pt_clust_6="13000.00000" pt_clust_7="13000.00000" pt_clust_8="13000.00000" pt_clust_9="37.76041"></scales>
<clustering>
<clus scale="   37.760">  1  9  2 -1</clus>
<clus scale="   82.900">  5  6 -1 -1</clus>
<clus scale="   91.048">  1  5  2 -1</clus>
<clus scale="  108.134">  7  8 -1 -1</clus>
<clus scale="   37.760">  1  5  2 -1</clus>
</clustering>
</event>
<event>
 9    1  0.2951046E-005  0.1315349E+03  0.7546771E-02  0.1227253E+00
         -2   -1    0    0    0  501 -0.00000000000E+00  0.00000000000E+00  0.56322793626E+03  0.56322793626E+03  0.00000000000E+00 0.  1.
          1   -1    0    0  502    0  0.00000000000E+00 -0.00000000000E+00 -0.48762449545E+02  0.48762449545E+02  0.00000000000E+00 0. -1.
        -24    2    1    2    0    0 -0.92154039138E+02 -0.15919907494E+02  0.38544645550E+03  0.40573553999E+03  0.85478347939E+02 0.  0.
         23    2    1    2    0    0  0.82647314388E+02  0.43064646594E+02  0.10988738152E+03  0.17171161643E+03  0.93405033262E+02 0.  0.
         13    1    3    3    0    0 -0.51148276478E+02 -0.50534608678E+02  0.24701414627E+03  0.25726616824E+03  0.00000000000E+00 0. -1.
        -14    1    3    3    0    0 -0.41005762661E+02  0.34614701184E+02  0.13843230923E+03  0.14846937175E+03  0.00000000000E+00 0.  1.
        -11    1    4    4    0    0  0.82314487679E+02  0.66795339990E+02  0.10085404158E+03  0.14631756569E+03  0.00000000000E+00 0.  1.
         11    1    4    4    0    0  0.33282670855E+00 -0.23730693397E+02  0.90333399439E+01  0.25394050745E+02  0.00000000000E+00 0. -1.
         21    1    1    2  502  501  0.95067247505E+01 -0.27144739100E+02  0.19131649692E+02  0.34543229383E+02  0.00000000000E+00 0.  1.
<scales pt_clust_5="13000.00000" pt_clust_6="13000.00000" pt_clust_7="13000.00000" pt_clust_8="13000.00000" pt_clust_9="28.76134"></scales>
<clustering>
<clus scale="   28.761">  2  9  1 -1</clus>
<clus scale="   85.478">  5  6 -1 -1</clus>
<clus scale="   93.405">  7  8 -1 -1</clus>
<clus scale="  126.030">  1  5  2 -1</clus>
<clus scale="   28.761">  2  5  1 -1</clus>
</clustering>
</event>
<event>
 9    1  0.2951046E-005  0.8557885E+02  0.7546771E-02  0.1316172E+00
          1   -1    0    0  502    0  0.00000000000E+00  0.00000000000E+00  0.65136438493E+03  0.65136438493E+03  0.00000000000E+00 0. -1.
         -2   -1    0    0    0  501 -0.00000000000E+00 -0.00000000000E+00 -0.29982782543E+02  0.29982782543E+02  0.00000000000E+00 0.  1.
         23    2    1    2    0    0 -0.78722749734E+01 -0.44835910141E+01  0.98297743546E+02  0.12994686051E+03  0.84508371594E+02 0.  0.
        -24    2    1    2    0    0 -0.52512112851E+02 -0.79737622192E+01  0.19714710348E+03  0.21968321599E+03  0.81071771282E+02 0.  0.
         11    1    4    4    0    0 -0.12524778725E+02  0.34616494632E+02  0.96880218661E+02  0.10363854761E+03  0.00000000000E+00 0. -1.
        -12    1    4    4    0    0 -0.39987334127E+02 -0.42590256851E+02  0.10026688482E+03  0.11604466838E+03  0.00000000000E+00 0.  1.
        -13    1    3    3    0    0 -0.24810044347E+02  0.33047447471E+02  0.33612164075E+02  0.53267716853E+02  0.00000000000E+00 0.  1.
         13    1    3    3    0    0  0.16937769374E+02 -0.37531038485E+02  0.64685579470E+02  0.76679143661E+02  0.00000000000E+00 0. -1.
         21    1    1    2  502  501  0.60384387825E+02  0.12457353233E+02  0.32593675537E+03  0.33171709097E+03  0.00000000000E+00 0. -1.
<scales pt_clust_5="13000.00000" pt_clust_6="13000.00000" pt_clust_7="13000.00000" pt_clust_8="13000.00000" pt_clust_9="61.65598"></scales>
<clustering>
<clus scale="   61.656">  1  9  2 -1</clus>
<clus scale="   81.072">  5  6 -1 -1</clus>
<clus scale="   82.187">  1  5  2 -1</clus>
<clus scale="   84.508">  7  8 -1 -1</clus>
<clus scale="   61.656">  1  5  2 -1</clus>
</clustering>
</event>
<event>
 9    1  0.2951046E-005  0.2019332E+03  0.7546771E-02  0.1148755E+00
         -2   -1    0    0    0  501 -0.00000000000E+00  0.00000000000E+00  0.63429954880E+02  0.63429954880E+02  0.00000000000E+00 0.  1.
          1   -1    0    0  502    0  0.00000000000E+00 -0.00000000000E+00 -0.17553044269E+04  0.17553044269E+04  0.00000000000E+00 0. -1.
         23    2    1    2    0    0  0.15545715957E+03 -0.80254301847E+02 -0.17415526516E+03  0.25720423924E+03  0.72223838700E+02 0.  0.
        -24    2    1    2    0    0 -0.24855578066E+03  0.35409763537E+02 -0.11221190906E+04  0.11526562770E+04  0.80196085684E+02 0.  0.
         13    1    4    4    0    0 -0.30855720248E+02 -0.12951652448E+02 -0.76153842655E+02  0.83181900220E+02  0.00000000000E+00 0. -1.
        -14    1    4    4    0    0 -0.21770006041E+03  0.48361415985E+02 -0.10459652479E+04  0.10694743768E+04  0.00000000000E+00 0.  1.
        -13    1    3    3    0    0  0.12126844442E+03 -0.84690633734E+02 -0.16487821673E+03  0.22150251784E+03  0.00000000000E+00 0. -1.
         13    1    3    3    0    0  0.34188715143E+02  0.44363318871E+01 -0.92770484224E+01  0.35701721403E+02  0.00000000000E+00 0.  1.
         21    1    1    2  502  501  0.93098621088E+02  0.44844538311E+02 -0.39560011634E+03  0.40887386553E+03  0.00000000000E+00 0. -1.
<scales pt_clust_5="13000.00000" pt_clust_6="13000.00000" pt_clust_7="13000.00000" pt_clust_8="13000.00000" pt_clust_9="103.33628"></scales>
<clustering>
<clus scale="   72.224">  7  8 -1 -1</clus>
<clus scale="   80.196">  5  6 -1 -1</clus>
<clus scale="  103.336">  2  9  1 -1</clus>
<clus scale="  198.902">  1  7  2 -1</clus>
<clus scale="  103.336">  2  5  1 -1</clus>
</clustering>
</event>
<event>
 9    1  0.2951046E-005  0.8863486E+02  0.7546771E-02  0.1318415E+00
         -2   -1    0    0    0  501 -0.00000000000E+00  0.00000000000E+00  0.87476044107E+02  0.87476044107E+02  0.00000000000E+00 0.  1.
          1   -1    0    0  502    0  0.00000000000E+00 -0.00000000000E+00 -0.12031125292E+03  0.12031125292E+03  0.00000000000E+00 0. -1.
         23    2    1    2    0    0 -0.19428641316E+01  0.99376443638E+01  0.31025399809E+02  0.94395280795E+02  0.88574048719E+02 0.  0.
        -24    2    1    2    0    0  0.61031712210E+00  0.11142179329E+02 -0.43170548201E+02  0.83824918831E+02  0.70981688750E+02 0.  0.
         13    1    4    4    0    0 -0.26894360048E+01 -0.29532253839E+02 -0.10192131830E+02  0.31357082678E+02  0.00000000000E+00 0. -1.
        -14    1    4    4    0    0  0.32997531269E+01  0.40674433168E+02 -0.32978416371E+02  0.52467836153E+02  0.00000000000E+00 0.  1.
        -11    1    3    3    0    0  0.33747342199E+02  0.24912218176E+02 -0.40767586055E+01  0.42144058664E+02  0.00000000000E+00 0.  1.
         11    1    3    3    0    0 -0.35690206331E+02 -0.14974573812E+02  0.35102158414E+02  0.52251222131E+02  0.00000000000E+00 0. -1.
         21    1    1    2  502  501  0.13325470095E+01 -0.21079823693E+02 -0.20690060416E+02  0.29567097397E+02  0.00000000000E+00 0. -1.
<scales pt_clust_5="13000.00000" pt_clust_6="13000.00000" pt_clust_7="13000.00000" pt_clust_8="13000.00000" pt_clust_9="21.12190"></scales>
<clustering>
<clus scale="   21.122">  2  9  1 -1</clus>
<clus scale="   70.982">  5  6 -1 -1</clus>
<clus scale="   71.058">  2  5  1 -1</clus>
<clus scale="   88.574">  7  8 -1 -1</clus>
<clus scale="   21.122">  2  5  1 -1</clus>
</clustering>
</event>
<event>
 9    1  0.2951046E-005  0.1148378E+03  0.7546771E-02  0.1257278E+00
         -2   -1    0    0    0  501 -0.00000000000E+00  0.00000000000E+00  0.10616072172E+03  0.10616072172E+03  0.00000000000E+00 0.  1.
          1   -1    0    0  502    0  0.00000000000E+00 -0.00000000000E+00 -0.29539525797E+03  0.29539525797E+03  0.00000000000E+00 0. -1.
        -24    2    1    2    0    0  0.74390648622E+02  0.80476660061E+02 -0.56824408267E+02  0.14760103379E+03  0.80911002861E+02 0.  0.
         23    2    1    2    0    0 -0.35901536764E+02  0.15221357431E+02 -0.93679112001E+02  0.14377502993E+03  0.10185712122E+03 0.  0.
         13    1    3    3    0    0  0.26518842505E+02 -0.57677770142E+01 -0.38766603598E+02  0.47321937978E+02  0.00000000000E+00 0. -1.
        -14    1    3    3    0    0  0.47871806117E+02  0.86244437075E+02 -0.18057804669E+02  0.10027909581E+03  0.00000000000E+00 0.  1.
        -13    1    4    4    0    0 -0.37220101662E+02 -0.12495502907E+02 -0.10627971113E+03  0.11329982594E+03  0.00000000000E+00 0. -1.
         13    1    4    4    0    0  0.13185648978E+01  0.27716860338E+02  0.12600599124E+02  0.30475203997E+02  0.00000000000E+00 0.  1.
         21    1    1    2  502  501 -0.38489111858E+02 -0.95698017491E+02 -0.38731015986E+02  0.11017991597E+03  0.00000000000E+00 0. -1.
<scales pt_clust_5="13000.00000" pt_clust_6="13000.00000" pt_clust_7="13000.00000" pt_clust_8="13000.00000" pt_clust_9="103.14806"></scales>
<clustering>
<clus scale="   80.911">  5  6 -1 -1</clus>
<clus scale="  101.857">  7  8 -1 -1</clus>
<clus scale="  103.148">  1  9  2 -1</clus>
<clus scale="  103.148">  1  5  2 -1</clus>
<clus scale="  114.838">  2  5  1 -1</clus>
</clustering>
</event>
<event>
 9    1  0.2951046E-005  0.9416882E+02  0.7546771E-02  0.1299487E+00
         -2   -1    0    0    0  501 -0.00000000000E+00  0.00000000000E+00  0.19292229484E+03  0.19292229484E+03  0.00000000000E+00 0.  1.
          1   -1    0    0  502    0  0.00000000000E+00 -0.00000000000E+00 -0.18549427374E+03  0.18549427374E+03  0.00000000000E+00 0. -1.
         23    2    1    2    0    0  0.25313554032E+02 -0.11153620275E+02  0.14917637625E+03  0.17682465415E+03  0.90819534348E+02 0.  0.
        -24    2    1    2    0    0  0.11801350417E+02  0.37114069923E+02 -0.57039400631E+02  0.10553428561E+03  0.79795151209E+02 0.  0.
         11    1    4    4    0    0 -0.16304948746E+02  0.41363696728E+02 -0.62387861756E+02  0.76609738644E+02  0.00000000000E+00 0. -1.
        -12    1    4    4    0    0  0.28106299163E+02 -0.42496268050E+01  0.53484611252E+01  0.28924546964E+02  0.00000000000E+00 0.  1.
        -11    1    3    3    0    0  0.57710022958E+02 -0.71052913878E+01  0.68857226268E+02  0.90123523704E+02  0.00000000000E+00 0. -1.
         11    1    3    3    0    0 -0.32396468927E+02 -0.40483288869E+01  0.80319149987E+02  0.86701130444E+02  0.00000000000E+00 0.  1.
         21    1    1    2  502  501 -0.37114904449E+02 -0.25960449648E+02 -0.84708954529E+02  0.96057628825E+02  0.00000000000E+00 0.  1.
<scales pt_clust_5="13000.00000" pt_clust_6="13000.00000" pt_clust_7="13000.00000" pt_clust_8="13000.00000" pt_clust_9="45.29306"></scales>
<clustering>
<clus scale="   45.293">  2  9  1 -1</clus>
<clus scale="   79.795">  5  6 -1 -1</clus>
<clus scale="   83.587">  2  5  1 -1</clus>
<clus scale="   90.820">  7  8 -1 -1</clus>
<clus scale="   45.293">  2  5  1 -1</clus>
</clustering>
</event>
<event>
 9    1  0.2951046E-005  0.1149739E+03  0.7546771E-02  0.1256783E+00
          1   -1    0    0  502    0  0.00000000000E+00  0.00000000000E+00  0.23531003714E+03  0.23531003714E+03  0.00000000000E+00 0. -1.
         -2   -1    0    0    0  501 -0.00000000000E+00 -0.00000000000E+00 -0.83874775815E+02  0.83874775815E+02  0.00000000000E+00 0.  1.
         23    2    1    2    0    0 -0.19921661165E+02  0.63630818384E+02 -0.13836674610E+01  0.11673686575E+03  0.95811417159E+02 0.  0.
        -24    2    1    2    0    0  0.39930074103E+02 -0.43991172436E+02  0.13656641697E+03  0.17004121300E+03  0.82060915208E+02 0.  0.
         13    1    4    4    0    0  0.36156571794E+02 -0.11114752217E+02  0.13116576398E+03  0.13651114621E+03  0.00000000000E+00 0. -1.
        -14    1    4    4    0    0  0.37735023086E+01 -0.32876420219E+02  0.54006529940E+01  0.33530066789E+02  0.00000000000E+00 0.  1.
        -13    1    3    3    0    0 -0.84716459656E+01  0.46305593329E+02 -0.47058969082E+02  0.66562176421E+02  0.00000000000E+00 0.  1.
         13    1    3    3    0    0 -0.11450015199E+02  0.17325225056E+02  0.45675301621E+02  0.50174689331E+02  0.00000000000E+00 0. -1.
         21    1    1    2  502  501 -0.20008412938E+02 -0.19639645949E+02  0.16252511816E+02  0.32406734201E+02  0.00000000000E+00 0.  1.
<scales pt_clust_5="13000.00000" pt_clust_6="13000.00000" pt_clust_7="13000.00000" pt_clust_8="13000.00000" pt_clust_9="28.03662"></scales>
<clustering>
<clus scale="   28.037">  1  9  2 -1</clus>
<clus scale="   82.061">  5  6 -1 -1</clus>
<clus scale="   95.811">  7  8 -1 -1</clus>
<clus scale="  103.794">  1  5  2 -1</clus>
<clus scale="   28.037">  1  5  2 -1</clus>
</clustering>
</event>
<event>
 9    1  0.2951046E-005  0.9600958E+02  0.7546771E-02  0.1293908E+00
         -2   -1    0    0    0  501 -0.00000000000E+00  0.00000000000E+00  0.53808293875E+03  0.53808293875E+03  0.00000000000E+00 0.  1.
          1   -1    0    0  502    0  0.00000000000E+00 -0.00000000000E+00 -0.26839538448E+02  0.26839538448E+02  0.00000000000E+00 0. -1.
        -24    2    1    2    0    0 -0.17944569412E+02 -0.24186031805E+02  0.35367602398E+03  0.36402811269E+03  0.80763637756E+02 0.  0.
         23    2    1    2    0    0  0.40598000729E+02  0.24492253014E+02  0.13389525849E+03  0.16812790476E+03  0.89949897120E+02 0.  0.
         11    1    3    3    0    0  0.15434690425E+02 -0.20875671311E+02  0.34927772512E+02  0.43519795655E+02  0.00000000000E+00 0. -1.
        -12    1    3    3    0    0 -0.33379259836E+02 -0.33103604935E+01  0.31874825147E+03  0.32050831704E+03  0.00000000000E+00 0.  1.
        -13    1    4    4    0    0  0.57494849382E+02  0.52807920282E+01  0.13000469069E+03  0.14224895104E+03  0.00000000000E+00 0. -1.
         13    1    4    4    0    0 -0.16896848653E+02  0.19211460986E+02  0.38905677914E+01  0.25878953715E+02  0.00000000000E+00 0.  1.
         21    1    1    2  502  501 -0.22653431317E+02 -0.30622120928E+00  0.23672117833E+02  0.32766459751E+02  0.00000000000E+00 0.  1.
<scales pt_clust_5="13000.00000" pt_clust_6="13000.00000" pt_clust_7="13000.00000" pt_clust_8="13000.00000" pt_clust_9="22.65550"></scales>
<clustering>
<clus scale="   22.656">  2  9  1 -1</clus>
<clus scale="   80.764">  5  6 -1 -1</clus>
<clus scale="   87.462">  1  5  2 -1</clus>
<clus scale="   89.950">  7  8 -1 -1</clus>
<clus scale="   22.656">  2  5  1 -1</clus>
</clustering>
</event>
<event>
 9    1  0.2951046E-005  0.1171862E+03  0.7546771E-02  0.1251299E+00
          3   -1    0    0  502    0  0.00000000000E+00  0.00000000000E+00  0.15665751155E+03  0.15665751155E+03  0.00000000000E+00 0. -1.
         -4   -1    0    0    0  501 -0.00000000000E+00 -0.00000000000E+00 -0.11545256763E+03  0.11545256763E+03  0.00000000000E+00 0.  1.
         23    2    1    2    0    0  0.14549164972E+02 -0.62704344023E+02 -0.21491359550E+02  0.11502543614E+03  0.92873351734E+02 0.  0.
        -24    2    1    2    0    0 -0.32800201350E+02  0.78523674838E+02  0.44051941534E+02  0.12657294384E+03  0.82694110069E+02 0.  0.
         13    1    4    4    0    0 -0.89496522605E+01  0.22267878674E+02  0.58977627553E+02  0.63673505071E+02  0.00000000000E+00 0. -1.
        -14    1    4    4    0    0 -0.23850549089E+02  0.56255796165E+02 -0.14925686019E+02  0.62899438767E+02  0.00000000000E+00 0.  1.
        -11    1    3    3    0    0 -0.34804662003E+02 -0.35465979643E+02 -0.29956044473E+02  0.58022106215E+02  0.00000000000E+00 0.  1.
         11    1    3    3    0    0  0.49353826976E+02 -0.27238364380E+02  0.84646849234E+01  0.57003329921E+02  0.00000000000E+00 0. -1.
         21    1    1    2  502  501  0.18251036378E+02 -0.15819330815E+02  0.18644361932E+02  0.30511699202E+02  0.00000000000E+00 0. -1.
<scales pt_clust_5="13000.00000" pt_clust_6="13000.00000" pt_clust_7="13000.00000" pt_clust_8="13000.00000" pt_clust_9="24.15267"></scales>
<clustering>
<clus scale="   24.153">  1  9  2 -1</clus>
<clus scale="   82.694">  5  6 -1 -1</clus>
<clus scale="   92.873">  7  8 -1 -1</clus>
<clus scale="  109.295">  1  5  2 -1</clus>
<clus scale="   24.153">  1  5  2 -1</clus>
</clustering>
</event>
<event>
 9    1  0.2951046E-005  0.1084195E+03  0.7546771E-02  0.1267537E+00
          1   -1    0    0  502    0  0.00000000000E+00  0.00000000000E+00  0.48143264449E+03  0.48143264449E+03  0.00000000000E+00 0. -1.
         -2   -1    0    0    0  501 -0.00000000000E+00 -0.00000000000E+00 -0.91592904398E+02  0.91592904398E+02  0.00000000000E+00 0.  1.
         23    2    1    2    0    0  0.43282456050E+02  0.41629700521E+02 -0.42142891683E+02  0.11816966002E+03  0.92637153791E+02 0.  0.
        -24    2    1    2    0    0  0.50983243248E+01 -0.39432349490E+02  0.31734253365E+03  0.33040557605E+03  0.82949731333E+02 0.  0.
         11    1    4    4    0    0  0.36258004384E+02 -0.80307655127E+01  0.22463750541E+03  0.22768650578E+03  0.00000000000E+00 0. -1.
        -12    1    4    4    0    0 -0.31159680059E+02 -0.31401583978E+02  0.92705028236E+02  0.10271907027E+03  0.00000000000E+00 0.  1.
        -13    1    3    3    0    0  0.59499077504E+02  0.56117159717E+02 -0.49031554585E+02  0.95359158886E+02  0.00000000000E+00 0.  1.
         13    1    3    3    0    0 -0.16216621455E+02 -0.14487459196E+02  0.68886629020E+01  0.22810501133E+02  0.00000000000E+00 0. -1.
         21    1    1    2  502  501 -0.48380780375E+02 -0.21973510308E+01  0.11464009812E+03  0.12445031281E+03  0.00000000000E+00 0.  1.
<scales pt_clust_5="13000.00000" pt_clust_6="13000.00000" pt_clust_7="13000.00000" pt_clust_8="13000.00000" pt_clust_9="48.43065"></scales>
<clustering>
<clus scale="   48.431">  1  9  2 -1</clus>
<clus scale="   82.950">  5  6 -1 -1</clus>
<clus scale="   92.637">  7  8 -1 -1</clus>
<clus scale="  100.269">  1  5  2 -1</clus>
<clus scale="   48.431">  1  5  2 -1</clus>
</clustering>
</event>
<event>
 9    1  0.2951046E-005  0.1540797E+03  0.7546771E-02  0.1199576E+00
          1   -1    0    0  502    0  0.00000000000E+00  0.00000000000E+00  0.33806904056E+03  0.33806904056E+03  0.00000000000E+00 0. -1.
         -2   -1    0    0    0  501 -0.00000000000E+00 -0.00000000000E+00 -0.86672098743E+03  0.86672098743E+03  0.00000000000E+00 0.  1.
        -24    2    1    2    0    0  0.23340646134E+02  0.18554573343E+03 -0.71948380102E+03  0.74694346731E+03  0.72770862803E+02 0.  0.
         23    2    1    2    0    0  0.28864099117E+02 -0.11597358316E+03  0.28881237770E+03  0.32682823174E+03  0.95504425777E+02 0.  0.
         13    1    3    3    0    0 -0.13644963615E+02  0.20336415582E+02 -0.41922964857E+02  0.48551929037E+02  0.00000000000E+00 0. -1.
        -14    1    3    3    0    0  0.36985609749E+02  0.16520931785E+03 -0.67756083616E+03  0.69839153828E+03  0.00000000000E+00 0.  1.
        -11    1    4    4    0    0 -0.28966926557E+02 -0.61723925745E+02  0.90958525197E+02  0.11367664294E+03  0.00000000000E+00 0.  1.
         11    1    4    4    0    0  0.57831025674E+02 -0.54249657415E+02  0.19785385250E+03  0.21315158881E+03  0.00000000000E+00 0. -1.
         21    1    1    2  502  501 -0.52204745251E+02 -0.69572150271E+02 -0.97980523559E+02  0.13101832894E+03  0.00000000000E+00 0.  1.
<scales pt_clust_5="13000.00000" pt_clust_6="13000.00000" pt_clust_7="13000.00000" pt_clust_8="13000.00000" pt_clust_9="86.98057"></scales>
<clustering>
<clus scale="   72.771">  5  6 -1 -1</clus>
<clus scale="   86.981">  2  9  1 -1</clus>
<clus scale="   95.504">  7  8 -1 -1</clus>
<clus scale="  141.121">  2  5  1 -1</clus>
<clus scale="  154.080">  1  5  2 -1</clus>
</clustering>
</event>
<event>
 9    1  0.2951046E-005  0.1536313E+03  0.7546771E-02  0.1197977E+00
          1   -1    0    0  502    0  0.00000000000E+00  0.00000000000E+00  0.31538159573E+03  0.31538159573E+03  0.00000000000E+00 0. -1.
         -2   -1    0    0    0  501 -0.00000000000E+00 -0.00000000000E+00 -0.11415017068E+03  0.11415017068E+03  0.00000000000E+00 0.  1.
        -24    2    1    2    0    0  0.70298137589E+02 -0.59949727541E+02  0.70349619117E+02  0.14291300874E+03  0.83302227928E+02 0.  0.
         23    2    1    2    0    0 -0.11819115325E+03  0.10348028751E+03  0.64852736842E+02  0.19416072088E+03  0.93889240322E+02 0.  0.
         13    1    3    3    0    0  0.58878722840E+02 -0.12198405118E+02  0.71977303093E+02  0.93788257533E+02  0.00000000000E+00 0. -1.
        -14    1    3    3    0    0  0.11419414749E+02 -0.47751322424E+02 -0.16276839760E+01  0.49124751211E+02  0.00000000000E+00 0.  1.
        -13    1    4    4    0    0 -0.16830202945E+02  0.62084559126E+02  0.54273454744E+02  0.84162676424E+02  0.00000000000E+00 0. -1.
         13    1    4    4    0    0 -0.10136095030E+03  0.41395728383E+02  0.10579282098E+02  0.10999804446E+03  0.00000000000E+00 0.  1.
         21    1    1    2  502  501  0.47893015659E+02 -0.43530559968E+02  0.66029069098E+02  0.92458036784E+02  0.00000000000E+00 0. -1.
<scales pt_clust_5="13000.00000" pt_clust_6="13000.00000" pt_clust_7="13000.00000" pt_clust_8="13000.00000" pt_clust_9="64.71979"></scales>
<clustering>
<clus scale="   64.720">  1  9  2 -1</clus>
<clus scale="   83.302">  5  6 -1 -1</clus>
<clus scale="   93.889">  7  8 -1 -1</clus>
<clus scale="  147.400">  2  5  1 -1</clus>
<clus scale="   64.720">  1  5  2 -1</clus>
</clustering>
</event>
<event>
 9    1  0.2951046E-005  0.9646036E+02  0.7546771E-02  0.1294394E+00
         -2   -1    0    0    0  501 -0.00000000000E+00  0.00000000000E+00  0.12357111502E+03  0.12357111502E+03  0.00000000000E+00 0.  1.
          1   -1    0    0  502    0  0.00000000000E+00 -0.00000000000E+00 -0.21786729643E+03  0.21786729643E+03  0.00000000000E+00 0. -1.
        -24    2    1    2    0    0  0.12988083192E+02  0.31643300914E+02  0.84075607951E+02  0.12066706753E+03  0.79510027901E+02 0.  0.
         23    2    1    2    0    0  0.88944937131E+01 -0.84582840542E+01 -0.15824387310E+03  0.18306822479E+03  0.91226076144E+02 0.  0.
         11    1    3    3    0    0  0.10022902545E+02 -0.26026897768E+02  0.35921221044E+02  0.45477380137E+02  0.00000000000E+00 0. -1.
        -12    1    3    3    0    0  0.29651806463E+01  0.57670198681E+02  0.48154386907E+02  0.75189687395E+02  0.00000000000E+00 0.  1.
        -13    1    4    4    0    0 -0.35004439526E+02 -0.61703246228E+01 -0.26935484105E+02  0.44597129912E+02  0.00000000000E+00 0.  1.
         13    1    4    4    0    0  0.43898933239E+02 -0.22879594313E+01 -0.13130838899E+03  0.13847109488E+03  0.00000000000E+00 0. -1.
         21    1    1    2  502  501 -0.21882576905E+02 -0.23185016859E+02 -0.20127916262E+02  0.37703119126E+02  0.00000000000E+00 0.  1.
<scales pt_clust_5="13000.00000" pt_clust_6="13000.00000" pt_clust_7="13000.00000" pt_clust_8="13000.00000" pt_clust_9="31.88091"></scales>
<clustering>
<clus scale="   31.881">  2  9  1 -1</clus>
<clus scale="   79.510">  5  6 -1 -1</clus>
<clus scale="   85.465">  1  5  2 -1</clus>
<clus scale="   91.226">  7  8 -1 -1</clus>
<clus scale="   31.881">  2  5  1 -1</clus>
</clustering>
</event>
<event>
 9    1  0.2951046E-005  0.1797132E+03  0.7546771E-02  0.1168161E+00
         -4   -1    0    0    0  501 -0.00000000000E+00  0.00000000000E+00  0.63144713185E+03  0.63144713185E+03  0.00000000000E+00 0.  1.
          3   -1    0    0  502    0  0.00000000000E+00 -0.00000000000E+00 -0.15062766880E+03  0.15062766880E+03  0.00000000000E+00 0. -1.
        -24    2    1    2    0    0 -0.13162550889E+03  0.11770419058E+03  0.48251290696E+03  0.51987892031E+03  0.79220169983E+02 0.  0.
         23    2    1    2    0    0  0.10168383910E+03 -0.71114559489E+02  0.76588428347E+02  0.16630454164E+03  0.79965802116E+02 0.  0.
         13    1    3    3    0    0 -0.51845261060E+02  0.49971977464E+02  0.99481007906E+02  0.12280716820E+03  0.00000000000E+00 0. -1.
        -14    1    3    3    0    0 -0.79780247831E+02  0.67732213118E+02  0.38303189905E+03  0.39707175212E+03  0.00000000000E+00 0.  1.
        -13    1    4    4    0    0  0.84575169282E+02 -0.11717264614E+02  0.38174280485E+02  0.93528226968E+02  0.00000000000E+00 0. -1.
         13    1    4    4    0    0  0.17108669818E+02 -0.59397294875E+02  0.38414147862E+02  0.72776314673E+02  0.00000000000E+00 0.  1.
         21    1    1    2  502  501  0.29941669792E+02 -0.46589631093E+02 -0.78281872254E+02  0.95891338706E+02  0.00000000000E+00 0. -1.
<scales pt_clust_5="13000.00000" pt_clust_6="13000.00000" pt_clust_7="13000.00000" pt_clust_8="13000.00000" pt_clust_9="55.38138"></scales>
<clustering>
<clus scale="   55.381">  2  9  1 -1</clus>
<clus scale="   79.220">  5  6 -1 -1</clus>
<clus scale="   79.966">  7  8 -1 -1</clus>
<clus scale="  179.383">  1  5  2 -1</clus>
<clus scale="   55.381">  2  5  1 -1</clus>
</clustering>
</event>
<event>
 9    1  0.2951046E-005  0.1053596E+03  0.7546771E-02  0.1273334E+00
          1   -1    0    0  502    0  0.00000000000E+00  0.00000000000E+00  0.32279869702E+03  0.32279869702E+03  0.00000000000E+00 0. -1.
         -2   -1    0    0    0  501 -0.00000000000E+00 -0.00000000000E+00 -0.94347253224E+02  0.94347253224E+02  0.00000000000E+00 0.  1.
        -24    2    1    2    0    0  0.49536767360E+02  0.21148433941E+02 -0.47829762538E+02  0.10876370375E+03  0.81490548469E+02 0.  0.
         23    2    1    2    0    0 -0.59681506279E+02  0.46616136790E+01  0.23190805655E+03  0.25605586015E+03  0.90551885639E+02 0.  0.
         11    1    3    3    0    0  0.94963398071E+01 -0.28774481609E+02 -0.26302865748E+01  0.30414957982E+02  0.00000000000E+00 0. -1.
        -12    1    3    3    0    0  0.40040427553E+02  0.49922915550E+02 -0.45199475963E+02  0.78348745765E+02  0.00000000000E+00 0.  1.
        -13    1    4    4    0    0 -0.56692995122E+02 -0.18605072897E+02  0.22319356706E+03  0.23103162729E+03  0.00000000000E+00 0. -1.
         13    1    4    4    0    0 -0.29885111570E+01  0.23266686576E+02  0.87144894898E+01  0.25024232860E+02  0.00000000000E+00 0.  1.
         21    1    1    2  502  501  0.10144738919E+02 -0.25810047620E+02  0.44373149781E+02  0.52326386340E+02  0.00000000000E+00 0. -1.
<scales pt_clust_5="13000.00000" pt_clust_6="13000.00000" pt_clust_7="13000.00000" pt_clust_8="13000.00000" pt_clust_9="27.73219"></scales>
<clustering>
<clus scale="   27.732">  1  9  2 -1</clus>
<clus scale="   81.491">  5  6 -1 -1</clus>
<clus scale="   90.552">  7  8 -1 -1</clus>
<clus scale="   97.682">  2  5  1 -1</clus>
<clus scale="   27.732">  1  5  2 -1</clus>
</clustering>
</event>
<event>
 9    1  0.2951046E-005  0.1425575E+03  0.7546771E-02  0.1213136E+00
         -2   -1    0    0    0  501 -0.00000000000E+00  0.00000000000E+00  0.22437283297E+03  0.22437283297E+03  0.00000000000E+00 0.  1.
          1   -1    0    0  502    0  0.00000000000E+00 -0.00000000000E+00 -0.11101285858E+03  0.11101285858E+03  0.00000000000E+00 0. -1.
        -24    2    1    2    0    0  0.45538863328E+02 -0.10408516257E+03  0.99769389578E+02  0.16781864149E+03  0.72812472793E+02 0.  0.
         23    2    1    2    0    0 -0.24811400994E+02  0.10610743133E+03  0.26470827058E+02  0.14307995334E+03  0.88863804551E+02 0.  0.
         13    1    3    3    0    0  0.40008167454E+02 -0.26093517844E+02  0.10050531354E+02  0.48811251951E+02  0.00000000000E+00 0. -1.
        -14    1    3    3    0    0  0.55306958740E+01 -0.77991644722E+02  0.89718858224E+02  0.11900738954E+03  0.00000000000E+00 0.  1.
        -13    1    4    4    0    0  0.11504274748E+02  0.10069928438E+03  0.71896104274E+01  0.10160897948E+03  0.00000000000E+00 0.  1.
         13    1    4    4    0    0 -0.36315675742E+02  0.54081469458E+01  0.19281216631E+02  0.41470973858E+02  0.00000000000E+00 0. -1.
         21    1    1    2  502  501 -0.20727462334E+02 -0.20222687634E+01 -0.12880242248E+02  0.24487096727E+02  0.00000000000E+00 0. -1.
<scales pt_clust_5="13000.00000" pt_clust_6="13000.00000" pt_clust_7="13000.00000" pt_clust_8="13000.00000" pt_clust_9="20.82588"></scales>
<clustering>
<clus scale="   20.826">  2  9  1 -1</clus>
<clus scale="   72.812">  5  6 -1 -1</clus>
<clus scale="   88.864">  7  8 -1 -1</clus>
<clus scale="  133.145">  1  5  2 -1</clus>
<clus scale="   20.826">  2  5  1 -1</clus>
</clustering>
</event>
<event>
 9    1  0.2951046E-005  0.9430759E+02  0.7546771E-02  0.1301714E+00
         -2   -1    0    0    0  501 -0.00000000000E+00  0.00000000000E+00  0.88067152030E+02  0.88067152030E+02  0.00000000000E+00 0.  1.
          1   -1    0    0  502    0  0.00000000000E+00 -0.00000000000E+00 -0.21665361780E+03  0.21665361780E+03  0.00000000000E+00 0. -1.
        -24    2    1    2    0    0 -0.77963202660E+01  0.50865741580E+01  0.37748750002E+02  0.88540616192E+02  0.79547575341E+02 0.  0.
         23    2    1    2    0    0 -0.27684667163E+02 -0.16230466576E+02 -0.13454427609E+03  0.16725418249E+03  0.94031539863E+02 0.  0.
         11    1    3    3    0    0  0.16616667733E+02  0.35944302142E+02  0.11477244877E+02  0.41229038953E+02  0.00000000000E+00 0. -1.
        -12    1    3    3    0    0 -0.24412987999E+02 -0.30857727984E+02  0.26271505125E+02  0.47311577239E+02  0.00000000000E+00 0.  1.
        -13    1    4    4    0    0 -0.36143064494E+02 -0.40213009772E+02 -0.34754560347E+02  0.64275086393E+02  0.00000000000E+00 0.  1.
         13    1    4    4    0    0  0.84583973313E+01  0.23982543196E+02 -0.99789715748E+02  0.10297909610E+03  0.00000000000E+00 0. -1.
         21    1    1    2  502  501  0.35480987429E+02  0.11143892418E+02 -0.31790939674E+02  0.48925971145E+02  0.00000000000E+00 0. -1.
<scales pt_clust_5="13000.00000" pt_clust_6="13000.00000" pt_clust_7="13000.00000" pt_clust_8="13000.00000" pt_clust_9="37.18988"></scales>
<clustering>
<clus scale="   37.190">  2  9  1 -1</clus>
<clus scale="   79.548">  5  6 -1 -1</clus>
<clus scale="   79.874">  1  5  2 -1</clus>
<clus scale="   94.032">  7  8 -1 -1</clus>
<clus scale="   37.190">  2  5  1 -1</clus>
</clustering>
</event>
<event>
 9    1  0.2951046E-005  0.9652065E+02  0.7546771E-02  0.1293003E+00
          1   -1    0    0  502    0  0.00000000000E+00  0.00000000000E+00  0.13403074289E+03  0.13403074289E+03  0.00000000000E+00 0. -1.
         -2   -1    0    0    0  501 -0.00000000000E+00 -0.00000000000E+00 -0.13244708368E+03  0.13244708368E+03  0.00000000000E+00 0.  1.
        -24    2    1    2    0    0 -0.19345039595E+02 -0.23764371719E+02 -0.74571871333E+02  0.11390079135E+03  0.80457755105E+02 0.  0.
         23    2    1    2    0    0  0.41282199831E+02  0.35682739209E+02  0.71068142249E+02  0.12709825969E+03  0.90143268597E+02 0.  0.
         13    1    3    3    0    0 -0.15719740338E+02 -0.30573956428E+02  0.43055621276E+01  0.34647004390E+02  0.00000000000E+00 0. -1.
        -14    1    3    3    0    0 -0.36252992569E+01  0.68095847093E+01 -0.78877433460E+02  0.79253786963E+02  0.00000000000E+00 0.  1.
        -11    1    4    4    0    0  0.57352724384E+02  0.10559659294E+02  0.77100224893E+02  0.96671019842E+02  0.00000000000E+00 0. -1.
         11    1    4    4    0    0 -0.16070524554E+02  0.25123079914E+02 -0.60320826433E+01  0.30427239849E+02  0.00000000000E+00 0.  1.
         21    1    1    2  502  501 -0.21937160235E+02 -0.11918367489E+02  0.50873882868E+01  0.25478775528E+02  0.00000000000E+00 0.  1.
<scales pt_clust_5="13000.00000" pt_clust_6="13000.00000" pt_clust_7="13000.00000" pt_clust_8="13000.00000" pt_clust_9="24.96571"></scales>
<clustering>
<clus scale="   24.966">  1  9  2 -1</clus>
<clus scale="   80.458">  5  6 -1 -1</clus>
<clus scale="   87.544">  2  5  1 -1</clus>
<clus scale="   90.143">  7  8 -1 -1</clus>
<clus scale="   24.966">  1  5  2 -1</clus>
</clustering>
</event>
<event>
 9    1  0.2951046E-005  0.2750839E+03  0.7546771E-02  0.1098899E+00
          1   -1    0    0  502    0  0.00000000000E+00  0.00000000000E+00  0.57658052774E+03  0.57658052774E+03  0.00000000000E+00 0. -1.
         -2   -1    0    0    0  501 -0.00000000000E+00 -0.00000000000E+00 -0.16045284483E+03  0.16045284483E+03  0.00000000000E+00 0.  1.
        -24    2    1    2    0    0 -0.15885170465E+02 -0.25454087861E+03  0.72975078650E+02  0.27716357394E+03  0.80317414610E+02 0.  0.
         23    2    1    2    0    0 -0.27717164807E+00  0.26917074823E+03  0.32082353615E+03  0.42866336227E+03  0.91496274661E+02 0.  0.
         13    1    3    3    0    0 -0.62219846420E+01 -0.18984926231E+03  0.89078744025E+02  0.20980104415E+03  0.00000000000E+00 0. -1.
        -14    1    3    3    0    0 -0.96631858233E+01 -0.64691616308E+02 -0.16103665375E+02  0.67362529787E+02  0.00000000000E+00 0.  1.
        -11    1    4    4    0    0 -0.62875373338E+01  0.18134634282E+03  0.14589365252E+03  0.23283253000E+03  0.00000000000E+00 0.  1.
         11    1    4    4    0    0  0.60103656858E+01  0.87824405415E+02  0.17492988363E+03  0.19583083227E+03  0.00000000000E+00 0. -1.
         21    1    1    2  502  501  0.16162342113E+02 -0.14629869620E+02  0.22329068112E+02  0.31206436362E+02  0.00000000000E+00 0.  1.
<scales pt_clust_5="13000.00000" pt_clust_6="13000.00000" pt_clust_7="13000.00000" pt_clust_8="13000.00000" pt_clust_9="21.80033"></scales>
<clustering>
<clus scale="   21.800">  1  9  2 -1</clus>
<clus scale="   80.317">  5  6 -1 -1</clus>
<clus scale="   91.496">  7  8 -1 -1</clus>
<clus scale="  271.570">  2  5  1 -1</clus>
<clus scale="   21.800">  1  5  2 -1</clus>
</clustering>
</event>
<event>
 9    1  0.2951046E-005  0.1318265E+03  0.7546771E-02  0.1241351E+00
         -2   -1    0    0    0  501 -0.00000000000E+00  0.00000000000E+00  0.33752742104E+03  0.33752742104E+03  0.00000000000E+00 0.  1.
          1   -1    0    0  502    0  0.00000000000E+00 -0.00000000000E+00 -0.88714286379E+02  0.88714286379E+02  0.00000000000E+00 0. -1.
        -24    2    1    2    0    0  0.17357786095E+02  0.46786109254E+02  0.14137662145E+03  0.16964675254E+03  0.79387900832E+02 0.  0.
         23    2    1    2    0    0  0.83431228628E+02 -0.36676700566E+02  0.46849792516E+02  0.13856370326E+03  0.93268679245E+02 0.  0.
         11    1    3    3    0    0  0.43932723207E+02  0.50454541396E+02  0.98609241708E+02  0.11916177015E+03  0.00000000000E+00 0. -1.
        -12    1    3    3    0    0 -0.26574937112E+02 -0.36684321419E+01  0.42767379743E+02  0.50484982391E+02  0.00000000000E+00 0.  1.
        -11    1    4    4    0    0  0.40692022707E+02  0.15046742696E+02 -0.16374660142E+02  0.46372132500E+02  0.00000000000E+00 0. -1.
         11    1    4    4    0    0  0.42739205921E+02 -0.51723443263E+02  0.63224452658E+02  0.92191570762E+02  0.00000000000E+00 0.  1.
         21    1    1    2  502  501 -0.10078901472E+03 -0.10109408688E+02  0.60586720694E+02  0.11803125161E+03  0.00000000000E+00 0.  1.
<scales pt_clust_5="13000.00000" pt_clust_6="13000.00000" pt_clust_7="13000.00000" pt_clust_8="13000.00000" pt_clust_9="93.16218"></scales>
<clustering>
<clus scale="   79.388">  5  6 -1 -1</clus>
<clus scale="   93.269">  7  8 -1 -1</clus>
<clus scale="   93.769">  1  5  2 -1</clus>
<clus scale="   93.162">  1  9  2 -1</clus>
<clus scale="  131.827">  2  5  1 -1</clus>
</clustering>
</event>
<event>
 9    1  0.2951046E-005  0.9021401E+02  0.7546771E-02  0.1308886E+00
          3   -1    0    0  502    0  0.00000000000E+00  0.00000000000E+00  0.80305991311E+02  0.80305991311E+02  0.00000000000E+00 0. -1.
         -4   -1    0    0    0  501 -0.00000000000E+00 -0.00000000000E+00 -0.22331028552E+03  0.22331028552E+03  0.00000000000E+00 0.  1.
         23    2    1    2    0    0  0.41636884610E+02  0.81993182292E+01 -0.90045791830E+02  0.13425042013E+03  0.90078142178E+02 0.  0.
        -24    2    1    2    0    0  0.74612190737E+01 -0.22743179983E+01  0.18592839113E+02  0.82386986383E+02  0.79881659639E+02 0.  0.
         13    1    4    4    0    0  0.33704836182E+02 -0.53251736078E+01  0.36888180483E+02  0.50250485723E+02  0.00000000000E+00 0. -1.
        -14    1    4    4    0    0 -0.26243617108E+02  0.30508556095E+01 -0.18295341370E+02  0.32136500661E+02  0.00000000000E+00 0.  1.
        -11    1    3    3    0    0 -0.10920268642E+02  0.17306780143E+02  0.85281914699E+01  0.22169956154E+02  0.00000000000E+00 0.  1.
         11    1    3    3    0    0  0.52557153252E+02 -0.91074619139E+01 -0.98573983300E+02  0.11208046397E+03  0.00000000000E+00 0. -1.
         21    1    1    2  502  501 -0.49098103684E+02 -0.59250002309E+01 -0.71551341491E+02  0.86978870321E+02  0.00000000000E+00 0.  1.
<scales pt_clust_5="13000.00000" pt_clust_6="13000.00000" pt_clust_7="13000.00000" pt_clust_8="13000.00000" pt_clust_9="49.45432"></scales>
<clustering>
<clus scale="   49.454">  2  9  1 -1</clus>
<clus scale="   79.882">  5  6 -1 -1</clus>
<clus scale="   80.035">  1  5  2 -1</clus>
<clus scale="   90.078">  7  8 -1 -1</clus>
<clus scale="   80.035">  1  5  2 -1</clus>
</clustering>
</event>
<event>
 9    1  0.2951046E-005  0.1059395E+03  0.7546771E-02  0.1272349E+00
          1   -1    0    0  502    0  0.00000000000E+00  0.00000000000E+00  0.65467998544E+02  0.65467998544E+02  0.00000000000E+00 0. -1.
         -2   -1    0    0    0  501 -0.00000000000E+00 -0.00000000000E+00 -0.26492028187E+03  0.26492028187E+03  0.00000000000E+00 0.  1.
        -24    2    1    2    0    0 -0.36608137610E+02  0.16222955497E+02 -0.16502340157E+03  0.18806242830E+03  0.80817163065E+02 0.  0.
         23    2    1    2    0    0  0.50757059115E+02 -0.33068727108E+02 -0.96888987135E+01  0.10921937599E+03  0.90361372114E+02 0.  0.
         13    1    3    3    0    0 -0.97675322137E+01 -0.29634907521E+02 -0.96075153458E+02  0.10101518471E+03  0.00000000000E+00 0. -1.
        -14    1    3    3    0    0 -0.26840605396E+02  0.45857863017E+02 -0.68948248115E+02  0.87047243590E+02  0.00000000000E+00 0.  1.
        -13    1    4    4    0    0 -0.15908454418E+02 -0.33473970692E+02  0.12252568156E+02  0.39034741734E+02  0.00000000000E+00 0.  1.
         13    1    4    4    0    0  0.66665513532E+02  0.40524358440E+00 -0.21941466870E+02  0.70184634253E+02  0.00000000000E+00 0. -1.
         21    1    1    2  502  501 -0.14148921505E+02  0.16845771611E+02 -0.24739983038E+02  0.33106476129E+02  0.00000000000E+00 0. -1.
<scales pt_clust_5="13000.00000" pt_clust_6="13000.00000" pt_clust_7="13000.00000" pt_clust_8="13000.00000" pt_clust_9="21.99936"></scales>
<clustering>
<clus scale="   21.999">  2  9  1 -1</clus>
<clus scale="   80.817">  5  6 -1 -1</clus>
<clus scale="   90.361">  7  8 -1 -1</clus>
<clus scale="   97.926">  2  5  1 -1</clus>
<clus scale="  105.940">  1  5  2 -1</clus>
</clustering>
</event>
<event>
 9    1  0.2951046E-005  0.1059014E+03  0.7546771E-02  0.1273480E+00
         -2   -1    0    0    0  501 -0.00000000000E+00  0.00000000000E+00  0.10789750021E+03  0.10789750021E+03  0.00000000000E+00 0.  1.
          1   -1    0    0  502    0  0.00000000000E+00 -0.00000000000E+00 -0.42039317681E+03  0.42039317681E+03  0.00000000000E+00 0. -1.
         23    2    1    2    0    0  0.68300087172E+01  0.49712723141E+02  0.61477510883E+02  0.12085299991E+03  0.91148008109E+02 0.  0.
        -24    2    1    2    0    0 -0.29300494670E+02 -0.79425734244E+02 -0.21660395463E+03  0.24571921429E+03  0.79332798152E+02 0.  0.
         11    1    4    4    0    0 -0.38301425066E+02 -0.91396968809E+02 -0.20093680567E+03  0.22404464944E+03  0.00000000000E+00 0. -1.
        -12    1    4    4    0    0  0.90009303962E+01  0.11971234564E+02 -0.15667148959E+02  0.21674564851E+02  0.00000000000E+00 0.  1.
        -13    1    3    3    0    0  0.15060671103E+02 -0.23589236905E+02  0.61718234022E+01  0.28659506554E+02  0.00000000000E+00 0. -1.
         13    1    3    3    0    0 -0.82306623862E+01  0.73301960045E+02  0.55305687481E+02  0.92193493358E+02  0.00000000000E+00 0.  1.
         21    1    1    2  502  501  0.22470485953E+02  0.29713011103E+02 -0.15736923285E+03  0.16171846282E+03  0.00000000000E+00 0.  1.
<scales pt_clust_5="13000.00000" pt_clust_6="13000.00000" pt_clust_7="13000.00000" pt_clust_8="13000.00000" pt_clust_9="37.25300"></scales>
<clustering>
<clus scale="   37.253">  2  9  1 -1</clus>
<clus scale="   79.333">  5  6 -1 -1</clus>
<clus scale="   91.148">  7  8 -1 -1</clus>
<clus scale="   95.921">  2  5  1 -1</clus>
<clus scale="   37.253">  2  5  1 -1</clus>
</clustering>
</event>
<event>
 9    1  0.2951046E-005  0.9854920E+02  0.7546771E-02  0.1290745E+00
         -2   -1    0    0    0  501 -0.00000000000E+00  0.00000000000E+00  0.11001610142E+04  0.11001610142E+04  0.00000000000E+00 0.  1.
          1   -1    0    0  502    0  0.00000000000E+00 -0.00000000000E+00 -0.14584676140E+02  0.14584676140E+02  0.00000000000E+00 0. -1.
        -24    2    1    2    0    0 -0.64343919685E+02 -0.70674745472E+01  0.57286978231E+03  0.58194224832E+03  0.79289997461E+02 0.  0.
         23    2    1    2    0    0  0.16005228459E+02  0.87215805355E+00  0.29507672543E+03  0.30978381494E+03  0.92945199524E+02 0.  0.
         11    1    3    3    0    0 -0.21984658876E+02 -0.21424304933E+02  0.62655344966E+02  0.69771185461E+02  0.00000000000E+00 0. -1.
        -12    1    3    3    0    0 -0.42359260809E+02  0.14356830386E+02  0.51021443735E+03  0.51217106286E+03  0.00000000000E+00 0.  1.
        -11    1    4    4    0    0  0.25855635359E+02 -0.37831383440E+02  0.22024968189E+03  0.22496588591E+03  0.00000000000E+00 0.  1.
         11    1    4    4    0    0 -0.98504068999E+01  0.38703541494E+02  0.74827043540E+02  0.84817929032E+02  0.00000000000E+00 0. -1.
         21    1    1    2  502  501  0.48338691226E+02  0.61953164937E+01  0.21762983037E+03  0.22301962712E+03  0.00000000000E+00 0. -1.
<scales pt_clust_5="13000.00000" pt_clust_6="13000.00000" pt_clust_7="13000.00000" pt_clust_8="13000.00000" pt_clust_9="48.73408"></scales>
<clustering>
<clus scale="   48.734">  1  9  2 -1</clus>
<clus scale="   79.290">  5  6 -1 -1</clus>
<clus scale="   85.791">  1  5  2 -1</clus>
<clus scale="   92.945">  7  8 -1 -1</clus>
<clus scale="   98.549">  2  5  1 -1</clus>
</clustering>
</event>
<event>
 9    1  0.2951046E-005  0.1702627E+03  0.7546771E-02  0.1178534E+00
          1   -1    0    0  502    0  0.00000000000E+00  0.00000000000E+00  0.11276981689E+03  0.11276981689E+03  0.00000000000E+00 0. -1.
         -2   -1    0    0    0  501 -0.00000000000E+00 -0.00000000000E+00 -0.61282888132E+03  0.61282888132E+03  0.00000000000E+00 0.  1.
        -24    2    1    2    0    0 -0.91366424002E+02 -0.10632389448E+03 -0.45301552193E+03  0.48107329211E+03  0.80968236346E+02 0.  0.
         23    2    1    2    0    0  0.12652230058E+03  0.12609756944E+03 -0.33840052566E+02  0.20208408159E+03  0.88228891587E+02 0.  0.
         13    1    3    3    0    0 -0.51989038191E+02 -0.10786484819E+02 -0.99704857780E+02  0.11296135185E+03  0.00000000000E+00 0. -1.
        -14    1    3    3    0    0 -0.39377385811E+02 -0.95537409657E+02 -0.35331066415E+03  0.36811194026E+03  0.00000000000E+00 0.  1.
        -11    1    4    4    0    0  0.94147734039E+02  0.13541087576E+03 -0.34019605440E+02  0.16839606484E+03  0.00000000000E+00 0. -1.
         11    1    4    4    0    0  0.32374566542E+02 -0.93133063180E+01  0.17955287414E+00  0.33688016751E+02  0.00000000000E+00 0.  1.
         21    1    1    2  502  501 -0.35155876579E+02 -0.19773674968E+02 -0.13203489928E+02  0.42441324508E+02  0.00000000000E+00 0. -1.
<scales pt_clust_5="13000.00000" pt_clust_6="13000.00000" pt_clust_7="13000.00000" pt_clust_8="13000.00000" pt_clust_9="40.33527"></scales>
<clustering>
<clus scale="   40.335">  1  9  2 -1</clus>
<clus scale="   80.968">  5  6 -1 -1</clus>
<clus scale="   88.229">  7  8 -1 -1</clus>
<clus scale="  166.616">  2  5  1 -1</clus>
<clus scale="   40.335">  1  5  2 -1</clus>
</clustering>
</event>
<event>
 9    1  0.2951046E-005  0.1326343E+03  0.7546771E-02  0.1232137E+00
         -4   -1    0    0    0  501 -0.00000000000E+00  0.00000000000E+00  0.20826150823E+03  0.20826150823E+03  0.00000000000E+00 0.  1.
          3   -1    0    0  502    0  0.00000000000E+00 -0.00000000000E+00 -0.98662463709E+02  0.98662463709E+02  0.00000000000E+00 0. -1.
         23    2    1    2    0    0 -0.56497025110E+02 -0.34978714080E+02  0.94098811969E+02  0.15931713023E+03  0.11005424702E+03 0.  0.
        -24    2    1    2    0    0  0.81065846216E+02  0.30302898287E+02  0.21848398227E+02  0.12180394592E+03  0.82878897605E+02 0.  0.
         13    1    4    4    0    0  0.62921718966E+02  0.37938097656E+02 -0.19492313645E+02  0.76015736941E+02  0.00000000000E+00 0. -1.
        -14    1    4    4    0    0  0.18144127250E+02 -0.76351993689E+01  0.41340711872E+02  0.45788208975E+02  0.00000000000E+00 0.  1.
        -11    1    3    3    0    0 -0.49718370431E+02 -0.60429869566E+02  0.20133785089E+02  0.80802566767E+02  0.00000000000E+00 0. -1.
         11    1    3    3    0    0 -0.67786546790E+01  0.25451155487E+02  0.73965026880E+02  0.78514563466E+02  0.00000000000E+00 0.  1.
         21    1    1    2  502  501 -0.24568821107E+02  0.46758157928E+01 -0.63481656720E+01  0.25802895793E+02  0.00000000000E+00 0.  1.
<scales pt_clust_5="13000.00000" pt_clust_6="13000.00000" pt_clust_7="13000.00000" pt_clust_8="13000.00000" pt_clust_9="25.00980"></scales>
<clustering>
<clus scale="   25.010">  2  9  1 -1</clus>
<clus scale="   82.879">  5  6 -1 -1</clus>
<clus scale="  110.054">  7  8 -1 -1</clus>
<clus scale="  111.125">  2  5  1 -1</clus>
<clus scale="   25.010">  2  5  1 -1</clus>
</clustering>
</event>
<event>
 9    1  0.2951046E-005  0.9051538E+02  0.7546771E-02  0.1303897E+00
          1   -1    0    0  502    0  0.00000000000E+00  0.00000000000E+00  0.40048797899E+03  0.40048797899E+03  0.00000000000E+00 0. -1.
         -2   -1    0    0    0  501 -0.00000000000E+00 -0.00000000000E+00 -0.18671892550E+03  0.18671892550E+03  0.00000000000E+00 0.  1.
         23    2    1    2    0    0 -0.76331887430E+01 -0.15913082754E+02 -0.16119188061E+03  0.18474134773E+03  0.88515825776E+02 0.  0.
        -24    2    1    2    0    0  0.13296158381E+02  0.53674429429E+02  0.31950142740E+03  0.33513246376E+03  0.84704627714E+02 0.  0.
         13    1    4    4    0    0 -0.13955154684E+02  0.56814926800E+02  0.28556177135E+03  0.29149306596E+03  0.00000000000E+00 0. -1.
        -14    1    4    4    0    0  0.27251313065E+02 -0.31404973711E+01  0.33939656051E+02  0.43639397801E+02  0.00000000000E+00 0.  1.
        -13    1    3    3    0    0  0.28077899807E+01 -0.50586230308E+02 -0.68288774409E+02  0.85030624434E+02  0.00000000000E+00 0. -1.
         13    1    3    3    0    0 -0.10440978724E+02  0.34673147555E+02 -0.92903106205E+02  0.99710723298E+02  0.00000000000E+00 0.  1.
         21    1    1    2  502  501 -0.56629696379E+01 -0.37761346675E+02  0.55459506704E+02  0.67333092991E+02  0.00000000000E+00 0.  1.
<scales pt_clust_5="13000.00000" pt_clust_6="13000.00000" pt_clust_7="13000.00000" pt_clust_8="13000.00000" pt_clust_9="38.18362"></scales>
<clustering>
<clus scale="   38.184">  1  9  2 -1</clus>
<clus scale="   84.705">  5  6 -1 -1</clus>
<clus scale="   86.792">  1  5  2 -1</clus>
<clus scale="   88.516">  7  8 -1 -1</clus>
<clus scale="   38.184">  1  5  2 -1</clus>
</clustering>
</event>
<event>
 9    1  0.2951046E-005  0.1018927E+03  0.7546771E-02  0.1279865E+00
          3   -1    0    0  502    0  0.00000000000E+00  0.00000000000E+00  0.71185291740E+03  0.71185291740E+03  0.00000000000E+00 0. -1.
         -4   -1    0    0    0  501 -0.00000000000E+00 -0.00000000000E+00 -0.34883390775E+02  0.34883390775E+02  0.00000000000E+00 0.  1.
         23    2    1    2    0    0 -0.20068770286E+02 -0.43862090482E+02  0.64400825000E+02  0.11966444235E+03  0.88574680248E+02 0.  0.
        -24    2    1    2    0    0  0.49643911837E+02  0.43314862852E+02  0.46413336336E+03  0.47571785001E+03  0.80913524880E+02 0.  0.
         13    1    4    4    0    0  0.40234886348E+02 -0.15653494563E+02  0.23490265063E+03  0.23883704328E+03  0.00000000000E+00 0. -1.
        -14    1    4    4    0    0  0.94090254887E+01  0.58968357416E+02  0.22923071274E+03  0.23688080673E+03  0.00000000000E+00 0.  1.
        -11    1    3    3    0    0 -0.29122109214E+02 -0.17616328068E+02  0.80620408473E+02  0.87510470928E+02  0.00000000000E+00 0. -1.
         11    1    3    3    0    0  0.90533389278E+01 -0.26245762415E+02 -0.16219583473E+02  0.32153971427E+02  0.00000000000E+00 0.  1.
         21    1    1    2  502  501 -0.29575141551E+02  0.54722763008E+00  0.14843533826E+03  0.15135401580E+03  0.00000000000E+00 0.  1.
<scales pt_clust_5="13000.00000" pt_clust_6="13000.00000" pt_clust_7="13000.00000" pt_clust_8="13000.00000" pt_clust_9="29.58020"></scales>
<clustering>
<clus scale="   29.580">  1  9  2 -1</clus>
<clus scale="   80.914">  5  6 -1 -1</clus>
<clus scale="   88.575">  7  8 -1 -1</clus>
<clus scale="   95.308">  1  5  2 -1</clus>
<clus scale="   29.580">  1  5  2 -1</clus>
</clustering>
</event>
<event>
 9    1  0.2951046E-005  0.2076163E+03  0.7546771E-02  0.1154940E+00
          1   -1    0    0  502    0  0.00000000000E+00  0.00000000000E+00  0.38761053197E+03  0.38761053197E+03  0.00000000000E+00 0. -1.
         -2   -1    0    0    0  501 -0.00000000000E+00 -0.00000000000E+00 -0.12378789762E+04  0.12378789762E+04  0.00000000000E+00 0.  1.
         23    2    1    2    0    0  0.30799863698E+02 -0.12490364097E+03 -0.17040377498E+03  0.23247589588E+03  0.91967627509E+02 0.  0.
        -24    2    1    2    0    0  0.64377925010E+02  0.28783802718E+03 -0.98656943148E+03  0.10329105204E+04  0.81176676570E+02 0.  0.
         13    1    4    4    0    0  0.40746466854E+02  0.27215503164E+03 -0.85033529329E+03  0.89375541778E+03  0.00000000000E+00 0. -1.
        -14    1    4    4    0    0  0.23631458157E+02  0.15682995541E+02 -0.13623413820E+03  0.13915510258E+03  0.00000000000E+00 0.  1.
        -11    1    3    3    0    0 -0.22040950773E+02 -0.62686489615E+02 -0.11815492975E+03  0.13555805736E+03  0.00000000000E+00 0. -1.
         11    1    3    3    0    0  0.52840814471E+02 -0.62217151355E+02 -0.52248845227E+02  0.96917838524E+02  0.00000000000E+00 0.  1.
         21    1    1    2  502  501 -0.95177788708E+02 -0.16293438622E+03  0.30670476220E+03  0.36010309195E+03  0.00000000000E+00 0. -1.
<scales pt_clust_5="13000.00000" pt_clust_6="13000.00000" pt_clust_7="13000.00000" pt_clust_8="13000.00000" pt_clust_9="191.08868"></scales>
<clustering>
<clus scale="   81.177">  5  6 -1 -1</clus>
<clus scale="   91.968">  7  8 -1 -1</clus>
<clus scale="  158.138">  2  7  1 -1</clus>
<clus scale="  191.089">  1  9  2 -1</clus>
<clus scale="  191.089">  1  5  2 -1</clus>
</clustering>
</event>
<event>
 9    1  0.2951046E-005  0.1455564E+03  0.7546771E-02  0.1230394E+00
          1   -1    0    0  502    0  0.00000000000E+00  0.00000000000E+00  0.43879657629E+03  0.43879657629E+03  0.00000000000E+00 0. -1.
         -2   -1    0    0    0  501 -0.00000000000E+00 -0.00000000000E+00 -0.70484882733E+03  0.70484882733E+03  0.00000000000E+00 0.  1.
        -24    2    1    2    0    0  0.15395147383E+02  0.12058610707E+03 -0.63605354512E+03  0.65256623493E+03  0.80626043766E+02 0.  0.
         23    2    1    2    0    0  0.17069349473E+02 -0.20860602025E+02 -0.18138481110E+02  0.89019962845E+02  0.82879562497E+02 0.  0.
         13    1    3    3    0    0 -0.31432608692E+02  0.50273990830E+02 -0.20954727982E+03  0.21777406991E+03  0.00000000000E+00 0. -1.
        -14    1    3    3    0    0  0.46827756074E+02  0.70312116236E+02 -0.42650626530E+03  0.43479216503E+03  0.00000000000E+00 0.  1.
        -13    1    4    4    0    0  0.41300402509E+02 -0.27427648356E+02 -0.33270532256E+02  0.59707013477E+02  0.00000000000E+00 0. -1.
         13    1    4    4    0    0 -0.24231053036E+02  0.65670463305E+01  0.15132051147E+02  0.29312949368E+02  0.00000000000E+00 0.  1.
         21    1    1    2  502  501 -0.32464496856E+02 -0.99725505041E+02  0.38813977519E+03  0.40205920584E+03  0.00000000000E+00 0. -1.
<scales pt_clust_5="13000.00000" pt_clust_6="13000.00000" pt_clust_7="13000.00000" pt_clust_8="13000.00000" pt_clust_9="121.18623"></scales>
<clustering>
<clus scale="   80.626">  5  6 -1 -1</clus>
<clus scale="   82.880">  7  8 -1 -1</clus>
<clus scale="   87.152">  1  7  2 -1</clus>
<clus scale="  121.186">  1  9  2 -1</clus>
<clus scale="   87.152">  1  5  2 -1</clus>
</clustering>
</event>
<event>
 9    1  0.2951046E-005  0.1034682E+03  0.7546771E-02  0.1278149E+00
          3   -1    0    0  502    0  0.00000000000E+00  0.00000000000E+00  0.89106249074E+02  0.89106249074E+02  0.00000000000E+00 0. -1.
         -4   -1    0    0    0  501 -0.00000000000E+00 -0.00000000000E+00 -0.34757553062E+03  0.34757553062E+03  0.00000000000E+00 0.  1.
        -24    2    1    2    0    0  0.42771122813E+02  0.26210986405E+02 -0.28847557800E+03  0.30355484517E+03  0.80068721547E+02 0.  0.
         23    2    1    2    0    0 -0.26532222529E+02 -0.38696834857E+02  0.73777459499E+01  0.10260399901E+03  0.90949137528E+02 0.  0.
         11    1    3    3    0    0  0.61633890364E+02 -0.43066038293E+00 -0.19793820148E+03  0.20731245384E+03  0.00000000000E+00 0. -1.
        -12    1    3    3    0    0 -0.18862767551E+02  0.26641646788E+02 -0.90537376517E+02  0.96242391335E+02  0.00000000000E+00 0.  1.
        -13    1    4    4    0    0 -0.49338342111E+02 -0.48284083604E+01 -0.19986418683E+02  0.53451309258E+02  0.00000000000E+00 0.  1.
         13    1    4    4    0    0  0.22806119582E+02 -0.33868426497E+02  0.27364164633E+02  0.49152689752E+02  0.00000000000E+00 0. -1.
         21    1    1    2  502  501 -0.16238900284E+02  0.12485848452E+02  0.22628550507E+02  0.30522935508E+02  0.00000000000E+00 0.  1.
<scales pt_clust_5="13000.00000" pt_clust_6="13000.00000" pt_clust_7="13000.00000" pt_clust_8="13000.00000" pt_clust_9="20.48410"></scales>
<clustering>
<clus scale="   20.484">  1  9  2 -1</clus>
<clus scale="   80.069">  5  6 -1 -1</clus>
<clus scale="   90.949">  7  8 -1 -1</clus>
<clus scale="   94.047">  2  5  1 -1</clus>
<clus scale="   20.484">  1  5  2 -1</clus>
</clustering>
</event>
<event>
 9    1  0.2951046E-005  0.1279406E+03  0.7546771E-02  0.1250651E+00
         -2   -1    0    0    0  501 -0.00000000000E+00  0.00000000000E+00  0.17049925310E+03  0.17049925310E+03  0.00000000000E+00 0.  1.
          1   -1    0    0  502    0  0.00000000000E+00 -0.00000000000E+00 -0.40122749981E+03  0.40122749981E+03  0.00000000000E+00 0. -1.
         23    2    1    2    0    0 -0.16799778232E+02 -0.27698406182E+02  0.12308278985E+03  0.14962541349E+03  0.78669924052E+02 0.  0.
        -24    2    1    2    0    0  0.10470072363E+03 -0.14131416795E+02 -0.21540845478E+03  0.25289263711E+03  0.79949640667E+02 0.  0.
         13    1    4    4    0    0  0.11605642389E+03 -0.50775067451E+01 -0.20253508871E+03  0.23348519602E+03  0.00000000000E+00 0. -1.
        -14    1    4    4    0    0 -0.11355700262E+02 -0.90539100497E+01 -0.12873366075E+02  0.19407441092E+02  0.00000000000E+00 0.  1.
        -11    1    3    3    0    0  0.23959768613E+02 -0.32353877952E+02  0.83105122245E+02  0.92343409477E+02  0.00000000000E+00 0.  1.
         11    1    3    3    0    0 -0.40759546845E+02  0.46554717695E+01  0.39977667610E+02  0.57282004015E+02  0.00000000000E+00 0. -1.
         21    1    1    2  502  501 -0.87900945397E+02  0.41829822977E+02 -0.13840258179E+03  0.16920870231E+03  0.00000000000E+00 0. -1.
<scales pt_clust_5="13000.00000" pt_clust_6="13000.00000" pt_clust_7="13000.00000" pt_clust_8="13000.00000" pt_clust_9="99.88422"></scales>
<clustering>
<clus scale="   78.670">  7  8 -1 -1</clus>
<clus scale="   79.950">  5  6 -1 -1</clus>
<clus scale="   85.079">  1  7  2 -1</clus>
<clus scale="   99.884">  1  9  2 -1</clus>
<clus scale="  127.941">  2  5  1 -1</clus>
</clustering>
</event>
<event>
 9    1  0.2951046E-005  0.1410641E+03  0.7546771E-02  0.1213093E+00
         -2   -1    0    0    0  501 -0.00000000000E+00  0.00000000000E+00  0.70716365674E+02  0.70716365674E+02  0.00000000000E+00 0.  1.
          1   -1    0    0  502    0  0.00000000000E+00 -0.00000000000E+00 -0.34273266027E+03  0.34273266027E+03  0.00000000000E+00 0. -1.
        -24    2    1    2    0    0 -0.76656413058E+02  0.74351874406E+02 -0.92096963243E+02  0.16377706911E+03  0.83286678619E+02 0.  0.
         23    2    1    2    0    0  0.58608337856E+02 -0.96762408832E+02 -0.15599976404E+03  0.21225390274E+03  0.88982536604E+02 0.  0.
         11    1    3    3    0    0 -0.28769063232E+02  0.45919350878E+01 -0.70746627480E+02  0.76510327191E+02  0.00000000000E+00 0. -1.
        -12    1    3    3    0    0 -0.47887349825E+02  0.69759939319E+02 -0.21350335763E+02  0.87266741914E+02  0.00000000000E+00 0.  1.
        -13    1    4    4    0    0  0.29458037151E+02 -0.97377364317E+02 -0.75655701290E+02  0.12678293328E+03  0.00000000000E+00 0.  1.
         13    1    4    4    0    0  0.29150300705E+02  0.61495548532E+00 -0.80344062751E+02  0.85470969462E+02  0.00000000000E+00 0. -1.
         21    1    1    2  502  501  0.18048075202E+02  0.22410534425E+02 -0.23919567312E+02  0.37418054093E+02  0.00000000000E+00 0.  1.
<scales pt_clust_5="13000.00000" pt_clust_6="13000.00000" pt_clust_7="13000.00000" pt_clust_8="13000.00000" pt_clust_9="28.77438"></scales>
<clustering>
<clus scale="   28.774">  1  9  2 -1</clus>
<clus scale="   83.287">  5  6 -1 -1</clus>
<clus scale="   88.983">  7  8 -1 -1</clus>
<clus scale="  137.542">  1  5  2 -1</clus>
<clus scale="  141.064">  2  5  1 -1</clus>
</clustering>
</event>
<event>
 9    1  0.2951046E-005  0.1899507E+03  0.7546771E-02  0.1159688E+00
          1   -1    0    0  502    0  0.00000000000E+00  0.00000000000E+00  0.61418574228E+02  0.61418574228E+02  0.00000000000E+00 0. -1.
         -2   -1    0    0    0  501 -0.00000000000E+00 -0.00000000000E+00 -0.10248815143E+04  0.10248815143E+04  0.00000000000E+00 0.  1.
        -24    2    1    2    0    0 -0.15798741558E+03 -0.48439935909E+02 -0.72651612442E+03  0.74937730233E+03  0.80213535839E+02 0.  0.
         23    2    1    2    0    0  0.15618946408E+03  0.69581198643E+02 -0.24651322153E+03  0.31364829929E+03  0.91486585701E+02 0.  0.
         13    1    3    3    0    0  0.96545189786E+00 -0.20800586664E+02 -0.11871839076E+03  0.12053071313E+03  0.00000000000E+00 0. -1.
        -14    1    3    3    0    0 -0.15895286747E+03 -0.27639349245E+02 -0.60779773366E+03  0.62884658920E+03  0.00000000000E+00 0.  1.
        -13    1    4    4    0    0  0.32568708566E+02  0.54484245804E+02 -0.12208978129E+03  0.13760511805E+03  0.00000000000E+00 0.  1.
         13    1    4    4    0    0  0.12362075551E+03  0.15096952839E+02 -0.12442344024E+03  0.17604318123E+03  0.00000000000E+00 0. -1.
         21    1    1    2  502  501  0.17979514975E+01 -0.21141262734E+02  0.95664058778E+01  0.23274486912E+02  0.00000000000E+00 0. -1.
<scales pt_clust_5="13000.00000" pt_clust_6="13000.00000" pt_clust_7="13000.00000" pt_clust_8="13000.00000" pt_clust_9="21.21758"></scales>
<clustering>
<clus scale="   21.218">  1  9  2 -1</clus>
<clus scale="   80.214">  5  6 -1 -1</clus>
<clus scale="   91.487">  7  8 -1 -1</clus>
<clus scale="  184.785">  2  5  1 -1</clus>
<clus scale="   21.218">  1  5  2 -1</clus>
</clustering>
</event>
<event>
 9    1  0.2951046E-005  0.1004411E+03  0.7546771E-02  0.1285565E+00
         -4   -1    0    0    0  501 -0.00000000000E+00  0.00000000000E+00  0.10434251082E+03  0.10434251082E+03  0.00000000000E+00 0.  1.
          3   -1    0    0  502    0  0.00000000000E+00 -0.00000000000E+00 -0.14603758379E+03  0.14603758379E+03  0.00000000000E+00 0. -1.
        -24    2    1    2    0    0  0.15874627205E+02 -0.19318674224E+02  0.28837140060E+02  0.87238380863E+02  0.78445774175E+02 0.  0.
         23    2    1    2    0    0 -0.45010223394E+00  0.53845108910E+02 -0.67107296880E+02  0.12517171621E+03  0.90912435333E+02 0.  0.
         11    1    3    3    0    0  0.17096076239E+02 -0.17725141729E+02 -0.23986000681E+02  0.34377095583E+02  0.00000000000E+00 0. -1.
        -12    1    3    3    0    0 -0.12214490342E+01 -0.15935324954E+01  0.52823140742E+02  0.52861285279E+02  0.00000000000E+00 0.  1.
        -13    1    4    4    0    0  0.50660210709E+01 -0.25563499866E+02 -0.16227391898E+02  0.30699924148E+02  0.00000000000E+00 0.  1.
         13    1    4    4    0    0 -0.55161233048E+01  0.79408608775E+02 -0.50879904982E+02  0.94471792060E+02  0.00000000000E+00 0. -1.
         21    1    1    2  502  501 -0.15424524971E+02 -0.34526434685E+02 -0.34249161412E+01  0.37969997541E+02  0.00000000000E+00 0.  1.
<scales pt_clust_5="13000.00000" pt_clust_6="13000.00000" pt_clust_7="13000.00000" pt_clust_8="13000.00000" pt_clust_9="37.81522"></scales>
<clustering>
<clus scale="   37.815">  1  9  2 -1</clus>
<clus scale="   78.446">  5  6 -1 -1</clus>
<clus scale="   89.315">  1  5  2 -1</clus>
<clus scale="   90.912">  7  8 -1 -1</clus>
<clus scale="  100.441">  2  5  1 -1</clus>
</clustering>
</event>
<event>
 9    1  0.3055173E-005  0.2718913E+03  0.7546771E-02  0.1100651E+00
         -2   -1    0    0    0  501 -0.00000000000E+00  0.00000000000E+00  0.78477750093E+03  0.78477750093E+03  0.00000000000E+00 0.  1.
          1   -1    0    0  502    0  0.00000000000E+00 -0.00000000000E+00 -0.55516368576E+03  0.55516368576E+03  0.00000000000E+00 0. -1.
         23    2    1    2    0    0 -0.12796172582E+03 -0.22458062890E+03  0.72221170997E+03  0.77232029907E+03  0.89878964095E+02 0.  0.
        -24    2    1    2    0    0  0.91070147530E+02  0.20639131667E+03 -0.39695090267E+03  0.46350467019E+03  0.79846182072E+02 0.  0.
         11    1    4    4    0    0  0.10159225038E+03  0.17336712119E+03 -0.36346086145E+03  0.41530824920E+03  0.00000000000E+00 0. -1.
        -12    1    4    4    0    0 -0.10522102852E+02  0.33024195480E+02 -0.33490041220E+02  0.48196420992E+02  0.00000000000E+00 0.  1.
        -13    1    3    3    0    0 -0.77599569853E+02 -0.99267144664E+02  0.46549035655E+03  0.48224156944E+03  0.00000000000E+00 0.  1.
         13    1    3    3    0    0 -0.50362155968E+02 -0.12531348423E+03  0.25672135342E+03  0.29007872963E+03  0.00000000000E+00 0. -1.
         21    1    1    2  502  501  0.36891578291E+02  0.18189312226E+02 -0.95646992128E+02  0.10411621743E+03  0.00000000000E+00 0. -1.
<scales pt_clust_5="13000.00000" pt_clust_6="13000.00000" pt_clust_7="13000.00000" pt_clust_8="13000.00000" pt_clust_9="41.13198"></scales>
<clustering>
<clus scale="   41.132">  2  9  1 -1</clus>
<clus scale="   79.846">  5  6 -1 -1</clus>
<clus scale="   89.879">  7  8 -1 -1</clus>
<clus scale="  268.742">  2  5  1 -1</clus>
<clus scale="   41.132">  2  5  1 -1</clus>
</clustering>
</event>
<event>
 9    1  0.2951046E-005  0.9195273E+02  0.7546771E-02  0.1302635E+00
         -2   -1    0    0    0  501 -0.00000000000E+00  0.00000000000E+00  0.57010904697E+03  0.57010904697E+03  0.00000000000E+00 0.  1.
          1   -1    0    0  502    0  0.00000000000E+00 -0.00000000000E+00 -0.33402316350E+02  0.33402316350E+02  0.00000000000E+00 0. -1.
        -24    2    1    2    0    0 -0.11253452945E+02 -0.89453809311E-02  0.41185746455E+03  0.42052124756E+03  0.84171897126E+02 0.  0.
         23    2    1    2    0    0 -0.72307987369E+00  0.19783560270E+02  0.12914523976E+03  0.15947569205E+03  0.91444471124E+02 0.  0.
         11    1    3    3    0    0 -0.19544713023E+02 -0.32127180781E+02  0.98856330543E+02  0.10576731839E+03  0.00000000000E+00 0. -1.
        -12    1    3    3    0    0  0.82912600782E+01  0.32118235400E+02  0.31300113400E+03  0.31475392917E+03  0.00000000000E+00 0.  1.
        -13    1    4    4    0    0 -0.40565792931E+02  0.25288563112E+01  0.27859621692E+02  0.49276132064E+02  0.00000000000E+00 0. -1.
         13    1    4    4    0    0  0.39842713058E+02  0.17254703959E+02  0.10128561807E+03  0.11019955998E+03  0.00000000000E+00 0.  1.
         21    1    1    2  502  501  0.11976532819E+02 -0.19774614889E+02 -0.42959736907E+01  0.23514423708E+02  0.00000000000E+00 0. -1.
<scales pt_clust_5="13000.00000" pt_clust_6="13000.00000" pt_clust_7="13000.00000" pt_clust_8="13000.00000" pt_clust_9="23.11867"></scales>
<clustering>
<clus scale="   23.119">  2  9  1 -1</clus>
<clus scale="   84.172">  5  6 -1 -1</clus>
<clus scale="   84.724">  1  5  2 -1</clus>
<clus scale="   91.444">  7  8 -1 -1</clus>
<clus scale="   23.119">  2  5  1 -1</clus>
</clustering>
</event>
<event>
 9    1  0.2951046E-005  0.1079784E+03  0.7546771E-02  0.1271777E+00
          1   -1    0    0  502    0  0.00000000000E+00  0.00000000000E+00  0.39743348179E+03  0.39743348179E+03  0.00000000000E+00 0. -1.
         -2   -1    0    0    0  501 -0.00000000000E+00 -0.00000000000E+00 -0.35968610924E+02  0.35968610924E+02  0.00000000000E+00 0.  1.
         23    2    1    2    0    0  0.45519443544E+02  0.27788497055E+02  0.13151653794E+03  0.16899341393E+03  0.91749408135E+02 0.  0.
        -24    2    1    2    0    0 -0.64805578758E+02 -0.36370475113E+01  0.15979640597E+03  0.18775008250E+03  0.74176889710E+02 0.  0.
         13    1    4    4    0    0 -0.58499301776E+02 -0.11655489242E+02  0.16559879342E+03  0.17601414465E+03  0.00000000000E+00 0. -1.
        -14    1    4    4    0    0 -0.63062769818E+01  0.80184417309E+01 -0.58023874459E+01  0.11735937851E+02  0.00000000000E+00 0.  1.
        -13    1    3    3    0    0 -0.98074588523E+01 -0.21283870166E+02  0.66553406021E+02  0.70558806902E+02  0.00000000000E+00 0. -1.
         13    1    3    3    0    0  0.55326902396E+02  0.49072367221E+02  0.64963131916E+02  0.98434607033E+02  0.00000000000E+00 0.  1.
         21    1    1    2  502  501  0.19286135214E+02 -0.24151449544E+02  0.70151926964E+02  0.76658596278E+02  0.00000000000E+00 0.  1.
<scales pt_clust_5="13000.00000" pt_clust_6="13000.00000" pt_clust_7="13000.00000" pt_clust_8="13000.00000" pt_clust_9="30.90708"></scales>
<clustering>
<clus scale="   30.907">  1  9  2 -1</clus>
<clus scale="   74.177">  5  6 -1 -1</clus>
<clus scale="   91.749">  7  8 -1 -1</clus>
<clus scale="   93.507">  1  5  2 -1</clus>
<clus scale="   30.907">  1  5  2 -1</clus>
</clustering>
</event>
<event>
 9    1  0.2951046E-005  0.9294078E+02  0.7546771E-02  0.1302808E+00
          1   -1    0    0  502    0  0.00000000000E+00  0.00000000000E+00  0.13132654806E+03  0.13132654806E+03  0.00000000000E+00 0. -1.
         -2   -1    0    0    0  501 -0.00000000000E+00 -0.00000000000E+00 -0.16192977146E+03  0.16192977146E+03  0.00000000000E+00 0.  1.
         23    2    1    2    0    0  0.17350020925E+02  0.23746806108E+01 -0.11750806043E+03  0.14998456937E+03  0.91545422876E+02 0.  0.
        -24    2    1    2    0    0 -0.92121398705E+01  0.23244229916E+02  0.50497191072E+02  0.98016138686E+02  0.80199996205E+02 0.  0.
         13    1    4    4    0    0 -0.37144955144E+02 -0.86676840460E+01  0.10127972625E+02  0.39464569792E+02  0.00000000000E+00 0. -1.
        -14    1    4    4    0    0  0.27932815274E+02  0.31911913962E+02  0.40369218447E+02  0.58551568893E+02  0.00000000000E+00 0.  1.
        -11    1    3    3    0    0 -0.21617392672E+02  0.29385322521E+02 -0.20102615087E+02  0.41652418645E+02  0.00000000000E+00 0. -1.
         11    1    3    3    0    0  0.38967413597E+02 -0.27010641910E+02 -0.97405445339E+02  0.10833215072E+03  0.00000000000E+00 0.  1.
         21    1    1    2  502  501 -0.81378810549E+01 -0.25618910527E+02  0.36407645955E+02  0.45255611460E+02  0.00000000000E+00 0.  1.
<scales pt_clust_5="13000.00000" pt_clust_6="13000.00000" pt_clust_7="13000.00000" pt_clust_8="13000.00000" pt_clust_9="26.88036"></scales>
<clustering>
<clus scale="   26.880">  1  9  2 -1</clus>
<clus scale="   80.200">  5  6 -1 -1</clus>
<clus scale="   81.789">  1  5  2 -1</clus>
<clus scale="   91.545">  7  8 -1 -1</clus>
<clus scale="   26.880">  1  5  2 -1</clus>
</clustering>
</event>
<event>
 9    1  0.2951046E-005  0.1610926E+03  0.7546771E-02  0.1189528E+00
         -2   -1    0    0    0  501 -0.00000000000E+00  0.00000000000E+00  0.16885043133E+03  0.16885043133E+03  0.00000000000E+00 0.  1.
          1   -1    0    0  502    0  0.00000000000E+00 -0.00000000000E+00 -0.71407438757E+03  0.71407438757E+03  0.00000000000E+00 0. -1.
        -24    2    1    2    0    0  0.81159141988E+02  0.10127698128E+03  0.11087827720E+03  0.18895483663E+03  0.81031504145E+02 0.  0.
         23    2    1    2    0    0 -0.11787596037E+03 -0.94561334203E+02 -0.60539582550E+03  0.63100678290E+03  0.93962048610E+02 0.  0.
         13    1    3    3    0    0 -0.16313682671E+02  0.20133821961E+02  0.23093280348E+02  0.34710324491E+02  0.00000000000E+00 0. -1.
        -14    1    3    3    0    0  0.97472824659E+02  0.81143159320E+02  0.87784996854E+02  0.15424451214E+03  0.00000000000E+00 0.  1.
        -11    1    4    4    0    0 -0.87691813825E+02 -0.11243982714E+03 -0.47135296418E+03  0.49244917076E+03  0.00000000000E+00 0. -1.
         11    1    4    4    0    0 -0.30184146542E+02  0.17878492941E+02 -0.13404286131E+03  0.13855761214E+03  0.00000000000E+00 0.  1.
         21    1    1    2  502  501  0.36716818380E+02 -0.67156470775E+01 -0.50706407953E+02  0.62963199371E+02  0.00000000000E+00 0. -1.
<scales pt_clust_5="13000.00000" pt_clust_6="13000.00000" pt_clust_7="13000.00000" pt_clust_8="13000.00000" pt_clust_9="37.32592"></scales>
<clustering>
<clus scale="   37.326">  2  9  1 -1</clus>
<clus scale="   81.032">  5  6 -1 -1</clus>
<clus scale="   93.962">  7  8 -1 -1</clus>
<clus scale="  153.909">  1  5  2 -1</clus>
<clus scale="   37.326">  2  5  1 -1</clus>
</clustering>
</event>
<event>
 9    1  0.2951046E-005  0.1084571E+03  0.7546771E-02  0.1267434E+00
         -2   -1    0    0    0  501 -0.00000000000E+00  0.00000000000E+00  0.72669507479E+02  0.72669507479E+02  0.00000000000E+00 0.  1.
          1   -1    0    0  502    0  0.00000000000E+00 -0.00000000000E+00 -0.39683120183E+03  0.39683120183E+03  0.00000000000E+00 0. -1.
         23    2    1    2    0    0  0.49635062174E+02  0.48842641583E+01 -0.30363599485E+02  0.10524829325E+03  0.87565744589E+02 0.  0.
        -24    2    1    2    0    0  0.56977564972E+02  0.13268210871E+02 -0.96352272012E+02  0.13912885536E+03  0.81551148017E+02 0.  0.
         13    1    4    4    0    0 -0.67104728171E+01 -0.21559007653E+02 -0.44570652337E+02  0.49963629834E+02  0.00000000000E+00 0. -1.
        -14    1    4    4    0    0  0.63688037789E+02  0.34827218524E+02 -0.51781619675E+02  0.89165225529E+02  0.00000000000E+00 0.  1.
        -11    1    3    3    0    0  0.27653119384E+02 -0.32419890122E+02 -0.42599786972E+02  0.60253515559E+02  0.00000000000E+00 0.  1.
         11    1    3    3    0    0  0.21981942790E+02  0.37304154280E+02  0.12236187488E+02  0.44994777693E+02  0.00000000000E+00 0. -1.
         21    1    1    2  502  501 -0.10661262715E+03 -0.18152475029E+02 -0.19744582285E+03  0.22512356069E+03  0.00000000000E+00 0. -1.
<scales pt_clust_5="13000.00000" pt_clust_6="13000.00000" pt_clust_7="13000.00000" pt_clust_8="13000.00000" pt_clust_9="63.99364"></scales>
<clustering>
<clus scale="   81.551">  5  6 -1 -1</clus>
<clus scale="   87.566">  7  8 -1 -1</clus>
<clus scale="  100.365">  2  5  1 -1</clus>
<clus scale="   63.994">  2  9  1 -1</clus>
<clus scale="  100.365">  2  5  1 -1</clus>
</clustering>
</event>
<event>
 9    1  0.2951046E-005  0.9378918E+02  0.7546771E-02  0.1299116E+00
          1   -1    0    0  502    0  0.00000000000E+00  0.00000000000E+00  0.38910119202E+03  0.38910119202E+03  0.00000000000E+00 0. -1.
         -2   -1    0    0    0  501 -0.00000000000E+00 -0.00000000000E+00 -0.11900901518E+03  0.11900901518E+03  0.00000000000E+00 0.  1.
        -24    2    1    2    0    0 -0.30263420222E+02  0.63384079572E+01 -0.90260818841E+02  0.12418805281E+03  0.79495956030E+02 0.  0.
         23    2    1    2    0    0  0.31144311116E+02  0.26094505738E+02  0.23482954329E+03  0.25427337128E+03  0.88651799741E+02 0.  0.
         11    1    3    3    0    0  0.13085289375E+02 -0.25632234245E+02 -0.17578970790E+02  0.33723233007E+02  0.00000000000E+00 0. -1.
        -12    1    3    3    0    0 -0.43348709597E+02  0.31970642203E+02 -0.72681848051E+02  0.90464819807E+02  0.00000000000E+00 0.  1.
        -11    1    4    4    0    0 -0.27353677017E+01  0.53687823566E+02  0.12482588662E+03  0.13590940588E+03  0.00000000000E+00 0.  1.
         11    1    4    4    0    0  0.33879678817E+02 -0.27593317829E+02  0.11000365667E+03  0.11836396540E+03  0.00000000000E+00 0. -1.
         21    1    1    2  502  501 -0.88089089381E+00 -0.32432913695E+02  0.12552345239E+03  0.12964878310E+03  0.00000000000E+00 0. -1.
<scales pt_clust_5="13000.00000" pt_clust_6="13000.00000" pt_clust_7="13000.00000" pt_clust_8="13000.00000" pt_clust_9="32.44487"></scales>
<clustering>
<clus scale="   32.445">  1  9  2 -1</clus>
<clus scale="   79.496">  5  6 -1 -1</clus>
<clus scale="   85.187">  2  5  1 -1</clus>
<clus scale="   88.652">  7  8 -1 -1</clus>
<clus scale="   32.445">  1  5  2 -1</clus>
</clustering>
</event>
<event>
 9    1  0.2951046E-005  0.9342588E+02  0.7546771E-02  0.1300487E+00
          1   -1    0    0  502    0  0.00000000000E+00  0.00000000000E+00  0.40423082702E+03  0.40423082702E+03  0.00000000000E+00 0. -1.
         -2   -1    0    0    0  501 -0.00000000000E+00 -0.00000000000E+00 -0.80170315111E+02  0.80170315111E+02  0.00000000000E+00 0.  1.
        -24    2    1    2    0    0 -0.19366523830E+02  0.44377479027E+01 -0.37505364465E+02  0.91022684435E+02  0.80521555290E+02 0.  0.
         23    2    1    2    0    0  0.51840024397E+02 -0.19039616999E+02  0.18388546396E+03  0.21216567731E+03  0.90280206177E+02 0.  0.
         11    1    3    3    0    0 -0.36983033458E+02 -0.26233942206E+02 -0.10556347501E+02  0.46555353720E+02  0.00000000000E+00 0. -1.
        -12    1    3    3    0    0  0.17616509628E+02  0.30671690108E+02 -0.26949016964E+02  0.44467330715E+02  0.00000000000E+00 0.  1.
        -11    1    4    4    0    0  0.20326534076E+02  0.25988821849E+02  0.18368347749E+02  0.37762190716E+02  0.00000000000E+00 0.  1.
         11    1    4    4    0    0  0.31513490321E+02 -0.45028438848E+02  0.16551711621E+03  0.17440348659E+03  0.00000000000E+00 0. -1.
         21    1    1    2  502  501 -0.32473500567E+02  0.14601869097E+02  0.17768041241E+03  0.18121278039E+03  0.00000000000E+00 0. -1.
<scales pt_clust_5="13000.00000" pt_clust_6="13000.00000" pt_clust_7="13000.00000" pt_clust_8="13000.00000" pt_clust_9="35.60538"></scales>
<clustering>
<clus scale="   35.605">  1  9  2 -1</clus>
<clus scale="   80.522">  5  6 -1 -1</clus>
<clus scale="   84.033">  2  5  1 -1</clus>
<clus scale="   90.280">  7  8 -1 -1</clus>
<clus scale="   35.605">  1  5  2 -1</clus>
</clustering>
</event>
<event>
 9    1  0.2951046E-005  0.1152662E+03  0.7546771E-02  0.1255058E+00
         -2   -1    0    0    0  501 -0.00000000000E+00  0.00000000000E+00  0.33682662868E+03  0.33682662868E+03  0.00000000000E+00 0.  1.
          1   -1    0    0  502    0  0.00000000000E+00 -0.00000000000E+00 -0.72443187183E+02  0.72443187183E+02  0.00000000000E+00 0. -1.
        -24    2    1    2    0    0  0.33140392734E+02 -0.57412581374E+02  0.21253526852E+03  0.23678378315E+03  0.80627721456E+02 0.  0.
         23    2    1    2    0    0 -0.65432809576E+02  0.53669805243E+02  0.60647595194E+02  0.13880757684E+03  0.91801481588E+02 0.  0.
         13    1    3    3    0    0  0.41181280910E+02 -0.13607522090E+02  0.41437150024E+02  0.59984164218E+02  0.00000000000E+00 0. -1.
        -14    1    3    3    0    0 -0.80408881759E+01 -0.43805059284E+02  0.17109811850E+03  0.17679961893E+03  0.00000000000E+00 0.  1.
        -13    1    4    4    0    0 -0.48902187844E+02 -0.15464941680E+02  0.39214982390E+02  0.64563172482E+02  0.00000000000E+00 0.  1.
         13    1    4    4    0    0 -0.16530621732E+02  0.69134746923E+02  0.21432612804E+02  0.74244404359E+02  0.00000000000E+00 0. -1.
         21    1    1    2  502  501  0.32292416842E+02  0.37427761304E+01 -0.87994222167E+01  0.33678455873E+02  0.00000000000E+00 0. -1.
<scales pt_clust_5="13000.00000" pt_clust_6="13000.00000" pt_clust_7="13000.00000" pt_clust_8="13000.00000" pt_clust_9="32.50859"></scales>
<clustering>
<clus scale="   32.509">  2  9  1 -1</clus>
<clus scale="   80.628">  5  6 -1 -1</clus>
<clus scale="   91.801">  7  8 -1 -1</clus>
<clus scale="  106.581">  1  5  2 -1</clus>
<clus scale="   32.509">  2  5  1 -1</clus>
</clustering>
</event>
<event>
 9    1  0.2951046E-005  0.1021075E+03  0.7546771E-02  0.1283686E+00
          1   -1    0    0  502    0  0.00000000000E+00  0.00000000000E+00  0.72212478299E+02  0.72212478299E+02  0.00000000000E+00 0. -1.
         -2   -1    0    0    0  501 -0.00000000000E+00 -0.00000000000E+00 -0.32522451899E+03  0.32522451899E+03  0.00000000000E+00 0.  1.
         23    2    1    2    0    0  0.20710035098E+02  0.29428390394E+02 -0.13872929298E+03  0.17491455247E+03  0.10027137288E+03 0.  0.
        -24    2    1    2    0    0  0.60650181487E+02  0.43236791593E+01 -0.46035301671E+02  0.11109353954E+03  0.80779866375E+02 0.  0.
         11    1    4    4    0    0  0.41629578044E+02  0.15470161767E+02  0.14460383455E+02  0.46705999218E+02  0.00000000000E+00 0. -1.
        -12    1    4    4    0    0  0.19020603442E+02 -0.11146482608E+02 -0.60495685125E+02  0.64387540321E+02  0.00000000000E+00 0.  1.
        -13    1    3    3    0    0  0.29682594816E+02  0.63025682037E+02 -0.75338026433E+02  0.10261145773E+03  0.00000000000E+00 0. -1.
         13    1    3    3    0    0 -0.89725597184E+01 -0.33597291643E+02 -0.63391266549E+02  0.72303094736E+02  0.00000000000E+00 0.  1.
         21    1    1    2  502  501 -0.81360216584E+02 -0.33752069553E+02 -0.68247446039E+02  0.11142890528E+03  0.00000000000E+00 0.  1.
<scales pt_clust_5="13000.00000" pt_clust_6="13000.00000" pt_clust_7="13000.00000" pt_clust_8="13000.00000" pt_clust_9="88.08341"></scales>
<clustering>
<clus scale="   80.780">  5  6 -1 -1</clus>
<clus scale="   88.083">  1  9  2 -1</clus>
<clus scale="   88.083">  1  5  2 -1</clus>
<clus scale="  100.271">  7  8 -1 -1</clus>
<clus scale="   88.083">  1  5  2 -1</clus>
</clustering>
</event>
<event>
 9    1  0.2951046E-005  0.1090922E+03  0.7546771E-02  0.1263125E+00
          1   -1    0    0  502    0  0.00000000000E+00  0.00000000000E+00  0.19873183756E+03  0.19873183756E+03  0.00000000000E+00 0. -1.
         -2   -1    0    0    0  501 -0.00000000000E+00 -0.00000000000E+00 -0.17044618634E+03  0.17044618634E+03  0.00000000000E+00 0.  1.
        -24    2    1    2    0    0  0.48772673463E+02 -0.17466524316E+02 -0.12944765812E+03  0.17005465798E+03  0.97355212285E+02 0.  0.
         23    2    1    2    0    0 -0.28808147524E+02  0.12490973635E+02  0.12279675519E+03  0.15857831422E+03  0.95300078021E+02 0.  0.
         11    1    3    3    0    0 -0.73540124852E+01 -0.45071542544E+02 -0.38816153832E+02  0.59935125304E+02  0.00000000000E+00 0. -1.
        -12    1    3    3    0    0  0.56126685948E+02  0.27605018228E+02 -0.90631504290E+02  0.11011953268E+03  0.00000000000E+00 0.  1.
        -13    1    4    4    0    0  0.22094871023E+02  0.11955310892E+02 -0.56253277503E+00  0.25128255554E+02  0.00000000000E+00 0.  1.
         13    1    4    4    0    0 -0.50903018547E+02  0.53566274369E+00  0.12335928796E+03  0.13345005867E+03  0.00000000000E+00 0. -1.
         21    1    1    2  502  501 -0.19964525939E+02  0.49755506803E+01  0.34936554154E+02  0.40545051692E+02  0.00000000000E+00 0. -1.
<scales pt_clust_5="13000.00000" pt_clust_6="13000.00000" pt_clust_7="13000.00000" pt_clust_8="13000.00000" pt_clust_9="20.57519"></scales>
<clustering>
<clus scale="   20.575">  1  9  2 -1</clus>
<clus scale="   95.300">  7  8 -1 -1</clus>
<clus scale="   97.355">  5  6 -1 -1</clus>
<clus scale="  107.262">  1  7  2 -1</clus>
<clus scale="   20.575">  1  5  2 -1</clus>
</clustering>
</event>
<event>
 9    1  0.2951046E-005  0.1125303E+03  0.7546771E-02  0.1260068E+00
          1   -1    0    0  502    0  0.00000000000E+00  0.00000000000E+00  0.30344570833E+03  0.30344570833E+03  0.00000000000E+00 0. -1.
         -2   -1    0    0    0  501 -0.00000000000E+00 -0.00000000000E+00 -0.76296792145E+02  0.76296792145E+02  0.00000000000E+00 0.  1.
         23    2    1    2    0    0  0.35300895756E+02  0.50619111499E+02  0.11796160858E+01  0.10978378260E+03  0.90788984674E+02 0.  0.
        -24    2    1    2    0    0 -0.58973141503E+02 -0.56018596417E+02  0.13906282283E+03  0.17972421534E+03  0.79664360432E+02 0.  0.
         11    1    4    4    0    0 -0.55752172500E+02 -0.69520239388E+02  0.13984108894E+03  0.16582188811E+03  0.00000000000E+00 0. -1.
        -12    1    4    4    0    0 -0.32209690034E+01  0.13501642971E+02 -0.77826610263E+00  0.13902327229E+02  0.00000000000E+00 0.  1.
        -11    1    3    3    0    0  0.35259443991E+02 -0.18179910713E+02  0.85808553697E+01  0.40587789087E+02  0.00000000000E+00 0. -1.
         11    1    3    3    0    0  0.41451765139E-01  0.68799022212E+02 -0.74012392839E+01  0.69195993515E+02  0.00000000000E+00 0.  1.
         21    1    1    2  502  501  0.23672245747E+02  0.53994849183E+01  0.86906477261E+02  0.90234502526E+02  0.00000000000E+00 0. -1.
<scales pt_clust_5="13000.00000" pt_clust_6="13000.00000" pt_clust_7="13000.00000" pt_clust_8="13000.00000" pt_clust_9="24.28023"></scales>
<clustering>
<clus scale="   24.280">  1  9  2 -1</clus>
<clus scale="   79.664">  5  6 -1 -1</clus>
<clus scale="   90.789">  7  8 -1 -1</clus>
<clus scale="  103.763">  1  5  2 -1</clus>
<clus scale="   24.280">  1  5  2 -1</clus>
</clustering>
</event>
<event>
 9    1  0.2951046E-005  0.9285280E+02  0.7546771E-02  0.1302817E+00
          1   -1    0    0  502    0  0.00000000000E+00  0.00000000000E+00  0.60931660781E+03  0.60931660781E+03  0.00000000000E+00 0. -1.
         -2   -1    0    0    0  501 -0.00000000000E+00 -0.00000000000E+00 -0.28103030526E+02  0.28103030526E+02  0.00000000000E+00 0.  1.
        -24    2    1    2    0    0  0.13797682322E+02  0.23173767238E+01  0.58340790575E+02  0.10075445290E+03  0.80944830976E+02 0.  0.
         23    2    1    2    0    0 -0.31676087726E+01 -0.20974459467E+02  0.35093810189E+03  0.36339481566E+03  0.91914520030E+02 0.  0.
         13    1    3    3    0    0 -0.31538407742E+02  0.15129203847E+02  0.26670911545E+02  0.43987515213E+02  0.00000000000E+00 0. -1.
        -14    1    3    3    0    0  0.45336090064E+02 -0.12811827123E+02  0.31669879030E+02  0.56766937686E+02  0.00000000000E+00 0.  1.
        -11    1    4    4    0    0  0.11922164222E+02  0.33265910399E+02  0.95565086107E+02  0.10188937372E+03  0.00000000000E+00 0.  1.
         11    1    4    4    0    0 -0.15089772995E+02 -0.54240369866E+02  0.25537301578E+03  0.26150544194E+03  0.00000000000E+00 0. -1.
         21    1    1    2  502  501 -0.10630073549E+02  0.18657082743E+02  0.17193468482E+03  0.17327036978E+03  0.00000000000E+00 0. -1.
<scales pt_clust_5="13000.00000" pt_clust_6="13000.00000" pt_clust_7="13000.00000" pt_clust_8="13000.00000" pt_clust_9="21.47289"></scales>
<clustering>
<clus scale="   21.473">  1  9  2 -1</clus>
<clus scale="   80.945">  5  6 -1 -1</clus>
<clus scale="   82.009">  2  5  1 -1</clus>
<clus scale="   91.915">  7  8 -1 -1</clus>
<clus scale="   21.473">  1  5  2 -1</clus>
</clustering>
</event>
<event>
 9    1  0.4490108E-005  0.9804248E+02  0.7546771E-02  0.1290672E+00
         -2   -1    0    0    0  501 -0.00000000000E+00  0.00000000000E+00  0.28374237075E+03  0.28374237075E+03  0.00000000000E+00 0.  1.
          1   -1    0    0  502    0  0.00000000000E+00 -0.00000000000E+00 -0.28155649411E+03  0.28155649411E+03  0.00000000000E+00 0. -1.
        -24    2    1    2    0    0 -0.26207638016E+02 -0.19878221933E+02  0.26411181712E+03  0.27821989870E+03  0.81051070900E+02 0.  0.
         23    2    1    2    0    0  0.13689157812E+02  0.15640637273E+01 -0.22889082267E+03  0.24728650775E+03  0.92573046161E+02 0.  0.
         11    1    3    3    0    0 -0.49077616352E+02 -0.15096391442E+02  0.99593635323E+02  0.11205090655E+03  0.00000000000E+00 0. -1.
        -12    1    3    3    0    0  0.22869978336E+02 -0.47818304912E+01  0.16451818179E+03  0.16616899215E+03  0.00000000000E+00 0.  1.
        -11    1    4    4    0    0 -0.39934775566E+02  0.16182463279E+01 -0.98383347567E+02  0.10619175156E+03  0.00000000000E+00 0.  1.
         11    1    4    4    0    0  0.53623933378E+02 -0.54182600628E-01 -0.13050747511E+03  0.14109475619E+03  0.00000000000E+00 0. -1.
         21    1    1    2  502  501  0.12518480204E+02  0.18314158206E+02 -0.33035117809E+02  0.39792458406E+02  0.00000000000E+00 0. -1.
<scales pt_clust_5="13000.00000" pt_clust_6="13000.00000" pt_clust_7="13000.00000" pt_clust_8="13000.00000" pt_clust_9="22.18379"></scales>
<clustering>
<clus scale="   22.184">  2  9  1 -1</clus>
<clus scale="   81.051">  5  6 -1 -1</clus>
<clus scale="   87.246">  1  5  2 -1</clus>
<clus scale="   92.573">  7  8 -1 -1</clus>
<clus scale="   22.184">  2  5  1 -1</clus>
</clustering>
</event>
<event>
 9    1  0.2951046E-005  0.9021602E+02  0.7546771E-02  0.1311496E+00
          1   -1    0    0  502    0  0.00000000000E+00  0.00000000000E+00  0.37312363820E+03  0.37312363820E+03  0.00000000000E+00 0. -1.
         -2   -1    0    0    0  501 -0.00000000000E+00 -0.00000000000E+00 -0.27041399670E+03  0.27041399670E+03  0.00000000000E+00 0.  1.
         23    2    1    2    0    0  0.32775203238E+01  0.26619514051E+01 -0.24613986149E+03  0.26210742896E+03  0.89986914473E+02 0.  0.
        -24    2    1    2    0    0 -0.26561788706E+02 -0.33534600822E+02  0.11476098475E+03  0.14416935370E+03  0.76056694997E+02 0.  0.
         11    1    4    4    0    0 -0.41989197132E+02 -0.21938238387E+02  0.11551768100E+03  0.12485477005E+03  0.00000000000E+00 0. -1.
        -12    1    4    4    0    0  0.15427408426E+02 -0.11596362436E+02 -0.75669625174E+00  0.19314583653E+02  0.00000000000E+00 0.  1.
        -13    1    3    3    0    0 -0.34777366838E+02 -0.22919097508E+02 -0.86375317875E+02  0.95892887186E+02  0.00000000000E+00 0. -1.
         13    1    3    3    0    0  0.38054887162E+02  0.25581048913E+02 -0.15976454361E+03  0.16621454177E+03  0.00000000000E+00 0.  1.
         21    1    1    2  502  501  0.23284268383E+02  0.30872649417E+02  0.23408851824E+03  0.23726085224E+03  0.00000000000E+00 0. -1.
<scales pt_clust_5="13000.00000" pt_clust_6="13000.00000" pt_clust_7="13000.00000" pt_clust_8="13000.00000" pt_clust_9="38.66882"></scales>
<clustering>
<clus scale="   38.669">  1  9  2 -1</clus>
<clus scale="   76.057">  5  6 -1 -1</clus>
<clus scale="   76.328">  1  5  2 -1</clus>
<clus scale="   89.987">  7  8 -1 -1</clus>
<clus scale="   38.669">  1  5  2 -1</clus>
</clustering>
</event>
<event>
 9    1  0.2951046E-005  0.9500525E+02  0.7546771E-02  0.1294781E+00
         -2   -1    0    0    0  501 -0.00000000000E+00  0.00000000000E+00  0.56963312191E+02  0.56963312191E+02  0.00000000000E+00 0.  1.
          1   -1    0    0  502    0  0.00000000000E+00 -0.00000000000E+00 -0.34156322508E+03  0.34156322508E+03  0.00000000000E+00 0. -1.
        -24    2    1    2    0    0  0.32537625705E+02  0.35642139742E+02 -0.25974198333E+02  0.99802807719E+02  0.83407926707E+02 0.  0.
         23    2    1    2    0    0  0.30827899259E+00 -0.28541971863E+02 -0.24483172900E+03  0.26239825810E+03  0.89975169522E+02 0.  0.
         11    1    3    3    0    0  0.51994849475E+02  0.96927342836E+01 -0.38091262873E+02  0.65179427560E+02  0.00000000000E+00 0. -1.
        -12    1    3    3    0    0 -0.19457223770E+02  0.25949405459E+02  0.12117064540E+02  0.34623380158E+02  0.00000000000E+00 0.  1.
        -13    1    4    4    0    0 -0.27865469017E+02 -0.42967767035E+02 -0.20615464608E+03  0.21242045916E+03  0.00000000000E+00 0.  1.
         13    1    4    4    0    0  0.28173748009E+02  0.14425795172E+02 -0.38677082921E+02  0.49977798937E+02  0.00000000000E+00 0. -1.
         21    1    1    2  502  501 -0.32845904697E+02 -0.71001678794E+01 -0.13793985554E+02  0.36325471460E+02  0.00000000000E+00 0.  1.
<scales pt_clust_5="13000.00000" pt_clust_6="13000.00000" pt_clust_7="13000.00000" pt_clust_8="13000.00000" pt_clust_9="33.60455"></scales>
<clustering>
<clus scale="   33.605">  1  9  2 -1</clus>
<clus scale="   83.408">  5  6 -1 -1</clus>
<clus scale="   88.811">  1  5  2 -1</clus>
<clus scale="   89.975">  7  8 -1 -1</clus>
<clus scale="   95.005">  2  5  1 -1</clus>
</clustering>
</event>
<event>
 9    1  0.2951046E-005  0.1090546E+03  0.7546771E-02  0.1267014E+00
         -4   -1    0    0    0  501 -0.00000000000E+00  0.00000000000E+00  0.15108778064E+03  0.15108778064E+03  0.00000000000E+00 0.  1.
          3   -1    0    0  502    0  0.00000000000E+00 -0.00000000000E+00 -0.14009107760E+03  0.14009107760E+03  0.00000000000E+00 0. -1.
        -24    2    1    2    0    0  0.63316389076E+02  0.40338369940E+01  0.86509301242E+02  0.13454163253E+03  0.81193316945E+02 0.  0.
         23    2    1    2    0    0 -0.37838208011E+02 -0.19431030044E+02 -0.38059767973E+02  0.10879450676E+03  0.92619673118E+02 0.  0.
         13    1    3    3    0    0 -0.13883773652E+02 -0.17498999320E+02  0.24901365624E+02  0.33452236965E+02  0.00000000000E+00 0. -1.
        -14    1    3    3    0    0  0.77200162728E+02  0.21532836314E+02  0.61607935618E+02  0.10108939557E+03  0.00000000000E+00 0.  1.
        -11    1    4    4    0    0  0.16896364889E+02 -0.20193709383E+02  0.16850218518E+02  0.31260244868E+02  0.00000000000E+00 0.  1.
         11    1    4    4    0    0 -0.54734572900E+02  0.76267933881E+00 -0.54909986492E+02  0.77534261890E+02  0.00000000000E+00 0. -1.
         21    1    1    2  502  501 -0.25478181065E+02  0.15397193050E+02 -0.37452830230E+02  0.47842718949E+02  0.00000000000E+00 0. -1.
<scales pt_clust_5="13000.00000" pt_clust_6="13000.00000" pt_clust_7="13000.00000" pt_clust_8="13000.00000" pt_clust_9="29.76930"></scales>
<clustering>
<clus scale="   29.769">  2  9  1 -1</clus>
<clus scale="   81.193">  5  6 -1 -1</clus>
<clus scale="   92.620">  7  8 -1 -1</clus>
<clus scale="   99.533">  1  5  2 -1</clus>
<clus scale="   29.769">  2  5  1 -1</clus>
</clustering>
</event>
<event>
 9    1  0.2951046E-005  0.1229846E+03  0.7546771E-02  0.1241604E+00
         -2   -1    0    0    0  501 -0.00000000000E+00  0.00000000000E+00  0.73310674275E+03  0.73310674275E+03  0.00000000000E+00 0.  1.
          1   -1    0    0  502    0  0.00000000000E+00 -0.00000000000E+00 -0.18324096989E+03  0.18324096989E+03  0.00000000000E+00 0. -1.
        -24    2    1    2    0    0 -0.25291873041E+01 -0.81022684561E+02  0.62390298601E+03  0.63423451275E+03  0.80171123341E+02 0.  0.
         23    2    1    2    0    0  0.24052460621E+02  0.91325668879E+02  0.61069293448E+02  0.14491563830E+03  0.91390289212E+02 0.  0.
         13    1    3    3    0    0  0.31000794247E+02 -0.49110495896E+02  0.21450473817E+03  0.22222774973E+03  0.00000000000E+00 0. -1.
        -14    1    3    3    0    0 -0.33529981551E+02 -0.31912188665E+02  0.40939824784E+03  0.41200676303E+03  0.00000000000E+00 0.  1.
        -11    1    4    4    0    0  0.47806584450E+01  0.37218724295E+02  0.76702526893E+02  0.85389494465E+02  0.00000000000E+00 0.  1.
         11    1    4    4    0    0  0.19271802176E+02  0.54106944584E+02 -0.15633233445E+02  0.59526143830E+02  0.00000000000E+00 0. -1.
         21    1    1    2  502  501 -0.21523273316E+02 -0.10302984317E+02 -0.13510650660E+03  0.13719756159E+03  0.00000000000E+00 0. -1.
<scales pt_clust_5="13000.00000" pt_clust_6="13000.00000" pt_clust_7="13000.00000" pt_clust_8="13000.00000" pt_clust_9="23.86216"></scales>
<clustering>
<clus scale="   23.862">  2  9  1 -1</clus>
<clus scale="   80.171">  5  6 -1 -1</clus>
<clus scale="   91.390">  7  8 -1 -1</clus>
<clus scale="  114.893">  1  5  2 -1</clus>
<clus scale="   23.862">  2  5  1 -1</clus>
</clustering>
</event>
<event>
 9    1  0.2951046E-005  0.1227190E+03  0.7546771E-02  0.1242563E+00
         -2   -1    0    0    0  501 -0.00000000000E+00  0.00000000000E+00  0.26002734157E+03  0.26002734157E+03  0.00000000000E+00 0.  1.
          1   -1    0    0  502    0  0.00000000000E+00 -0.00000000000E+00 -0.33076000523E+03  0.33076000523E+03  0.00000000000E+00 0. -1.
        -24    2    1    2    0    0 -0.59639204776E+02 -0.52118101549E+02  0.22849993139E+03  0.25491678678E+03  0.80605324172E+02 0.  0.
         23    2    1    2    0    0  0.58184486779E+02  0.72256735433E+02 -0.24634627142E+03  0.27926098481E+03  0.93240237420E+02 0.  0.
         13    1    3    3    0    0 -0.51618299213E+02 -0.24437047238E+02  0.55857512138E+02  0.79885416401E+02  0.00000000000E+00 0. -1.
        -14    1    3    3    0    0 -0.80209055632E+01 -0.27681054311E+02  0.17264241925E+03  0.17503137038E+03  0.00000000000E+00 0.  1.
        -13    1    4    4    0    0 -0.11244470265E+02  0.59966965607E+02 -0.11257278001E+03  0.12804337498E+03  0.00000000000E+00 0.  1.
         13    1    4    4    0    0  0.69428957044E+02  0.12289769826E+02 -0.13377349141E+03  0.15121760983E+03  0.00000000000E+00 0. -1.
         21    1    1    2  502  501  0.14547179965E+01 -0.20138633883E+02 -0.52886323622E+02  0.56609575209E+02  0.00000000000E+00 0. -1.
<scales pt_clust_5="13000.00000" pt_clust_6="13000.00000" pt_clust_7="13000.00000" pt_clust_8="13000.00000" pt_clust_9="20.19111"></scales>
<clustering>
<clus scale="   20.191">  2  9  1 -1</clus>
<clus scale="   80.605">  5  6 -1 -1</clus>
<clus scale="   93.240">  7  8 -1 -1</clus>
<clus scale="  113.417">  1  5  2 -1</clus>
<clus scale="   20.191">  2  5  1 -1</clus>
</clustering>
</event>
<event>
 9    1  0.2951046E-005  0.2385672E+03  0.7546771E-02  0.1162957E+00
         -2   -1    0    0    0  501 -0.00000000000E+00  0.00000000000E+00  0.10178901591E+03  0.10178901591E+03  0.00000000000E+00 0.  1.
          1   -1    0    0  502    0  0.00000000000E+00 -0.00000000000E+00 -0.11447035984E+04  0.11447035984E+04  0.00000000000E+00 0. -1.
        -24    2    1    2    0    0  0.30629563032E+02 -0.44945347176E+01 -0.81304965883E+01  0.86835989177E+02  0.80721825225E+02 0.  0.
         23    2    1    2    0    0  0.11050532406E+03 -0.17223713550E+03 -0.21919059498E+03  0.31328443629E+03  0.90694892939E+02 0.  0.
         11    1    3    3    0    0 -0.22116257458E+02 -0.12311461757E+02 -0.19939094721E+02  0.32222173000E+02  0.00000000000E+00 0. -1.
        -12    1    3    3    0    0  0.52745820490E+02  0.78169270396E+01  0.11808598133E+02  0.54613816177E+02  0.00000000000E+00 0.  1.
        -11    1    4    4    0    0  0.11503226429E+03 -0.10292404469E+03 -0.15306480293E+03  0.21738126575E+03  0.00000000000E+00 0.  1.
         11    1    4    4    0    0 -0.45269402350E+01 -0.69313090812E+02 -0.66125792049E+02  0.95903170542E+02  0.00000000000E+00 0. -1.
         21    1    1    2  502  501 -0.14113488709E+03  0.17673167022E+03 -0.81559349097E+03  0.84637218888E+03  0.00000000000E+00 0. -1.
<scales pt_clust_5="13000.00000" pt_clust_6="13000.00000" pt_clust_7="13000.00000" pt_clust_8="13000.00000" pt_clust_9="220.65531"></scales>
<clustering>
<clus scale="   80.722">  5  6 -1 -1</clus>
<clus scale="   86.455">  1  5  2 -1</clus>
<clus scale="   90.695">  7  8 -1 -1</clus>
<clus scale="  220.655">  2  9  1 -1</clus>
<clus scale="  220.655">  2  5  1 -1</clus>
</clustering>
</event>
<event>
 9    1  0.2951046E-005  0.1620225E+03  0.7546771E-02  0.1209901E+00
          1   -1    0    0  502    0  0.00000000000E+00  0.00000000000E+00  0.10529397238E+04  0.10529397238E+04  0.00000000000E+00 0. -1.
         -2   -1    0    0    0  501 -0.00000000000E+00 -0.00000000000E+00 -0.69438685000E+02  0.69438685000E+02  0.00000000000E+00 0.  1.
         23    2    1    2    0    0  0.11663934102E+02  0.14291379843E+03  0.90818025782E+02  0.19165597675E+03  0.89015158692E+02 0.  0.
        -24    2    1    2    0    0  0.47611185494E+02 -0.30163618089E+02  0.64425681030E+03  0.65154198652E+03  0.79141984699E+02 0.  0.
         11    1    4    4    0    0 -0.90772030597E+01 -0.23130282453E+02  0.66885332472E+02  0.71351617232E+02  0.00000000000E+00 0. -1.
        -12    1    4    4    0    0  0.56688388553E+02 -0.70333356368E+01  0.57737147783E+03  0.58019036929E+03  0.00000000000E+00 0.  1.
        -11    1    3    3    0    0  0.22571313560E+02  0.17741173703E+02  0.53278273255E+02  0.60520970260E+02  0.00000000000E+00 0. -1.
         11    1    3    3    0    0 -0.10907379458E+02  0.12517262473E+03  0.37539752528E+02  0.13113500649E+03  0.00000000000E+00 0.  1.
         21    1    1    2  502  501 -0.59275119596E+02 -0.11275018034E+03  0.24842620272E+03  0.27918044553E+03  0.00000000000E+00 0. -1.
<scales pt_clust_5="13000.00000" pt_clust_6="13000.00000" pt_clust_7="13000.00000" pt_clust_8="13000.00000" pt_clust_9="135.37948"></scales>
<clustering>
<clus scale="   79.142">  5  6 -1 -1</clus>
<clus scale="   89.015">  7  8 -1 -1</clus>
<clus scale="   97.160">  1  5  2 -1</clus>
<clus scale="  135.379">  1  9  2 -1</clus>
<clus scale="   97.160">  1  5  2 -1</clus>
</clustering>
</event>
<event>
 9    1  0.2951046E-005  0.9919758E+02  0.7546771E-02  0.1285411E+00
         -2   -1    0    0    0  501 -0.00000000000E+00  0.00000000000E+00  0.26048235789E+03  0.26048235789E+03  0.00000000000E+00 0.  1.
          1   -1    0    0  502    0  0.00000000000E+00 -0.00000000000E+00 -0.87174743393E+02  0.87174743393E+02  0.00000000000E+00 0. -1.
         23    2    1    2    0    0  0.40001143026E+02  0.10166106519E+02  0.16564977569E+03  0.19130252959E+03  0.86332893358E+02 0.  0.
        -24    2    1    2    0    0 -0.77734774616E+02 -0.27604829574E+02  0.13220020402E+01  0.11430604209E+03  0.79116381161E+02 0.  0.
         13    1    4    4    0    0 -0.60159533179E+02 -0.51474366906E+02 -0.14824835860E+02  0.80551571300E+02  0.00000000000E+00 0. -1.
        -14    1    4    4    0    0 -0.17575241437E+02  0.23869537331E+02  0.16146837900E+02  0.33754470788E+02  0.00000000000E+00 0.  1.
        -13    1    3    3    0    0  0.63300619821E+02  0.71581054711E+01  0.78789128282E+02  0.10132094393E+03  0.00000000000E+00 0.  1.
         13    1    3    3    0    0 -0.23299476795E+02  0.30080010484E+01  0.86860647407E+02  0.89981585656E+02  0.00000000000E+00 0. -1.
         21    1    1    2  502  501  0.37733631590E+02  0.17438723055E+02  0.63358367709E+01  0.42048529610E+02  0.00000000000E+00 0.  1.
<scales pt_clust_5="13000.00000" pt_clust_6="13000.00000" pt_clust_7="13000.00000" pt_clust_8="13000.00000" pt_clust_9="41.56845"></scales>
<clustering>
<clus scale="   41.568">  2  9  1 -1</clus>
<clus scale="   79.116">  5  6 -1 -1</clus>
<clus scale="   86.333">  7  8 -1 -1</clus>
<clus scale="   92.985">  2  5  1 -1</clus>
<clus scale="   41.568">  2  5  1 -1</clus>
</clustering>
</event>
<event>
 9    1  0.2951046E-005  0.1527326E+03  0.7546771E-02  0.1200479E+00
         -2   -1    0    0    0  501 -0.00000000000E+00  0.00000000000E+00  0.76000978175E+02  0.76000978175E+02  0.00000000000E+00 0.  1.
          1   -1    0    0  502    0  0.00000000000E+00 -0.00000000000E+00 -0.52649447052E+03  0.52649447052E+03  0.00000000000E+00 0. -1.
         23    2    1    2    0    0 -0.32353541915E+01 -0.11983174326E+03 -0.10892493525E+03  0.18879673945E+03  0.97002335516E+02 0.  0.
        -24    2    1    2    0    0  0.37139676464E+02  0.11264694556E+03 -0.11146095218E+03  0.18099582094E+03  0.79165986542E+02 0.  0.
         13    1    4    4    0    0  0.54826704106E+02  0.60230351403E+02 -0.90715197578E+02  0.12191353405E+03  0.00000000000E+00 0. -1.
        -14    1    4    4    0    0 -0.17687027642E+02  0.52416594162E+02 -0.20745754602E+02  0.59082286891E+02  0.00000000000E+00 0.  1.
        -11    1    3    3    0    0 -0.80377896700E+01 -0.65440432235E+02  0.11288705329E+01  0.65941872756E+02  0.00000000000E+00 0.  1.
         11    1    3    3    0    0  0.48024354785E+01 -0.54391311029E+02 -0.11005380578E+03  0.12285486669E+03  0.00000000000E+00 0. -1.
         21    1    1    2  502  501 -0.33904322272E+02  0.71847976994E+01 -0.23010760491E+03  0.23270288831E+03  0.00000000000E+00 0. -1.
<scales pt_clust_5="13000.00000" pt_clust_6="13000.00000" pt_clust_7="13000.00000" pt_clust_8="13000.00000" pt_clust_9="34.65724"></scales>
<clustering>
<clus scale="   34.657">  2  9  1 -1</clus>
<clus scale="   79.166">  5  6 -1 -1</clus>
<clus scale="   97.002">  7  8 -1 -1</clus>
<clus scale="  142.074">  2  5  1 -1</clus>
<clus scale="   34.657">  2  5  1 -1</clus>
</clustering>
</event>
<event>
 9    1  0.2951046E-005  0.9868368E+02  0.7546771E-02  0.1288233E+00
         -2   -1    0    0    0  501 -0.00000000000E+00  0.00000000000E+00  0.25248352295E+03  0.25248352295E+03  0.00000000000E+00 0.  1.
          1   -1    0    0  502    0  0.00000000000E+00 -0.00000000000E+00 -0.61851482075E+02  0.61851482075E+02  0.00000000000E+00 0. -1.
        -24    2    1    2    0    0 -0.23830156900E+02 -0.33322104514E+02  0.15962688781E+03  0.18338497492E+03  0.80442940566E+02 0.  0.
         23    2    1    2    0    0  0.39602770537E+02  0.11497625312E+02  0.30505013947E+02  0.10401801621E+03  0.90490977447E+02 0.  0.
         11    1    3    3    0    0 -0.40113416392E+02 -0.33468767960E+02  0.49196026110E+02  0.71759972049E+02  0.00000000000E+00 0. -1.
        -12    1    3    3    0    0  0.16283259492E+02  0.14666344620E+00  0.11043086170E+03  0.11162500287E+03  0.00000000000E+00 0.  1.
        -13    1    4    4    0    0  0.86878053978E+01 -0.38384075643E+02  0.37855637474E+01  0.39536637673E+02  0.00000000000E+00 0. -1.
         13    1    4    4    0    0  0.30914965139E+02  0.49881700955E+02  0.26719450200E+02  0.64481378542E+02  0.00000000000E+00 0.  1.
         21    1    1    2  502  501 -0.15772613637E+02  0.21824479201E+02  0.50013912215E+00  0.26932013896E+02  0.00000000000E+00 0.  1.
<scales pt_clust_5="13000.00000" pt_clust_6="13000.00000" pt_clust_7="13000.00000" pt_clust_8="13000.00000" pt_clust_9="26.92737"></scales>
<clustering>
<clus scale="   26.927">  2  9  1 -1</clus>
<clus scale="   80.443">  5  6 -1 -1</clus>
<clus scale="   89.560">  1  5  2 -1</clus>
<clus scale="   90.491">  7  8 -1 -1</clus>
<clus scale="   26.927">  2  5  1 -1</clus>
</clustering>
</event>
<event>
 9    1  0.2951046E-005  0.1019158E+03  0.7546771E-02  0.1282191E+00
          1   -1    0    0  502    0  0.00000000000E+00  0.00000000000E+00  0.23139235362E+03  0.23139235362E+03  0.00000000000E+00 0. -1.
         -2   -1    0    0    0  501 -0.00000000000E+00 -0.00000000000E+00 -0.22379135645E+03  0.22379135645E+03  0.00000000000E+00 0.  1.
        -24    2    1    2    0    0  0.66102561620E+01 -0.44026282756E+02 -0.19372570337E+03  0.21440988784E+03  0.80373769339E+02 0.  0.
         23    2    1    2    0    0 -0.30777697342E+01  0.24136397477E+02  0.10348406260E+03  0.14086752717E+03  0.92426568948E+02 0.  0.
         11    1    3    3    0    0 -0.12270713204E+02  0.18177517033E+02 -0.23256027967E+02  0.31966159682E+02  0.00000000000E+00 0. -1.
        -12    1    3    3    0    0  0.18880969366E+02 -0.62203799788E+02 -0.17046967540E+03  0.18244372816E+03  0.00000000000E+00 0.  1.
        -11    1    4    4    0    0 -0.24824326735E+02 -0.16284013221E+02  0.87281543717E+02  0.92192646985E+02  0.00000000000E+00 0. -1.
         11    1    4    4    0    0  0.21746557001E+02  0.40420410698E+02  0.16202518884E+02  0.48674880180E+02  0.00000000000E+00 0.  1.
         21    1    1    2  502  501 -0.35324864278E+01  0.19889885279E+02  0.97842637934E+02  0.99906295070E+02  0.00000000000E+00 0. -1.
<scales pt_clust_5="13000.00000" pt_clust_6="13000.00000" pt_clust_7="13000.00000" pt_clust_8="13000.00000" pt_clust_9="20.20114"></scales>
<clustering>
<clus scale="   20.201">  1  9  2 -1</clus>
<clus scale="   80.374">  5  6 -1 -1</clus>
<clus scale="   91.127">  2  5  1 -1</clus>
<clus scale="   92.427">  7  8 -1 -1</clus>
<clus scale="   20.201">  1  5  2 -1</clus>
</clustering>
</event>
<event>
 9    1  0.2951046E-005  0.1347802E+03  0.7546771E-02  0.1224027E+00
         -2   -1    0    0    0  501 -0.00000000000E+00  0.00000000000E+00  0.23238547236E+02  0.23238547236E+02  0.00000000000E+00 0.  1.
          1   -1    0    0  502    0  0.00000000000E+00 -0.00000000000E+00 -0.10530758796E+04  0.10530758796E+04  0.00000000000E+00 0. -1.
        -24    2    1    2    0    0  0.19103672052E+02  0.10849648868E+03 -0.36468019733E+03  0.38941309700E+03  0.80712300488E+02 0.  0.
         23    2    1    2    0    0  0.17243988827E+02 -0.79365818318E+02 -0.47689053912E+03  0.49295788565E+03  0.94797692225E+02 0.  0.
         13    1    3    3    0    0  0.41977643972E+01  0.99662682490E+02 -0.35661088600E+03  0.37029933232E+03  0.00000000000E+00 0. -1.
        -14    1    3    3    0    0  0.14905907655E+02  0.88338061856E+01 -0.80693113315E+01  0.19113764676E+02  0.00000000000E+00 0.  1.
        -13    1    4    4    0    0  0.35722774554E+02  0.29470894306E+01 -0.21045344075E+03  0.21348408063E+03  0.00000000000E+00 0.  1.
         13    1    4    4    0    0 -0.18478785727E+02 -0.82312907749E+02 -0.26643709837E+03  0.27947380502E+03  0.00000000000E+00 0. -1.
         21    1    1    2  502  501 -0.36347660879E+02 -0.29130670357E+02 -0.18826659594E+03  0.19394344422E+03  0.00000000000E+00 0.  1.
<scales pt_clust_5="13000.00000" pt_clust_6="13000.00000" pt_clust_7="13000.00000" pt_clust_8="13000.00000" pt_clust_9="46.58056"></scales>
<clustering>
<clus scale="   46.581">  2  9  1 -1</clus>
<clus scale="   80.712">  5  6 -1 -1</clus>
<clus scale="   94.798">  7  8 -1 -1</clus>
<clus scale="  125.274">  1  5  2 -1</clus>
<clus scale="   46.581">  2  5  1 -1</clus>
</clustering>
</event>
<event>
 9    1  0.2951046E-005  0.9524490E+02  0.7546771E-02  0.1296983E+00
         -2   -1    0    0    0  501 -0.00000000000E+00  0.00000000000E+00  0.26533492863E+02  0.26533492863E+02  0.00000000000E+00 0.  1.
          1   -1    0    0  502    0  0.00000000000E+00 -0.00000000000E+00 -0.62451748369E+03  0.62451748369E+03  0.00000000000E+00 0. -1.
         23    2    1    2    0    0 -0.67701418821E+01 -0.22732206028E+02 -0.90296886284E+02  0.13041324232E+03  0.91057663532E+02 0.  0.
        -24    2    1    2    0    0 -0.13270194410E+00  0.42619516635E+02 -0.34857696929E+03  0.36014103795E+03  0.79870037510E+02 0.  0.
         11    1    4    4    0    0 -0.27678823735E+02  0.41460775894E+02 -0.30143067372E+03  0.30552506326E+03  0.00000000000E+00 0. -1.
        -12    1    4    4    0    0  0.27546121791E+02  0.11587407404E+01 -0.47146295568E+02  0.54615974692E+02  0.00000000000E+00 0.  1.
        -11    1    3    3    0    0 -0.42283829570E+02 -0.35151571335E+02 -0.64695345831E+02  0.84906083308E+02  0.00000000000E+00 0. -1.
         11    1    3    3    0    0  0.35513687688E+02  0.12419365307E+02 -0.25601540453E+02  0.45507159013E+02  0.00000000000E+00 0.  1.
         21    1    1    2  502  501  0.69028438262E+01 -0.19887310606E+02 -0.15911013526E+03  0.16049669628E+03  0.00000000000E+00 0. -1.
<scales pt_clust_5="13000.00000" pt_clust_6="13000.00000" pt_clust_7="13000.00000" pt_clust_8="13000.00000" pt_clust_9="21.05123"></scales>
<clustering>
<clus scale="   21.051">  2  9  1 -1</clus>
<clus scale="   79.870">  5  6 -1 -1</clus>
<clus scale="   84.613">  2  5  1 -1</clus>
<clus scale="   91.058">  7  8 -1 -1</clus>
<clus scale="   21.051">  2  5  1 -1</clus>
</clustering>
</event>
<event>
 9    1  0.2951046E-005  0.9292361E+02  0.7546771E-02  0.1300055E+00
         -2   -1    0    0    0  501 -0.00000000000E+00  0.00000000000E+00  0.80325503629E+02  0.80325503629E+02  0.00000000000E+00 0.  1.
          1   -1    0    0  502    0  0.00000000000E+00 -0.00000000000E+00 -0.26883543600E+03  0.26883543600E+03  0.00000000000E+00 0. -1.
         23    2    1    2    0    0  0.14382357377E+02  0.19284769491E+02  0.24279543692E+02  0.96439056579E+02  0.90178937973E+02 0.  0.
        -24    2    1    2    0    0  0.16777309976E+02 -0.27822994200E+02 -0.93985616686E+02  0.12960330950E+03  0.83115128301E+02 0.  0.
         11    1    4    4    0    0 -0.28350068884E+02  0.79450977848E+01 -0.18928443127E+02  0.35001956285E+02  0.00000000000E+00 0. -1.
        -12    1    4    4    0    0  0.45127378860E+02 -0.35768091985E+02 -0.75057173559E+02  0.94601353213E+02  0.00000000000E+00 0.  1.
        -13    1    3    3    0    0  0.24915452748E+02  0.49337954639E+02 -0.17638089918E+01  0.55300312619E+02  0.00000000000E+00 0.  1.
         13    1    3    3    0    0 -0.10533095370E+02 -0.30053185148E+02  0.26043352683E+02  0.41138743960E+02  0.00000000000E+00 0. -1.
         21    1    1    2  502  501 -0.31159667354E+02  0.85382247094E+01 -0.11880385938E+03  0.12311857355E+03  0.00000000000E+00 0. -1.
<scales pt_clust_5="13000.00000" pt_clust_6="13000.00000" pt_clust_7="13000.00000" pt_clust_8="13000.00000" pt_clust_9="32.30830"></scales>
<clustering>
<clus scale="   32.308">  2  9  1 -1</clus>
<clus scale="   83.115">  5  6 -1 -1</clus>
<clus scale="   86.085">  2  5  1 -1</clus>
<clus scale="   90.179">  7  8 -1 -1</clus>
<clus scale="   32.308">  2  5  1 -1</clus>
</clustering>
</event>
<event>
 9    1  0.2951046E-005  0.1286642E+03  0.7546771E-02  0.1232530E+00
          1   -1    0    0  502    0  0.00000000000E+00  0.00000000000E+00  0.47103704532E+03  0.47103704532E+03  0.00000000000E+00 0. -1.
         -2   -1    0    0    0  501 -0.00000000000E+00 -0.00000000000E+00 -0.13831552426E+03  0.13831552426E+03  0.00000000000E+00 0.  1.
         23    2    1    2    0    0  0.43396260198E+02  0.79470108868E+02 -0.59064548452E+02  0.14171505385E+03  0.91628609083E+02 0.  0.
        -24    2    1    2    0    0  0.36366193864E+02 -0.11551502121E+03  0.32987964678E+03  0.36042888753E+03  0.80138513982E+02 0.  0.
         13    1    4    4    0    0  0.47516636356E+02 -0.81074180637E+02  0.15047222642E+03  0.17740559298E+03  0.00000000000E+00 0. -1.
        -14    1    4    4    0    0 -0.11150442492E+02 -0.34440840575E+02  0.17940742036E+03  0.18302329455E+03  0.00000000000E+00 0.  1.
        -11    1    3    3    0    0  0.30629848140E+02 -0.14491200424E+02 -0.18156644291E+02  0.38442765492E+02  0.00000000000E+00 0.  1.
         11    1    3    3    0    0  0.12766412059E+02  0.93961309292E+02 -0.40907904161E+02  0.10327228836E+03  0.00000000000E+00 0. -1.
         21    1    1    2  502  501 -0.79762454062E+02  0.36044912344E+02  0.61906422731E+02  0.10720862819E+03  0.00000000000E+00 0. -1.
<scales pt_clust_5="13000.00000" pt_clust_6="13000.00000" pt_clust_7="13000.00000" pt_clust_8="13000.00000" pt_clust_9="87.52877"></scales>
<clustering>
<clus scale="   80.139">  5  6 -1 -1</clus>
<clus scale="   87.529">  1  9  2 -1</clus>
<clus scale="   91.629">  7  8 -1 -1</clus>
<clus scale="  120.751">  1  5  2 -1</clus>
<clus scale="   87.529">  1  5  2 -1</clus>
</clustering>
</event>
<event>
 9    1  0.2951046E-005  0.1117264E+03  0.7546771E-02  0.1263257E+00
         -4   -1    0    0    0  501 -0.00000000000E+00  0.00000000000E+00  0.90727269546E+02  0.90727269546E+02  0.00000000000E+00 0.  1.
          3   -1    0    0  502    0  0.00000000000E+00 -0.00000000000E+00 -0.21477667508E+03  0.21477667508E+03  0.00000000000E+00 0. -1.
        -24    2    1    2    0    0 -0.54946698206E+02 -0.38386539102E+02  0.13821120821E+02  0.10175846335E+03  0.75306676035E+02 0.  0.
         23    2    1    2    0    0  0.64332458546E+02  0.10913019053E+02 -0.75303504435E+02  0.13477071028E+03  0.90745618971E+02 0.  0.
         11    1    3    3    0    0 -0.54431221800E+02 -0.51364694388E+02 -0.91216945244E+01  0.75394264020E+02  0.00000000000E+00 0. -1.
        -12    1    3    3    0    0 -0.51547640647E+00  0.12978155286E+02  0.22942815345E+02  0.26364199334E+02  0.00000000000E+00 0.  1.
        -13    1    4    4    0    0  0.64015558557E+02 -0.17345273891E+02 -0.82259826757E+02  0.10566706848E+03  0.00000000000E+00 0. -1.
         13    1    4    4    0    0  0.31689998838E+00  0.28258292944E+02  0.69563223220E+01  0.29103641799E+02  0.00000000000E+00 0.  1.
         21    1    1    2  502  501 -0.93857603396E+01  0.27473520048E+02 -0.62567021921E+02  0.68974770990E+02  0.00000000000E+00 0.  1.
<scales pt_clust_5="13000.00000" pt_clust_6="13000.00000" pt_clust_7="13000.00000" pt_clust_8="13000.00000" pt_clust_9="29.03251"></scales>
<clustering>
<clus scale="   29.033">  2  9  1 -1</clus>
<clus scale="   75.307">  5  6 -1 -1</clus>
<clus scale="   90.746">  7  8 -1 -1</clus>
<clus scale="   99.595">  1  5  2 -1</clus>
<clus scale="   29.033">  2  5  1 -1</clus>
</clustering>
</event>
<event>
 9    1  0.2951046E-005  0.9276804E+02  0.7546771E-02  0.1304460E+00
         -2   -1    0    0    0  501 -0.00000000000E+00  0.00000000000E+00  0.74637851185E+02  0.74637851185E+02  0.00000000000E+00 0.  1.
          1   -1    0    0  502    0  0.00000000000E+00 -0.00000000000E+00 -0.27874401628E+03  0.27874401628E+03  0.00000000000E+00 0. -1.
         23    2    1    2    0    0 -0.11812535163E+02 -0.61584122598E+01  0.28209129824E+02  0.97245628073E+02  0.92105890937E+02 0.  0.
        -24    2    1    2    0    0 -0.11830716192E+02  0.13325679028E+02 -0.19729824398E+03  0.21328105412E+03  0.79023233329E+02 0.  0.
         13    1    4    4    0    0  0.79831024283E+01  0.41979473162E+02 -0.77261359848E+02  0.88291131021E+02  0.00000000000E+00 0. -1.
        -14    1    4    4    0    0 -0.19813818621E+02 -0.28653794135E+02 -0.12003688413E+03  0.12498992310E+03  0.00000000000E+00 0.  1.
        -13    1    3    3    0    0 -0.31854808007E+02 -0.20938367881E+02  0.50875264186E+02  0.63572293877E+02  0.00000000000E+00 0.  1.
         13    1    3    3    0    0  0.20042272844E+02  0.14779955621E+02 -0.22666134362E+02  0.33673334196E+02  0.00000000000E+00 0. -1.
         21    1    1    2  502  501  0.23643251355E+02 -0.71672667678E+01 -0.35017050946E+02  0.42855185270E+02  0.00000000000E+00 0. -1.
<scales pt_clust_5="13000.00000" pt_clust_6="13000.00000" pt_clust_7="13000.00000" pt_clust_8="13000.00000" pt_clust_9="24.70573"></scales>
<clustering>
<clus scale="   24.706">  2  9  1 -1</clus>
<clus scale="   79.023">  5  6 -1 -1</clus>
<clus scale="   79.794">  2  5  1 -1</clus>
<clus scale="   92.106">  7  8 -1 -1</clus>
<clus scale="   24.706">  2  5  1 -1</clus>
</clustering>
</event>
<event>
 9    1  0.2951046E-005  0.9521450E+02  0.7546771E-02  0.1297570E+00
         -2   -1    0    0    0  501 -0.00000000000E+00  0.00000000000E+00  0.14736222605E+03  0.14736222605E+03  0.00000000000E+00 0.  1.
          1   -1    0    0  502    0  0.00000000000E+00 -0.00000000000E+00 -0.85244935815E+02  0.85244935815E+02  0.00000000000E+00 0. -1.
        -24    2    1    2    0    0 -0.27684852264E+02 -0.21441651882E+02  0.77319662139E+02  0.11566642193E+03  0.78576049325E+02 0.  0.
         23    2    1    2    0    0  0.58582934310E+01  0.14569390838E+02 -0.58011984519E+01  0.92201930256E+02  0.90669483776E+02 0.  0.
         11    1    3    3    0    0  0.84172854765E+01 -0.41430464857E+02  0.52892424702E+02  0.67712204985E+02  0.00000000000E+00 0. -1.
        -12    1    3    3    0    0 -0.36102137740E+02  0.19988812975E+02  0.24427237437E+02  0.47954216941E+02  0.00000000000E+00 0.  1.
        -13    1    4    4    0    0 -0.21068169373E+02 -0.24605312160E+02  0.20045349562E+02  0.38093374571E+02  0.00000000000E+00 0.  1.
         13    1    4    4    0    0  0.26926462804E+02  0.39174702997E+02 -0.25846548014E+02  0.54108555684E+02  0.00000000000E+00 0. -1.
         21    1    1    2  502  501  0.21826558833E+02  0.68722610443E+01 -0.94011734513E+01  0.24738809685E+02  0.00000000000E+00 0.  1.
<scales pt_clust_5="13000.00000" pt_clust_6="13000.00000" pt_clust_7="13000.00000" pt_clust_8="13000.00000" pt_clust_9="22.88289"></scales>
<clustering>
<clus scale="   22.883">  2  9  1 -1</clus>
<clus scale="   78.576">  5  6 -1 -1</clus>
<clus scale="   83.780">  1  5  2 -1</clus>
<clus scale="   90.669">  7  8 -1 -1</clus>
<clus scale="   22.883">  2  5  1 -1</clus>
</clustering>
</event>
<event>
 9    1  0.2951046E-005  0.1044811E+03  0.7546771E-02  0.1273118E+00
          1   -1    0    0  502    0  0.00000000000E+00  0.00000000000E+00  0.11730893152E+03  0.11730893152E+03  0.00000000000E+00 0. -1.
         -2   -1    0    0    0  501 -0.00000000000E+00 -0.00000000000E+00 -0.28831658652E+03  0.28831658652E+03  0.00000000000E+00 0.  1.
         23    2    1    2    0    0 -0.41671389761E+02  0.34697157364E+01 -0.16758597729E+03  0.19490039659E+03  0.90291534234E+02 0.  0.
        -24    2    1    2    0    0  0.78258117501E+02 -0.77290984136E+01 -0.69173071435E+02  0.13535950087E+03  0.85750852751E+02 0.  0.
         11    1    4    4    0    0  0.87452099132E+02 -0.39465412735E+01 -0.26383934638E+02  0.91430612147E+02  0.00000000000E+00 0. -1.
        -12    1    4    4    0    0 -0.91939816312E+01 -0.37825571401E+01 -0.42789136797E+02  0.43928888725E+02  0.00000000000E+00 0.  1.
        -11    1    3    3    0    0 -0.34409020958E+02 -0.41278659627E+02 -0.99870268152E+02  0.11341066495E+03  0.00000000000E+00 0.  1.
         11    1    3    3    0    0 -0.72623688026E+01  0.44748375364E+02 -0.67715709143E+02  0.81489731641E+02  0.00000000000E+00 0. -1.
         21    1    1    2  502  501 -0.36586727740E+02  0.42593826772E+01  0.65751393726E+02  0.75365620574E+02  0.00000000000E+00 0. -1.
<scales pt_clust_5="13000.00000" pt_clust_6="13000.00000" pt_clust_7="13000.00000" pt_clust_8="13000.00000" pt_clust_9="36.83383"></scales>
<clustering>
<clus scale="   36.834">  1  9  2 -1</clus>
<clus scale="   85.751">  5  6 -1 -1</clus>
<clus scale="   90.292">  7  8 -1 -1</clus>
<clus scale="  100.583">  1  5  2 -1</clus>
<clus scale="   36.834">  1  5  2 -1</clus>
</clustering>
</event>
<event>
 9    1  0.2951046E-005  0.1313341E+03  0.7546771E-02  0.1228176E+00
         -2   -1    0    0    0  501 -0.00000000000E+00  0.00000000000E+00  0.59756752305E+02  0.59756752305E+02  0.00000000000E+00 0.  1.
          1   -1    0    0  502    0  0.00000000000E+00 -0.00000000000E+00 -0.70013527593E+03  0.70013527593E+03  0.00000000000E+00 0. -1.
         23    2    1    2    0    0  0.14499731345E+02  0.90044114761E+02 -0.46900348798E+02  0.13688630533E+03  0.90664397953E+02 0.  0.
        -24    2    1    2    0    0  0.21486023957E+02 -0.11534742923E+03 -0.39616419905E+03  0.42084727678E+03  0.79997994352E+02 0.  0.
         13    1    4    4    0    0  0.32810558659E+02 -0.11318529609E+03 -0.39070596734E+03  0.40809140756E+03  0.00000000000E+00 0. -1.
        -14    1    4    4    0    0 -0.11324534702E+02 -0.21621331470E+01 -0.54582317146E+01  0.12755869215E+02  0.00000000000E+00 0.  1.
        -11    1    3    3    0    0  0.24483125085E+02  0.71827956991E+02 -0.71793078446E+02  0.10446494595E+03  0.00000000000E+00 0.  1.
         11    1    3    3    0    0 -0.99833937399E+01  0.18216157769E+02  0.24892729648E+02  0.32421359376E+02  0.00000000000E+00 0. -1.
         21    1    1    2  502  501 -0.35985755302E+02  0.25303314473E+02 -0.19731397577E+03  0.20215844613E+03  0.00000000000E+00 0. -1.
<scales pt_clust_5="13000.00000" pt_clust_6="13000.00000" pt_clust_7="13000.00000" pt_clust_8="13000.00000" pt_clust_9="43.99128"></scales>
<clustering>
<clus scale="   43.991">  2  9  1 -1</clus>
<clus scale="   79.998">  5  6 -1 -1</clus>
<clus scale="   90.664">  7  8 -1 -1</clus>
<clus scale="  124.211">  2  5  1 -1</clus>
<clus scale="   43.991">  2  5  1 -1</clus>
</clustering>
</event>
<event>
 9    1  0.2951046E-005  0.1268244E+03  0.7546771E-02  0.1248334E+00
          1   -1    0    0  502    0  0.00000000000E+00  0.00000000000E+00  0.85101709487E+03  0.85101709487E+03  0.00000000000E+00 0. -1.
         -2   -1    0    0    0  501 -0.00000000000E+00 -0.00000000000E+00 -0.55847638035E+02  0.55847638035E+02  0.00000000000E+00 0.  1.
         23    2    1    2    0    0  0.10654236553E+02  0.36034130441E+01  0.17702776796E+02  0.93183514831E+02  0.90792520551E+02 0.  0.
        -24    2    1    2    0    0 -0.32720102544E+02  0.94191631806E+02  0.56070051191E+03  0.57485419932E+03  0.78291875777E+02 0.  0.
         13    1    4    4    0    0 -0.50642443909E+02  0.89493831511E+02  0.52089911286E+03  0.53095168216E+03  0.00000000000E+00 0. -1.
        -14    1    4    4    0    0  0.17922341365E+02  0.46978002953E+01  0.39801399047E+02  0.43902517169E+02  0.00000000000E+00 0.  1.
        -11    1    3    3    0    0 -0.34648193253E+02  0.23612669024E+02  0.93596396125E+01  0.42961125309E+02  0.00000000000E+00 0. -1.
         11    1    3    3    0    0  0.45302429807E+02 -0.20009255980E+02  0.83431371837E+01  0.50222389522E+02  0.00000000000E+00 0.  1.
         21    1    1    2  502  501  0.22065865991E+02 -0.97795044850E+02  0.21676616813E+03  0.23882701875E+03  0.00000000000E+00 0.  1.
<scales pt_clust_5="13000.00000" pt_clust_6="13000.00000" pt_clust_7="13000.00000" pt_clust_8="13000.00000" pt_clust_9="99.77376"></scales>
<clustering>
<clus scale="   78.292">  5  6 -1 -1</clus>
<clus scale="   90.793">  7  8 -1 -1</clus>
<clus scale="   91.486">  2  7  1 -1</clus>
<clus scale="   99.774">  2  9  1 -1</clus>
<clus scale="  126.824">  1  5  2 -1</clus>
</clustering>
</event>
<event>
 9    1  0.2951046E-005  0.1065922E+03  0.7546771E-02  0.1270531E+00
          1   -1    0    0  502    0  0.00000000000E+00  0.00000000000E+00  0.23206664771E+03  0.23206664771E+03  0.00000000000E+00 0. -1.
         -2   -1    0    0    0  501 -0.00000000000E+00 -0.00000000000E+00 -0.18145180607E+03  0.18145180607E+03  0.00000000000E+00 0.  1.
        -24    2    1    2    0    0  0.15801468748E+02  0.32006264182E+02 -0.13245674102E+03  0.15905664901E+03  0.80499329143E+02 0.  0.
         23    2    1    2    0    0 -0.10185775973E+02 -0.60061649396E+02  0.19548047098E+03  0.22327493006E+03  0.89038913386E+02 0.  0.
         11    1    3    3    0    0 -0.19360358676E+02 -0.54138723048E+01 -0.37026359970E+01  0.20441208739E+02  0.00000000000E+00 0. -1.
        -12    1    3    3    0    0  0.35161827423E+02  0.37420136487E+02 -0.12875410502E+03  0.13861544027E+03  0.00000000000E+00 0.  1.
        -13    1    4    4    0    0 -0.53454629946E+01  0.22937044850E+02  0.58154941282E+02  0.62742961331E+02  0.00000000000E+00 0.  1.
         13    1    4    4    0    0 -0.48403129781E+01 -0.82998694245E+02  0.13732552970E+03  0.16053196873E+03  0.00000000000E+00 0. -1.
         21    1    1    2  502  501 -0.56156927750E+01  0.28055385214E+02 -0.12408888315E+02  0.31186874708E+02  0.00000000000E+00 0.  1.
<scales pt_clust_5="13000.00000" pt_clust_6="13000.00000" pt_clust_7="13000.00000" pt_clust_8="13000.00000" pt_clust_9="28.61190"></scales>
<clustering>
<clus scale="   28.612">  2  9  1 -1</clus>
<clus scale="   80.499">  5  6 -1 -1</clus>
<clus scale="   89.039">  7  8 -1 -1</clus>
<clus scale="   99.570">  2  5  1 -1</clus>
<clus scale="  106.592">  1  5  2 -1</clus>
</clustering>
</event>
<event>
 9    1  0.2951046E-005  0.1098753E+03  0.7546771E-02  0.1266061E+00
          1   -1    0    0  502    0  0.00000000000E+00  0.00000000000E+00  0.39314298020E+02  0.39314298020E+02  0.00000000000E+00 0. -1.
         -2   -1    0    0    0  501 -0.00000000000E+00 -0.00000000000E+00 -0.36942479335E+03  0.36942479335E+03  0.00000000000E+00 0.  1.
        -24    2    1    2    0    0  0.25453438400E+02  0.55500004377E+02 -0.20986488905E+03  0.23326325141E+03  0.81488310756E+02 0.  0.
         23    2    1    2    0    0 -0.60005768859E+01 -0.48229401868E+02 -0.91837035047E+02  0.14028603460E+03  0.94255229931E+02 0.  0.
         13    1    3    3    0    0 -0.17715215234E+01  0.55292437083E+02 -0.62764868079E+02  0.83664930240E+02  0.00000000000E+00 0. -1.
        -14    1    3    3    0    0  0.27224959924E+02  0.20756729414E+00 -0.14710002097E+03  0.14959832117E+03  0.00000000000E+00 0.  1.
        -13    1    4    4    0    0  0.11556493449E+02 -0.26221380619E+02 -0.10526424098E+03  0.10909479260E+03  0.00000000000E+00 0.  1.
         13    1    4    4    0    0 -0.17557070335E+02 -0.22008021249E+02  0.13427205938E+02  0.31191241997E+02  0.00000000000E+00 0. -1.
         21    1    1    2  502  501 -0.19452861515E+02 -0.72706025095E+01 -0.28408571235E+02  0.35189805364E+02  0.00000000000E+00 0. -1.
<scales pt_clust_5="13000.00000" pt_clust_6="13000.00000" pt_clust_7="13000.00000" pt_clust_8="13000.00000" pt_clust_9="20.76717"></scales>
<clustering>
<clus scale="   20.767">  1  9  2 -1</clus>
<clus scale="   81.488">  5  6 -1 -1</clus>
<clus scale="   94.255">  7  8 -1 -1</clus>
<clus scale="   99.141">  2  5  1 -1</clus>
<clus scale="   20.767">  1  5  2 -1</clus>
</clustering>
</event>
<event>
 9    1  0.2951046E-005  0.1650445E+03  0.7546771E-02  0.1185048E+00
          1   -1    0    0  502    0  0.00000000000E+00  0.00000000000E+00  0.14165475132E+03  0.14165475132E+03  0.00000000000E+00 0. -1.
         -2   -1    0    0    0  501 -0.00000000000E+00 -0.00000000000E+00 -0.30109140223E+03  0.30109140223E+03  0.00000000000E+00 0.  1.
         23    2    1    2    0    0 -0.79144595485E+02 -0.12346446725E+03 -0.11985811453E+03  0.21044368152E+03  0.91723681800E+02 0.  0.
        -24    2    1    2    0    0  0.25137496844E+02  0.12971751594E+03 -0.71227146461E+02  0.16939379345E+03  0.78501103020E+02 0.  0.
         11    1    4    4    0    0 -0.17712314942E+02  0.97488212642E+02 -0.55246940596E+02  0.11344559114E+03  0.00000000000E+00 0. -1.
        -12    1    4    4    0    0  0.42849811786E+02  0.32229303299E+02 -0.15980205865E+02  0.55948202301E+02  0.00000000000E+00 0.  1.
        -11    1    3    3    0    0 -0.75705903410E+02 -0.92517643498E+02 -0.42197568407E+02  0.12677354988E+03  0.00000000000E+00 0. -1.
         11    1    3    3    0    0 -0.34386920748E+01 -0.30946823754E+02 -0.77660546128E+02  0.83670131640E+02  0.00000000000E+00 0.  1.
         21    1    1    2  502  501  0.54007098640E+02 -0.62530486898E+01  0.31648610078E+02  0.62908678585E+02  0.00000000000E+00 0.  1.
<scales pt_clust_5="13000.00000" pt_clust_6="13000.00000" pt_clust_7="13000.00000" pt_clust_8="13000.00000" pt_clust_9="54.36789"></scales>
<clustering>
<clus scale="   54.368">  1  9  2 -1</clus>
<clus scale="   78.501">  5  6 -1 -1</clus>
<clus scale="   91.724">  7  8 -1 -1</clus>
<clus scale="  158.079">  1  5  2 -1</clus>
<clus scale="   54.368">  1  5  2 -1</clus>
</clustering>
</event>
<event>
 9    1  0.2951046E-005  0.1080418E+03  0.7546771E-02  0.1271216E+00
          1   -1    0    0  502    0  0.00000000000E+00  0.00000000000E+00  0.61630340647E+03  0.61630340647E+03  0.00000000000E+00 0. -1.
         -2   -1    0    0    0  501 -0.00000000000E+00 -0.00000000000E+00 -0.61444676477E+02  0.61444676477E+02  0.00000000000E+00 0.  1.
         23    2    1    2    0    0  0.49538352447E+02 -0.19501195364E+02  0.16157252227E+02  0.10584567538E+03  0.90043907137E+02 0.  0.
        -24    2    1    2    0    0 -0.89318196832E+02  0.60670182673E+02  0.42586842819E+03  0.44537723769E+03  0.73064042986E+02 0.  0.
         13    1    4    4    0    0 -0.84786544960E+02  0.34344491430E+02  0.22726016259E+03  0.24498057841E+03  0.00000000000E+00 0. -1.
        -14    1    4    4    0    0 -0.45316518719E+01  0.26325691243E+02  0.19860826560E+03  0.20039665928E+03  0.00000000000E+00 0.  1.
        -13    1    3    3    0    0 -0.25050328929E+02 -0.36284536958E+01  0.15310660721E+02  0.29582105865E+02  0.00000000000E+00 0. -1.
         13    1    3    3    0    0  0.74588681375E+02 -0.15872741668E+02  0.84659150566E+00  0.76263569511E+02  0.00000000000E+00 0.  1.
         21    1    1    2  502  501  0.39779844385E+02 -0.41168987310E+02  0.11283304958E+03  0.12652516988E+03  0.00000000000E+00 0.  1.
<scales pt_clust_5="13000.00000" pt_clust_6="13000.00000" pt_clust_7="13000.00000" pt_clust_8="13000.00000" pt_clust_9="57.24790"></scales>
<clustering>
<clus scale="   57.248">  1  9  2 -1</clus>
<clus scale="   73.064">  5  6 -1 -1</clus>
<clus scale="   90.044">  7  8 -1 -1</clus>
<clus scale="   94.358">  1  5  2 -1</clus>
<clus scale="   57.248">  1  5  2 -1</clus>
</clustering>
</event>
<event>
 9    1  0.2951046E-005  0.1017683E+03  0.7546771E-02  0.1281765E+00
         -2   -1    0    0    0  501 -0.00000000000E+00  0.00000000000E+00  0.36078398220E+02  0.36078398220E+02  0.00000000000E+00 0.  1.
          1   -1    0    0  502    0  0.00000000000E+00 -0.00000000000E+00 -0.52623920660E+03  0.52623920660E+03  0.00000000000E+00 0. -1.
         23    2    1    2    0    0  0.42965856051E+02 -0.32520135743E+02 -0.74503071979E+02  0.12919707019E+03  0.90760956345E+02 0.  0.
        -24    2    1    2    0    0 -0.11637246452E+02  0.27743488670E+02 -0.24305510650E+03  0.25763274022E+03  0.79960723925E+02 0.  0.
         13    1    4    4    0    0 -0.14929448227E+02  0.39332005765E+02 -0.24189925197E+03  0.24553033052E+03  0.00000000000E+00 0. -1.
        -14    1    4    4    0    0  0.32922017751E+01 -0.11588517096E+02 -0.11558545342E+01  0.12102409707E+02  0.00000000000E+00 0.  1.
        -11    1    3    3    0    0  0.40939781572E+02  0.18287205574E+02 -0.81039224901E+01  0.45564911529E+02  0.00000000000E+00 0.  1.
         11    1    3    3    0    0  0.20260744784E+01 -0.50807341317E+02 -0.66399149489E+02  0.83632158662E+02  0.00000000000E+00 0. -1.
         21    1    1    2  502  501 -0.31328609599E+02  0.47766470737E+01 -0.17260262990E+03  0.17548779441E+03  0.00000000000E+00 0. -1.
<scales pt_clust_5="13000.00000" pt_clust_6="13000.00000" pt_clust_7="13000.00000" pt_clust_8="13000.00000" pt_clust_9="31.69066"></scales>
<clustering>
<clus scale="   31.691">  2  9  1 -1</clus>
<clus scale="   79.961">  5  6 -1 -1</clus>
<clus scale="   90.761">  7  8 -1 -1</clus>
<clus scale="   92.266">  2  5  1 -1</clus>
<clus scale="   31.691">  2  5  1 -1</clus>
</clustering>
</event>
<event>
 9    1  0.2951046E-005  0.1152524E+03  0.7546771E-02  0.1258773E+00
         -2   -1    0    0    0  501 -0.00000000000E+00  0.00000000000E+00  0.24387330249E+03  0.24387330249E+03  0.00000000000E+00 0.  1.
          1   -1    0    0  502    0  0.00000000000E+00 -0.00000000000E+00 -0.10365124769E+03  0.10365124769E+03  0.00000000000E+00 0. -1.
         23    2    1    2    0    0 -0.74521667987E+02  0.11636959871E+02  0.16357657730E+03  0.20488825572E+03  0.97637097745E+02 0.  0.
        -24    2    1    2    0    0  0.36827077161E+02  0.26354439795E+01  0.14427154308E+02  0.87391034103E+02  0.77883701010E+02 0.  0.
         11    1    4    4    0    0  0.31668512161E+02  0.35711662350E+02 -0.61056896208E+01  0.48119610722E+02  0.00000000000E+00 0. -1.
        -12    1    4    4    0    0  0.51585650002E+01 -0.33076218371E+02  0.20532843928E+02  0.39271423381E+02  0.00000000000E+00 0.  1.
        -13    1    3    3    0    0 -0.36170210890E+02 -0.34977863473E+01  0.15935167404E+03  0.16344257305E+03  0.00000000000E+00 0.  1.
         13    1    3    3    0    0 -0.38351457097E+02  0.15134746218E+02  0.42249032596E+01  0.41445682671E+02  0.00000000000E+00 0. -1.
         21    1    1    2  502  501  0.37694590826E+02 -0.14272403850E+02 -0.37781676814E+02  0.55245260358E+02  0.00000000000E+00 0. -1.
<scales pt_clust_5="13000.00000" pt_clust_6="13000.00000" pt_clust_7="13000.00000" pt_clust_8="13000.00000" pt_clust_9="40.30612"></scales>
<clustering>
<clus scale="   40.306">  2  9  1 -1</clus>
<clus scale="   77.884">  5  6 -1 -1</clus>
<clus scale="   97.637">  7  8 -1 -1</clus>
<clus scale="   99.076">  2  5  1 -1</clus>
<clus scale="   40.306">  2  5  1 -1</clus>
</clustering>
</event>
<event>
 9    1  0.2951046E-005  0.8710551E+02  0.7546771E-02  0.1319215E+00
          1   -1    0    0  502    0  0.00000000000E+00  0.00000000000E+00  0.46224034401E+02  0.46224034401E+02  0.00000000000E+00 0. -1.
         -2   -1    0    0    0  501 -0.00000000000E+00 -0.00000000000E+00 -0.70979560254E+03  0.70979560254E+03  0.00000000000E+00 0.  1.
        -24    2    1    2    0    0 -0.30593475818E+02  0.50427093698E+01 -0.64333301663E+03  0.64918652635E+03  0.81267373702E+02 0.  0.
         23    2    1    2    0    0  0.38260840114E+02  0.18854286127E+02 -0.10700112919E+02  0.79984708784E+02  0.66810816724E+02 0.  0.
         11    1    3    3    0    0 -0.32806705306E+02 -0.26011110825E+02 -0.17983896795E+03  0.18464807661E+03  0.00000000000E+00 0. -1.
        -12    1    3    3    0    0  0.22132294873E+01  0.31053820195E+02 -0.46349404867E+03  0.46453844974E+03  0.00000000000E+00 0.  1.
        -13    1    4    4    0    0 -0.12179849215E+02  0.18114247386E+02 -0.18903560563E+02  0.28875929201E+02  0.00000000000E+00 0.  1.
         13    1    4    4    0    0  0.50440689328E+02  0.74003874049E+00  0.82034476442E+01  0.51108779583E+02  0.00000000000E+00 0. -1.
         21    1    1    2  502  501 -0.76673642953E+01 -0.23896995496E+02 -0.95384385948E+01  0.26848401811E+02  0.00000000000E+00 0. -1.
<scales pt_clust_5="13000.00000" pt_clust_6="13000.00000" pt_clust_7="13000.00000" pt_clust_8="13000.00000" pt_clust_9="25.09691"></scales>
<clustering>
<clus scale="   25.097">  1  9  2 -1</clus>
<clus scale="   66.811">  7  8 -1 -1</clus>
<clus scale="   73.802">  1  7  2 -1</clus>
<clus scale="   81.267">  5  6 -1 -1</clus>
<clus scale="   25.097">  1  5  2 -1</clus>
</clustering>
</event>
<event>
 9    1  0.2951046E-005  0.1419597E+03  0.7546771E-02  0.1212313E+00
          1   -1    0    0  502    0  0.00000000000E+00  0.00000000000E+00  0.71868183738E+03  0.71868183738E+03  0.00000000000E+00 0. -1.
         -2   -1    0    0    0  501 -0.00000000000E+00 -0.00000000000E+00 -0.33773335042E+02  0.33773335042E+02  0.00000000000E+00 0.  1.
        -24    2    1    2    0    0 -0.11657667549E+03  0.14380882223E+02  0.24233938136E+03  0.28143305172E+03  0.81726714137E+02 0.  0.
         23    2    1    2    0    0  0.95777604060E+02 -0.30722893917E+02  0.37737837220E+03  0.40066946299E+03  0.89466961082E+02 0.  0.
         11    1    3    3    0    0 -0.70821293417E+02 -0.24808852934E+02  0.87409062519E+02  0.11520190535E+03  0.00000000000E+00 0. -1.
        -12    1    3    3    0    0 -0.45755382077E+02  0.39189735156E+02  0.15493031884E+03  0.16623114638E+03  0.00000000000E+00 0.  1.
        -13    1    4    4    0    0  0.32099386122E+02  0.29874500484E+02  0.89420827308E+02  0.99593878954E+02  0.00000000000E+00 0.  1.
         13    1    4    4    0    0  0.63678217938E+02 -0.60597394401E+02  0.28795754489E+03  0.30107558404E+03  0.00000000000E+00 0. -1.
         21    1    1    2  502  501  0.20799071435E+02  0.16342011694E+02  0.65190748785E+02  0.70352657703E+02  0.00000000000E+00 0. -1.
<scales pt_clust_5="13000.00000" pt_clust_6="13000.00000" pt_clust_7="13000.00000" pt_clust_8="13000.00000" pt_clust_9="26.45114"></scales>
<clustering>
<clus scale="   26.451">  1  9  2 -1</clus>
<clus scale="   81.727">  5  6 -1 -1</clus>
<clus scale="   89.467">  7  8 -1 -1</clus>
<clus scale="  137.213">  2  5  1 -1</clus>
<clus scale="   26.451">  1  5  2 -1</clus>
</clustering>
</event>
<event>
 9    1  0.2951046E-005  0.1050385E+03  0.7546771E-02  0.1276591E+00
         -2   -1    0    0    0  501 -0.00000000000E+00  0.00000000000E+00  0.31410169366E+03  0.31410169366E+03  0.00000000000E+00 0.  1.
          1   -1    0    0  502    0  0.00000000000E+00 -0.00000000000E+00 -0.62353211010E+02  0.62353211010E+02  0.00000000000E+00 0. -1.
         23    2    1    2    0    0 -0.11716874885E+02 -0.41463804423E+02  0.22118936599E+03  0.24462613941E+03  0.95187605383E+02 0.  0.
        -24    2    1    2    0    0  0.34741190559E+02  0.38304680903E+02  0.42980731786E+02  0.10547737637E+03  0.81264596975E+02 0.  0.
         13    1    4    4    0    0  0.31831620663E+02 -0.11040916157E+02 -0.78288555385E+01  0.34589664391E+02  0.00000000000E+00 0. -1.
        -14    1    4    4    0    0  0.29095698960E+01  0.49345597060E+02  0.50809587324E+02  0.70887711984E+02  0.00000000000E+00 0.  1.
        -11    1    3    3    0    0 -0.49793389388E+02 -0.24214866753E+01  0.10035917759E+03  0.11205895658E+03  0.00000000000E+00 0.  1.
         11    1    3    3    0    0  0.38076514503E+02 -0.39042317748E+02  0.12083018841E+03  0.13256718283E+03  0.00000000000E+00 0. -1.
         21    1    1    2  502  501 -0.23024315674E+02  0.31591235197E+01 -0.12421615132E+02  0.26351388885E+02  0.00000000000E+00 0.  1.
<scales pt_clust_5="13000.00000" pt_clust_6="13000.00000" pt_clust_7="13000.00000" pt_clust_8="13000.00000" pt_clust_9="23.24003"></scales>
<clustering>
<clus scale="   23.240">  2  9  1 -1</clus>
<clus scale="   81.265">  5  6 -1 -1</clus>
<clus scale="   92.609">  2  5  1 -1</clus>
<clus scale="   95.188">  7  8 -1 -1</clus>
<clus scale="   23.240">  2  5  1 -1</clus>
</clustering>
</event>
<event>
 9    1  0.2951046E-005  0.1138893E+03  0.7546771E-02  0.1259399E+00
         -4   -1    0    0    0  501 -0.00000000000E+00  0.00000000000E+00  0.19292435092E+03  0.19292435092E+03  0.00000000000E+00 0.  1.
          3   -1    0    0  502    0  0.00000000000E+00 -0.00000000000E+00 -0.11267337030E+03  0.11267337030E+03  0.00000000000E+00 0. -1.
        -24    2    1    2    0    0  0.34672871572E+02 -0.55193282169E+02  0.10308703494E+03  0.14595405770E+03  0.80169469040E+02 0.  0.
         23    2    1    2    0    0 -0.60344822814E+02  0.20416678145E+02 -0.17534291519E+02  0.11609403715E+03  0.95456983480E+02 0.  0.
         11    1    3    3    0    0  0.49406962022E+02 -0.26998750561E+02  0.24938277738E+02  0.61578390079E+02  0.00000000000E+00 0. -1.
        -12    1    3    3    0    0 -0.14734090450E+02 -0.28194531608E+02  0.78148757203E+02  0.84375667620E+02  0.00000000000E+00 0.  1.
        -13    1    4    4    0    0  0.24585339969E+02  0.15044462706E+02  0.16072475864E+01  0.28867941463E+02  0.00000000000E+00 0. -1.
         13    1    4    4    0    0 -0.84930162783E+02  0.53722154386E+01 -0.19141539105E+02  0.87226095684E+02  0.00000000000E+00 0.  1.
         21    1    1    2  502  501  0.25671951242E+02  0.34776604024E+02 -0.53017628051E+01  0.43549626369E+02  0.00000000000E+00 0. -1.
<scales pt_clust_5="13000.00000" pt_clust_6="13000.00000" pt_clust_7="13000.00000" pt_clust_8="13000.00000" pt_clust_9="43.22570"></scales>
<clustering>
<clus scale="   43.226">  2  9  1 -1</clus>
<clus scale="   80.169">  5  6 -1 -1</clus>
<clus scale="   95.457">  7  8 -1 -1</clus>
<clus scale="  101.419">  1  5  2 -1</clus>
<clus scale="   43.226">  2  5  1 -1</clus>
</clustering>
</event>
<event>
 9    1  0.2951046E-005  0.1125240E+03  0.7546771E-02  0.1258176E+00
          1   -1    0    0  502    0  0.00000000000E+00  0.00000000000E+00  0.49990415172E+03  0.49990415172E+03  0.00000000000E+00 0. -1.
         -2   -1    0    0    0  501 -0.00000000000E+00 -0.00000000000E+00 -0.48589923012E+02  0.48589923012E+02  0.00000000000E+00 0.  1.
        -24    2    1    2    0    0  0.36824475257E+02  0.58988863815E+02  0.40460088421E+02  0.11702869213E+03  0.84988046182E+02 0.  0.
         23    2    1    2    0    0 -0.14548586771E+02 -0.49956009928E+02  0.36415561526E+03  0.37894338820E+03  0.91002829770E+02 0.  0.
         13    1    3    3    0    0  0.31640345278E+02  0.43985850659E+02  0.66961113513E+02  0.86137432225E+02  0.00000000000E+00 0. -1.
        -14    1    3    3    0    0  0.51841299791E+01  0.15003013155E+02 -0.26501025092E+02  0.30891259902E+02  0.00000000000E+00 0.  1.
        -11    1    4    4    0    0 -0.14677856983E+02 -0.76195135679E+02  0.24776719943E+03  0.25963382541E+03  0.00000000000E+00 0. -1.
         11    1    4    4    0    0  0.12927021247E+00  0.26239125751E+02  0.11638841584E+03  0.11930956279E+03  0.00000000000E+00 0.  1.
         21    1    1    2  502  501 -0.22275888486E+02 -0.90328538869E+01  0.46698525023E+02  0.52521994407E+02  0.00000000000E+00 0. -1.
<scales pt_clust_5="13000.00000" pt_clust_6="13000.00000" pt_clust_7="13000.00000" pt_clust_8="13000.00000" pt_clust_9="24.03763"></scales>
<clustering>
<clus scale="   24.038">  1  9  2 -1</clus>
<clus scale="   84.988">  5  6 -1 -1</clus>
<clus scale="   91.003">  7  8 -1 -1</clus>
<clus scale="  107.718">  2  5  1 -1</clus>
<clus scale="   24.038">  1  5  2 -1</clus>
</clustering>
</event>
<event>
 9    1  0.2951046E-005  0.1376696E+03  0.7546771E-02  0.1219592E+00
         -2   -1    0    0    0  501 -0.00000000000E+00  0.00000000000E+00  0.98579280972E+02  0.98579280972E+02  0.00000000000E+00 0.  1.
          1   -1    0    0  502    0  0.00000000000E+00 -0.00000000000E+00 -0.93945115630E+03  0.93945115630E+03  0.00000000000E+00 0. -1.
         23    2    1    2    0    0 -0.90551855398E+02  0.52694348238E+02  0.36637408655E+02  0.14665239466E+03  0.95855580399E+02 0.  0.
        -24    2    1    2    0    0  0.43002947416E+02 -0.12627339956E+02 -0.50619250750E+03  0.51489110751E+03  0.82905336068E+02 0.  0.
         11    1    4    4    0    0  0.21395869066E+02 -0.47965420843E+02 -0.30329254445E+03  0.30780648519E+03  0.00000000000E+00 0. -1.
        -12    1    4    4    0    0  0.21607078350E+02  0.35338080887E+02 -0.20289996305E+03  0.20708462232E+03  0.00000000000E+00 0.  1.
        -11    1    3    3    0    0 -0.60483117571E+02  0.77495037893E+02  0.42753233102E+02  0.10719854173E+03  0.00000000000E+00 0.  1.
         11    1    3    3    0    0 -0.30068737827E+02 -0.24800689655E+02 -0.61158244473E+01  0.39453852924E+02  0.00000000000E+00 0. -1.
         21    1    1    2  502  501  0.47548907982E+02 -0.40067008282E+02 -0.37131677649E+03  0.37648693510E+03  0.00000000000E+00 0. -1.
<scales pt_clust_5="13000.00000" pt_clust_6="13000.00000" pt_clust_7="13000.00000" pt_clust_8="13000.00000" pt_clust_9="62.17929"></scales>
<clustering>
<clus scale="   62.179">  2  9  1 -1</clus>
<clus scale="   82.905">  5  6 -1 -1</clus>
<clus scale="   95.856">  7  8 -1 -1</clus>
<clus scale="  128.988">  2  5  1 -1</clus>
<clus scale="   62.179">  2  5  1 -1</clus>
</clustering>
</event>
<event>
 9    1  0.2951046E-005  0.9591079E+02  0.7546771E-02  0.1293779E+00
          1   -1    0    0  502    0  0.00000000000E+00  0.00000000000E+00  0.14938036336E+03  0.14938036336E+03  0.00000000000E+00 0. -1.
         -2   -1    0    0    0  501 -0.00000000000E+00 -0.00000000000E+00 -0.14762542633E+03  0.14762542633E+03  0.00000000000E+00 0.  1.
        -24    2    1    2    0    0 -0.25920449625E+02  0.39738088501E+00 -0.10124211251E+03  0.13408824621E+03  0.84009908962E+02 0.  0.
         23    2    1    2    0    0  0.25205922830E+02 -0.22204119316E+02  0.10117707814E+03  0.14102332768E+03  0.92316934249E+02 0.  0.
         13    1    3    3    0    0  0.22428069757E+02 -0.14045536638E+02 -0.72992699088E+01  0.27451316065E+02  0.00000000000E+00 0. -1.
        -14    1    3    3    0    0 -0.48348519383E+02  0.14442917523E+02 -0.93942842606E+02  0.10663693014E+03  0.00000000000E+00 0.  1.
        -13    1    4    4    0    0  0.53972233396E+02  0.96334020914E+01  0.63779817834E+02  0.84105110288E+02  0.00000000000E+00 0. -1.
         13    1    4    4    0    0 -0.28766310566E+02 -0.31837521407E+02  0.37397260310E+02  0.56918217397E+02  0.00000000000E+00 0.  1.
         21    1    1    2  502  501  0.71452679518E+00  0.21806738431E+02  0.18199713968E+01  0.21894215798E+02  0.00000000000E+00 0. -1.
<scales pt_clust_5="13000.00000" pt_clust_6="13000.00000" pt_clust_7="13000.00000" pt_clust_8="13000.00000" pt_clust_9="21.81844"></scales>
<clustering>
<clus scale="   21.818">  1  9  2 -1</clus>
<clus scale="   84.010">  5  6 -1 -1</clus>
<clus scale="   87.944">  2  5  1 -1</clus>
<clus scale="   92.317">  7  8 -1 -1</clus>
<clus scale="   21.818">  1  5  2 -1</clus>
</clustering>
</event>
<event>
 9    1  0.2951046E-005  0.9559378E+02  0.7546771E-02  0.1296940E+00
         -2   -1    0    0    0  501 -0.00000000000E+00  0.00000000000E+00  0.23220331265E+03  0.23220331265E+03  0.00000000000E+00 0.  1.
          1   -1    0    0  502    0  0.00000000000E+00 -0.00000000000E+00 -0.10239138975E+03  0.10239138975E+03  0.00000000000E+00 0. -1.
        -24    2    1    2    0    0 -0.30253284823E+02  0.17391448577E+02  0.17858201421E+03  0.19737655507E+03  0.76473818814E+02 0.  0.
         23    2    1    2    0    0  0.11596243849E+02 -0.36234484034E+02 -0.21947087010E+02  0.99500529135E+02  0.89281968870E+02 0.  0.
         13    1    3    3    0    0  0.23415437821E+02  0.23851464389E+01  0.87399462720E+02  0.90513190948E+02  0.00000000000E+00 0. -1.
        -14    1    3    3    0    0 -0.53668722645E+02  0.15006302138E+02  0.91182551491E+02  0.10686336412E+03  0.00000000000E+00 0.  1.
        -13    1    4    4    0    0 -0.10025991410E+01 -0.64770436046E+02 -0.21667276101E+02  0.68305822916E+02  0.00000000000E+00 0. -1.
         13    1    4    4    0    0  0.12598842990E+02  0.28535952012E+02 -0.27981090815E+00  0.31194706218E+02  0.00000000000E+00 0.  1.
         21    1    1    2  502  501  0.18657040975E+02  0.18843035457E+02 -0.26823004301E+02  0.37717618203E+02  0.00000000000E+00 0.  1.
<scales pt_clust_5="13000.00000" pt_clust_6="13000.00000" pt_clust_7="13000.00000" pt_clust_8="13000.00000" pt_clust_9="26.51688"></scales>
<clustering>
<clus scale="   26.517">  2  9  1 -1</clus>
<clus scale="   76.474">  5  6 -1 -1</clus>
<clus scale="   83.756">  1  5  2 -1</clus>
<clus scale="   89.282">  7  8 -1 -1</clus>
<clus scale="   26.517">  2  5  1 -1</clus>
</clustering>
</event>
<event>
 9    1  0.2951046E-005  0.9746552E+02  0.7546771E-02  0.1291207E+00
         -4   -1    0    0    0  501 -0.00000000000E+00  0.00000000000E+00  0.20842130108E+03  0.20842130108E+03  0.00000000000E+00 0.  1.
          3   -1    0    0  502    0  0.00000000000E+00 -0.00000000000E+00 -0.73523403554E+02  0.73523403554E+02  0.00000000000E+00 0. -1.
         23    2    1    2    0    0  0.22574485411E+02 -0.25035838927E+02  0.13631469990E+03  0.16764072987E+03  0.91571372600E+02 0.  0.
        -24    2    1    2    0    0 -0.44622841643E+01  0.37242001939E+02 -0.11394381381E+02  0.90291596032E+02  0.81337947469E+02 0.  0.
         13    1    4    4    0    0  0.77779015950E+01  0.57850060946E+02 -0.24115467023E+02  0.63156005687E+02  0.00000000000E+00 0. -1.
        -14    1    4    4    0    0 -0.12240185759E+02 -0.20608059007E+02  0.12721085641E+02  0.27135590344E+02  0.00000000000E+00 0.  1.
        -13    1    3    3    0    0 -0.14378622591E+02 -0.36830859328E+02  0.11856321152E+03  0.12498196715E+03  0.00000000000E+00 0.  1.
         13    1    3    3    0    0  0.36953108003E+02  0.11795020401E+02  0.17751488386E+02  0.42658762725E+02  0.00000000000E+00 0. -1.
         21    1    1    2  502  501 -0.18112201247E+02 -0.12206163012E+02  0.99775790045E+01  0.24012378730E+02  0.00000000000E+00 0.  1.
<scales pt_clust_5="13000.00000" pt_clust_6="13000.00000" pt_clust_7="13000.00000" pt_clust_8="13000.00000" pt_clust_9="21.84130"></scales>
<clustering>
<clus scale="   21.841">  2  9  1 -1</clus>
<clus scale="   81.338">  5  6 -1 -1</clus>
<clus scale="   87.921">  2  5  1 -1</clus>
<clus scale="   91.571">  7  8 -1 -1</clus>
<clus scale="   21.841">  2  5  1 -1</clus>
</clustering>
</event>
<event>
 9    1  0.2951046E-005  0.1010069E+03  0.7546771E-02  0.1286386E+00
          1   -1    0    0  502    0  0.00000000000E+00  0.00000000000E+00  0.90776838801E+03  0.90776838801E+03  0.00000000000E+00 0. -1.
         -2   -1    0    0    0  501 -0.00000000000E+00 -0.00000000000E+00 -0.65507908652E+02  0.65507908652E+02  0.00000000000E+00 0.  1.
         23    2    1    2    0    0  0.13493565432E+02  0.38730840661E+02 -0.90925887333E+01  0.10069681811E+03  0.91515133621E+02 0.  0.
        -24    2    1    2    0    0  0.44105011583E+02 -0.80296130234E+02  0.58753923640E+03  0.59937075401E+03  0.75167984405E+02 0.  0.
         11    1    4    4    0    0  0.61396062633E+02 -0.76880468475E+02  0.44504806796E+03  0.45579366575E+03  0.00000000000E+00 0. -1.
        -12    1    4    4    0    0 -0.17291051051E+02 -0.34156617585E+01  0.14249116844E+03  0.14357708826E+03  0.00000000000E+00 0.  1.
        -11    1    3    3    0    0 -0.29060890399E+02  0.32286320332E+02 -0.30055916979E+02  0.52823290098E+02  0.00000000000E+00 0.  1.
         11    1    3    3    0    0  0.42554455831E+02  0.64445203290E+01  0.20963328246E+02  0.47873528014E+02  0.00000000000E+00 0. -1.
         21    1    1    2  502  501 -0.57598577014E+02  0.41565289573E+02  0.26381383169E+03  0.27320872454E+03  0.00000000000E+00 0. -1.
<scales pt_clust_5="13000.00000" pt_clust_6="13000.00000" pt_clust_7="13000.00000" pt_clust_8="13000.00000" pt_clust_9="71.03006"></scales>
<clustering>
<clus scale="   71.030">  1  9  2 -1</clus>
<clus scale="   75.168">  5  6 -1 -1</clus>
<clus scale="   86.473">  1  5  2 -1</clus>
<clus scale="   91.515">  7  8 -1 -1</clus>
<clus scale="   71.030">  1  5  2 -1</clus>
</clustering>
</event>
<event>
 9    1  0.2951046E-005  0.9652126E+02  0.7546771E-02  0.1293935E+00
         -2   -1    0    0    0  501 -0.00000000000E+00  0.00000000000E+00  0.35156193264E+03  0.35156193264E+03  0.00000000000E+00 0.  1.
          1   -1    0    0  502    0  0.00000000000E+00 -0.00000000000E+00 -0.61183314664E+02  0.61183314664E+02  0.00000000000E+00 0. -1.
        -24    2    1    2    0    0 -0.10271817881E+02 -0.29604078813E+02  0.27317740815E+03  0.28643071088E+03  0.80216856619E+02 0.  0.
         23    2    1    2    0    0  0.28349368905E+02  0.20681549687E+02  0.30073970109E+02  0.10239556207E+03  0.91372830969E+02 0.  0.
         13    1    3    3    0    0  0.25249551774E+02 -0.15893571013E+02  0.38615599014E+02  0.48798667518E+02  0.00000000000E+00 0. -1.
        -14    1    3    3    0    0 -0.35521369656E+02 -0.13710507800E+02  0.23456180913E+03  0.23763204336E+03  0.00000000000E+00 0.  1.
        -13    1    4    4    0    0 -0.90363372008E+01  0.18190335060E+02 -0.27204599181E+02  0.33950462385E+02  0.00000000000E+00 0. -1.
         13    1    4    4    0    0  0.37385706105E+02  0.24912146267E+01  0.57278569289E+02  0.68445099687E+02  0.00000000000E+00 0.  1.
         21    1    1    2  502  501 -0.18077551023E+02  0.89225291260E+01 -0.12872760280E+02  0.23918974356E+02  0.00000000000E+00 0.  1.
<scales pt_clust_5="13000.00000" pt_clust_6="13000.00000" pt_clust_7="13000.00000" pt_clust_8="13000.00000" pt_clust_9="20.15960"></scales>
<clustering>
<clus scale="   20.160">  2  9  1 -1</clus>
<clus scale="   80.217">  5  6 -1 -1</clus>
<clus scale="   86.035">  1  5  2 -1</clus>
<clus scale="   91.373">  7  8 -1 -1</clus>
<clus scale="   20.160">  2  5  1 -1</clus>
</clustering>
</event>
<event>
 9    1  0.2951046E-005  0.9628806E+02  0.7546771E-02  0.1296984E+00
         -2   -1    0    0    0  501 -0.00000000000E+00  0.00000000000E+00  0.10125227964E+03  0.10125227964E+03  0.00000000000E+00 0.  1.
          1   -1    0    0  502    0  0.00000000000E+00 -0.00000000000E+00 -0.16862320024E+03  0.16862320024E+03  0.00000000000E+00 0. -1.
        -24    2    1    2    0    0  0.21901579583E+02 -0.79323687470E+00  0.50991598143E+02  0.96887336045E+02  0.79414761800E+02 0.  0.
         23    2    1    2    0    0 -0.67139025512E+01  0.23880416345E+02 -0.10119233891E+03  0.14045357045E+03  0.94191110128E+02 0.  0.
         13    1    3    3    0    0 -0.24897144391E+02  0.18837698539E+02  0.14773649913E+02  0.34539649923E+02  0.00000000000E+00 0. -1.
        -14    1    3    3    0    0  0.46798723974E+02 -0.19630935413E+02  0.36217948230E+02  0.62347686122E+02  0.00000000000E+00 0.  1.
        -13    1    4    4    0    0 -0.31810666554E+02  0.65023907050E+01 -0.10480061932E+03  0.10971494612E+03  0.00000000000E+00 0. -1.
         13    1    4    4    0    0  0.25096764003E+02  0.17378025640E+02  0.36082804125E+01  0.30738624336E+02  0.00000000000E+00 0.  1.
         21    1    1    2  502  501 -0.15187677032E+02 -0.23087179470E+02 -0.17170179839E+02  0.32534573383E+02  0.00000000000E+00 0. -1.
<scales pt_clust_5="13000.00000" pt_clust_6="13000.00000" pt_clust_7="13000.00000" pt_clust_8="13000.00000" pt_clust_9="27.63482"></scales>
<clustering>
<clus scale="   27.635">  2  9  1 -1</clus>
<clus scale="   79.415">  5  6 -1 -1</clus>
<clus scale="   81.891">  1  5  2 -1</clus>
<clus scale="   94.191">  7  8 -1 -1</clus>
<clus scale="   27.635">  2  5  1 -1</clus>
</clustering>
</event>
<event>
 9    1  0.2951046E-005  0.1001325E+03  0.7546771E-02  0.1287585E+00
         -2   -1    0    0    0  501 -0.00000000000E+00  0.00000000000E+00  0.83631105020E+02  0.83631105020E+02  0.00000000000E+00 0.  1.
          1   -1    0    0  502    0  0.00000000000E+00 -0.00000000000E+00 -0.34329439043E+03  0.34329439043E+03  0.00000000000E+00 0. -1.
        -24    2    1    2    0    0  0.39067474627E+02 -0.14619048459E+02  0.38626838313E+02  0.95425918968E+02  0.76642607088E+02 0.  0.
         23    2    1    2    0    0 -0.17036505384E+02  0.44906066300E+02 -0.18150716199E+03  0.20885811854E+03  0.91488067635E+02 0.  0.
         11    1    3    3    0    0  0.53851004424E+02 -0.18225863525E+02  0.32841216785E+01  0.56946450582E+02  0.00000000000E+00 0. -1.
        -12    1    3    3    0    0 -0.14783529797E+02  0.36068150666E+01  0.35342716634E+02  0.38479468386E+02  0.00000000000E+00 0.  1.
        -13    1    4    4    0    0 -0.30769131287E+02  0.73154090397E+01 -0.10642883231E+02  0.33369531208E+02  0.00000000000E+00 0.  1.
         13    1    4    4    0    0  0.13732625903E+02  0.37590657260E+02 -0.17086427876E+03  0.17548858733E+03  0.00000000000E+00 0. -1.
         21    1    1    2  502  501 -0.22030969243E+02 -0.30287017841E+02 -0.11678296174E+03  0.12264145795E+03  0.00000000000E+00 0. -1.
<scales pt_clust_5="13000.00000" pt_clust_6="13000.00000" pt_clust_7="13000.00000" pt_clust_8="13000.00000" pt_clust_9="37.45220"></scales>
<clustering>
<clus scale="   37.452">  2  9  1 -1</clus>
<clus scale="   76.643">  5  6 -1 -1</clus>
<clus scale="   86.779">  1  5  2 -1</clus>
<clus scale="   91.488">  7  8 -1 -1</clus>
<clus scale="   37.452">  2  5  1 -1</clus>
</clustering>
</event>
<event>
 9    1  0.2951046E-005  0.1597453E+03  0.7546771E-02  0.1211501E+00
         -2   -1    0    0    0  501 -0.00000000000E+00  0.00000000000E+00  0.63812892754E+03  0.63812892754E+03  0.00000000000E+00 0.  1.
          1   -1    0    0  502    0  0.00000000000E+00 -0.00000000000E+00 -0.61046112559E+02  0.61046112559E+02  0.00000000000E+00 0. -1.
        -24    2    1    2    0    0  0.48952692387E+02 -0.70572465317E+01  0.15524128446E+03  0.18357251308E+03  0.84574466219E+02 0.  0.
         23    2    1    2    0    0  0.55129713999E+02  0.10833377796E+03  0.21839831509E+03  0.26564408039E+03  0.89963662669E+02 0.  0.
         13    1    3    3    0    0  0.20173646172E+02  0.24684335116E+01 -0.46363914261E+01  0.20846229619E+02  0.00000000000E+00 0. -1.
        -14    1    3    3    0    0  0.28779046216E+02 -0.95256800434E+01  0.15987767589E+03  0.16272628346E+03  0.00000000000E+00 0.  1.
        -11    1    4    4    0    0 -0.19093837749E+02  0.51290776781E+02  0.10660752295E+03  0.11983523009E+03  0.00000000000E+00 0. -1.
         11    1    4    4    0    0  0.74223551748E+02  0.57043001174E+02  0.11179079215E+03  0.14580885030E+03  0.00000000000E+00 0.  1.
         21    1    1    2  502  501 -0.10408240639E+03 -0.10127653142E+03  0.20344321542E+03  0.24995844662E+03  0.00000000000E+00 0. -1.
<scales pt_clust_5="13000.00000" pt_clust_6="13000.00000" pt_clust_7="13000.00000" pt_clust_8="13000.00000" pt_clust_9="132.00415"></scales>
<clustering>
<clus scale="   84.574">  5  6 -1 -1</clus>
<clus scale="   89.964">  7  8 -1 -1</clus>
<clus scale="   97.975">  1  5  2 -1</clus>
<clus scale="  132.004">  1  9  2 -1</clus>
<clus scale="  159.745">  2  5  1 -1</clus>
</clustering>
</event>
<event>
 9    1  0.2951046E-005  0.9769888E+02  0.7546771E-02  0.1292232E+00
          1   -1    0    0  502    0  0.00000000000E+00  0.00000000000E+00  0.23594651698E+03  0.23594651698E+03  0.00000000000E+00 0. -1.
         -2   -1    0    0    0  501 -0.00000000000E+00 -0.00000000000E+00 -0.12243715549E+03  0.12243715549E+03  0.00000000000E+00 0.  1.
         23    2    1    2    0    0  0.15251853637E+02 -0.27702347610E+02 -0.70800599793E+02  0.12038928326E+03  0.92091343189E+02 0.  0.
        -24    2    1    2    0    0 -0.54191975703E+02  0.11924781954E+02  0.16612357103E+03  0.19221219317E+03  0.79180273399E+02 0.  0.
         11    1    4    4    0    0 -0.72474684641E+02  0.15599116984E+02  0.15094503500E+03  0.16816752349E+03  0.00000000000E+00 0. -1.
        -12    1    4    4    0    0  0.18282708939E+02 -0.36743350297E+01  0.15178536029E+02  0.24044669680E+02  0.00000000000E+00 0.  1.
        -13    1    3    3    0    0  0.17879016924E+02 -0.55977786558E+02 -0.19789129941E+02  0.62006302082E+02  0.00000000000E+00 0.  1.
         13    1    3    3    0    0 -0.26271632872E+01  0.28275438948E+02 -0.51011469852E+02  0.58382981177E+02  0.00000000000E+00 0. -1.
         21    1    1    2  502  501  0.38940122066E+02  0.15777565656E+02  0.18186390248E+02  0.45782196046E+02  0.00000000000E+00 0. -1.
<scales pt_clust_5="13000.00000" pt_clust_6="13000.00000" pt_clust_7="13000.00000" pt_clust_8="13000.00000" pt_clust_9="42.01505"></scales>
<clustering>
<clus scale="   42.015">  1  9  2 -1</clus>
<clus scale="   79.180">  5  6 -1 -1</clus>
<clus scale="   85.637">  1  5  2 -1</clus>
<clus scale="   92.091">  7  8 -1 -1</clus>
<clus scale="   42.015">  1  5  2 -1</clus>
</clustering>
</event>
<event>
 9    1  0.2951046E-005  0.2731020E+03  0.7546771E-02  0.1100063E+00
         -2   -1    0    0    0  501 -0.00000000000E+00  0.00000000000E+00  0.50131840874E+03  0.50131840874E+03  0.00000000000E+00 0.  1.
          1   -1    0    0  502    0  0.00000000000E+00 -0.00000000000E+00 -0.25799655512E+03  0.25799655512E+03  0.00000000000E+00 0. -1.
        -24    2    1    2    0    0  0.11206517664E+02 -0.26358225066E+03  0.34982433648E+03  0.44505954498E+03  0.78100853256E+02 0.  0.
         23    2    1    2    0    0 -0.13242562772E+02  0.23665448244E+03 -0.60340855644E+02  0.26077508595E+03  0.90453949991E+02 0.  0.
         13    1    3    3    0    0  0.13861621152E+02 -0.18546247387E+03  0.18341992036E+03  0.26121129558E+03  0.00000000000E+00 0. -1.
        -14    1    3    3    0    0 -0.26551034884E+01 -0.78119776791E+02  0.16640441613E+03  0.18384824940E+03  0.00000000000E+00 0.  1.
        -11    1    4    4    0    0 -0.44821534127E+02  0.20095102596E+03 -0.52406459907E+02  0.21245404631E+03  0.00000000000E+00 0. -1.
         11    1    4    4    0    0  0.31578971355E+02  0.35703456479E+02 -0.79343957366E+01  0.48321039642E+02  0.00000000000E+00 0.  1.
         21    1    1    2  502  501  0.20360451083E+01  0.26927768229E+02 -0.46161627221E+02  0.53480332919E+02  0.00000000000E+00 0. -1.
<scales pt_clust_5="13000.00000" pt_clust_6="13000.00000" pt_clust_7="13000.00000" pt_clust_8="13000.00000" pt_clust_9="27.00463"></scales>
<clustering>
<clus scale="   27.005">  2  9  1 -1</clus>
<clus scale="   78.101">  5  6 -1 -1</clus>
<clus scale="   90.454">  7  8 -1 -1</clus>
<clus scale="  269.263">  1  5  2 -1</clus>
<clus scale="   27.005">  2  5  1 -1</clus>
</clustering>
</event>
<event>
 9    1  0.2951046E-005  0.2203792E+03  0.7546771E-02  0.1134394E+00
         -2   -1    0    0    0  501 -0.00000000000E+00  0.00000000000E+00  0.10413713440E+04  0.10413713440E+04  0.00000000000E+00 0.  1.
          1   -1    0    0  502    0  0.00000000000E+00 -0.00000000000E+00 -0.10704086878E+03  0.10704086878E+03  0.00000000000E+00 0. -1.
         23    2    1    2    0    0 -0.15633925269E+03 -0.11940380377E+03  0.82918990727E+03  0.85710171486E+03  0.91477959202E+02 0.  0.
        -24    2    1    2    0    0  0.16739139108E+03  0.14898468109E+03  0.81131312326E+02  0.25164158791E+03  0.80776765946E+02 0.  0.
         11    1    4    4    0    0  0.98107879073E+02  0.91266797884E+02  0.57662857207E+01  0.13411947802E+03  0.00000000000E+00 0. -1.
        -12    1    4    4    0    0  0.69283512010E+02  0.57717883207E+02  0.75365026606E+02  0.11752210989E+03  0.00000000000E+00 0.  1.
        -13    1    3    3    0    0 -0.15751475099E+03 -0.94216609186E+02  0.78549397558E+03  0.80665262158E+03  0.00000000000E+00 0.  1.
         13    1    3    3    0    0  0.11754983030E+01 -0.25187194580E+02  0.43695931684E+02  0.50449093280E+02  0.00000000000E+00 0. -1.
         21    1    1    2  502  501 -0.11052138395E+02 -0.29580877325E+02  0.24009255655E+02  0.39668910037E+02  0.00000000000E+00 0.  1.
<scales pt_clust_5="13000.00000" pt_clust_6="13000.00000" pt_clust_7="13000.00000" pt_clust_8="13000.00000" pt_clust_9="31.57813"></scales>
<clustering>
<clus scale="   31.578">  2  9  1 -1</clus>
<clus scale="   80.777">  5  6 -1 -1</clus>
<clus scale="   91.478">  7  8 -1 -1</clus>
<clus scale="  216.157">  2  5  1 -1</clus>
<clus scale="   31.578">  2  5  1 -1</clus>
</clustering>
</event>
<event>
 9    1  0.2951046E-005  0.9776434E+02  0.7546771E-02  0.1293556E+00
          1   -1    0    0  502    0  0.00000000000E+00  0.00000000000E+00  0.18796158201E+03  0.18796158201E+03  0.00000000000E+00 0. -1.
         -2   -1    0    0    0  501 -0.00000000000E+00 -0.00000000000E+00 -0.12524844137E+03  0.12524844137E+03  0.00000000000E+00 0.  1.
        -24    2    1    2    0    0  0.25278331115E+02  0.14099681411E+02 -0.76174679415E+02  0.11229036559E+03  0.77257681687E+02 0.  0.
         23    2    1    2    0    0 -0.34255557848E+02 -0.42877708317E+02  0.13139783407E+03  0.16985737645E+03  0.92596956867E+02 0.  0.
         11    1    3    3    0    0 -0.25402571096E+02  0.18285255492E+02 -0.34110897132E+02  0.46294648609E+02  0.00000000000E+00 0. -1.
        -12    1    3    3    0    0  0.50680902211E+02 -0.41855740808E+01 -0.42063782284E+02  0.65995716977E+02  0.00000000000E+00 0.  1.
        -11    1    4    4    0    0  0.25215517627E+02 -0.14757152252E+02  0.83554182766E+02  0.88514955400E+02  0.00000000000E+00 0. -1.
         11    1    4    4    0    0 -0.59471075475E+02 -0.28120556065E+02  0.47843651302E+02  0.81342421045E+02  0.00000000000E+00 0.  1.
         21    1    1    2  502  501  0.89772267332E+01  0.28778026906E+02  0.74899859955E+01  0.31062281349E+02  0.00000000000E+00 0. -1.
<scales pt_clust_5="13000.00000" pt_clust_6="13000.00000" pt_clust_7="13000.00000" pt_clust_8="13000.00000" pt_clust_9="30.14574"></scales>
<clustering>
<clus scale="   30.146">  1  9  2 -1</clus>
<clus scale="   77.258">  5  6 -1 -1</clus>
<clus scale="   83.381">  2  5  1 -1</clus>
<clus scale="   92.597">  7  8 -1 -1</clus>
<clus scale="   30.146">  1  5  2 -1</clus>
</clustering>
</event>
<event>
 9    1  0.2951046E-005  0.9369010E+02  0.7546771E-02  0.1302275E+00
         -4   -1    0    0    0  501 -0.00000000000E+00  0.00000000000E+00  0.45035575572E+02  0.45035575572E+02  0.00000000000E+00 0.  1.
          3   -1    0    0  502    0  0.00000000000E+00 -0.00000000000E+00 -0.58615965185E+03  0.58615965185E+03  0.00000000000E+00 0. -1.
        -24    2    1    2    0    0 -0.68819297083E+01 -0.23944498444E+02 -0.97574617518E+01  0.82441529263E+02  0.77978828698E+02 0.  0.
         23    2    1    2    0    0  0.12370135743E+02 -0.12760537454E+02 -0.29102421367E+03  0.30556272441E+03  0.91420096424E+02 0.  0.
         11    1    3    3    0    0  0.26984926362E+02 -0.17844082926E+02 -0.28624591953E+02  0.43196814821E+02  0.00000000000E+00 0. -1.
        -12    1    3    3    0    0 -0.33866856070E+02 -0.61004155188E+01  0.18867130202E+02  0.39244714442E+02  0.00000000000E+00 0.  1.
        -13    1    4    4    0    0 -0.24139430194E+02 -0.32453834462E+02 -0.71446134015E+02  0.82100630491E+02  0.00000000000E+00 0.  1.
         13    1    4    4    0    0  0.36509565936E+02  0.19693297009E+02 -0.21957807966E+03  0.22346209392E+03  0.00000000000E+00 0. -1.
         21    1    1    2  502  501 -0.54882060344E+01  0.36705035898E+02 -0.24034240086E+03  0.24319097375E+03  0.00000000000E+00 0.  1.
<scales pt_clust_5="13000.00000" pt_clust_6="13000.00000" pt_clust_7="13000.00000" pt_clust_8="13000.00000" pt_clust_9="37.11307"></scales>
<clustering>
<clus scale="   37.113">  2  9  1 -1</clus>
<clus scale="   77.979">  5  6 -1 -1</clus>
<clus scale="   80.628">  1  5  2 -1</clus>
<clus scale="   91.420">  7  8 -1 -1</clus>
<clus scale="   37.113">  2  5  1 -1</clus>
</clustering>
</event>
<event>
 9    1  0.2951046E-005  0.1925468E+03  0.7546771E-02  0.1157469E+00
         -2   -1    0    0    0  501 -0.00000000000E+00  0.00000000000E+00  0.64201192752E+03  0.64201192752E+03  0.00000000000E+00 0.  1.
          1   -1    0    0  502    0  0.00000000000E+00 -0.00000000000E+00 -0.72701075166E+02  0.72701075166E+02  0.00000000000E+00 0. -1.
        -24    2    1    2    0    0 -0.17208894615E+03 -0.63919077233E+02  0.31982193307E+03  0.37728603650E+03  0.79739768251E+02 0.  0.
         23    2    1    2    0    0  0.13032851302E+03  0.82554080185E+02  0.21427502384E+03  0.27971028280E+03  0.92322039621E+02 0.  0.
         13    1    3    3    0    0 -0.12324869157E+03 -0.80872738215E+02  0.25281025822E+03  0.29264939163E+03  0.00000000000E+00 0. -1.
        -14    1    3    3    0    0 -0.48840254574E+02  0.16953660982E+02  0.67011674853E+02  0.84636644866E+02  0.00000000000E+00 0.  1.
        -13    1    4    4    0    0  0.89917750827E+02  0.44145733432E+02  0.19756502811E+03  0.22150843782E+03  0.00000000000E+00 0.  1.
         13    1    4    4    0    0  0.40410762194E+02  0.38408346753E+02  0.16709995731E+02  0.58201844977E+02  0.00000000000E+00 0. -1.
         21    1    1    2  502  501  0.41760433124E+02 -0.18635002953E+02  0.35213895447E+02  0.57716683397E+02  0.00000000000E+00 0. -1.
<scales pt_clust_5="13000.00000" pt_clust_6="13000.00000" pt_clust_7="13000.00000" pt_clust_8="13000.00000" pt_clust_9="45.72961"></scales>
<clustering>
<clus scale="   45.730">  2  9  1 -1</clus>
<clus scale="   79.740">  5  6 -1 -1</clus>
<clus scale="   92.322">  7  8 -1 -1</clus>
<clus scale="  186.840">  1  5  2 -1</clus>
<clus scale="   45.730">  2  5  1 -1</clus>
</clustering>
</event>
<event>
 9    1  0.2951046E-005  0.1073153E+03  0.7546771E-02  0.1271385E+00
         -2   -1    0    0    0  501 -0.00000000000E+00  0.00000000000E+00  0.13684602398E+03  0.13684602398E+03  0.00000000000E+00 0.  1.
          1   -1    0    0  502    0  0.00000000000E+00 -0.00000000000E+00 -0.41383044912E+03  0.41383044912E+03  0.00000000000E+00 0. -1.
        -24    2    1    2    0    0 -0.15128773586E+02  0.50710433994E+02  0.88242072684E+02  0.13007964020E+03  0.79584053031E+02 0.  0.
         23    2    1    2    0    0  0.55125245998E+02 -0.41915200405E+02 -0.10259322793E+03  0.15478993232E+03  0.92945553735E+02 0.  0.
         11    1    3    3    0    0  0.26311365094E+02  0.26410628937E+02  0.68808192289E+02  0.78258396227E+02  0.00000000000E+00 0. -1.
        -12    1    3    3    0    0 -0.41440138680E+02  0.24299805057E+02  0.19433880395E+02  0.51821243972E+02  0.00000000000E+00 0.  1.
        -13    1    4    4    0    0 -0.30620182101E+01 -0.54891903702E+02 -0.60876161631E+02  0.82026849888E+02  0.00000000000E+00 0.  1.
         13    1    4    4    0    0  0.58187264208E+02  0.12976703297E+02 -0.41717066302E+02  0.72763082434E+02  0.00000000000E+00 0. -1.
         21    1    1    2  502  501 -0.39996472412E+02 -0.87952335886E+01 -0.26263326989E+03  0.26580690058E+03  0.00000000000E+00 0.  1.
<scales pt_clust_5="13000.00000" pt_clust_6="13000.00000" pt_clust_7="13000.00000" pt_clust_8="13000.00000" pt_clust_9="40.95209"></scales>
<clustering>
<clus scale="   40.952">  2  9  1 -1</clus>
<clus scale="   79.584">  5  6 -1 -1</clus>
<clus scale="   92.946">  7  8 -1 -1</clus>
<clus scale="   95.976">  1  5  2 -1</clus>
<clus scale="   40.952">  2  5  1 -1</clus>
</clustering>
</event>
<event>
 9    1  0.2951046E-005  0.3296412E+03  0.7546771E-02  0.1106712E+00
          1   -1    0    0  502    0  0.00000000000E+00  0.00000000000E+00  0.86648753072E+03  0.86648753072E+03  0.00000000000E+00 0. -1.
         -2   -1    0    0    0  501 -0.00000000000E+00 -0.00000000000E+00 -0.24172662817E+03  0.24172662817E+03  0.00000000000E+00 0.  1.
        -24    2    1    2    0    0 -0.89186598131E+02  0.47345099495E+02 -0.68955308576E+02  0.14626788964E+03  0.80272369004E+02 0.  0.
         23    2    1    2    0    0 -0.18475264197E+03  0.17759636970E+03  0.14615104557E+03  0.30966643487E+03  0.94123129535E+02 0.  0.
         11    1    3    3    0    0 -0.44609248693E+02 -0.49936782548E+01  0.51511831874E+01  0.45182480893E+02  0.00000000000E+00 0. -1.
        -12    1    3    3    0    0 -0.44577349438E+02  0.52338777750E+02 -0.74106491764E+02  0.10108540874E+03  0.00000000000E+00 0.  1.
        -13    1    4    4    0    0 -0.15958296764E+03  0.15489625937E+03  0.81849409311E+02  0.23697869215E+03  0.00000000000E+00 0.  1.
         13    1    4    4    0    0 -0.25169674327E+02  0.22700110331E+02  0.64301636263E+02  0.72687742714E+02  0.00000000000E+00 0. -1.
         21    1    1    2  502  501  0.27393924010E+03 -0.22494146920E+03  0.54756516555E+03  0.65227983439E+03  0.00000000000E+00 0. -1.
<scales pt_clust_5="13000.00000" pt_clust_6="13000.00000" pt_clust_7="13000.00000" pt_clust_8="13000.00000" pt_clust_9="315.91799"></scales>
<clustering>
<clus scale="   80.272">  5  6 -1 -1</clus>
<clus scale="   94.123">  7  8 -1 -1</clus>
<clus scale="  128.994">  2  5  1 -1</clus>
<clus scale="  315.918">  1  9  2 -1</clus>
<clus scale="  315.918">  1  5  2 -1</clus>
</clustering>
</event>
<event>
 9    1  0.2951046E-005  0.9634399E+02  0.7546771E-02  0.1291667E+00
          1   -1    0    0  502    0  0.00000000000E+00  0.00000000000E+00  0.36999257833E+03  0.36999257833E+03  0.00000000000E+00 0. -1.
         -2   -1    0    0    0  501 -0.00000000000E+00 -0.00000000000E+00 -0.49316622375E+02  0.49316622375E+02  0.00000000000E+00 0.  1.
         23    2    1    2    0    0 -0.27286837917E+02 -0.24065561100E+02  0.30559453429E+02  0.99393949906E+02  0.87301513902E+02 0.  0.
        -24    2    1    2    0    0  0.56572024293E+02  0.13716638242E+02  0.18117579830E+03  0.20663330439E+03  0.80523987079E+02 0.  0.
         11    1    4    4    0    0  0.53351286871E+02  0.18061534881E+02  0.18894787401E+03  0.19716459607E+03  0.00000000000E+00 0. -1.
        -12    1    4    4    0    0  0.32207374217E+01 -0.43448966387E+01 -0.77720757068E+01  0.94687083139E+01  0.00000000000E+00 0.  1.
        -11    1    3    3    0    0  0.77957060655E+01 -0.47413680453E+02  0.12582422213E+01  0.48066758791E+02  0.00000000000E+00 0.  1.
         11    1    3    3    0    0 -0.35082543982E+02  0.23348119353E+02  0.29301211208E+02  0.51327191116E+02  0.00000000000E+00 0. -1.
         21    1    1    2  502  501 -0.29285186376E+02  0.10348922858E+02  0.10894070422E+03  0.11328194641E+03  0.00000000000E+00 0. -1.
<scales pt_clust_5="13000.00000" pt_clust_6="13000.00000" pt_clust_7="13000.00000" pt_clust_8="13000.00000" pt_clust_9="31.05998"></scales>
<clustering>
<clus scale="   31.060">  1  9  2 -1</clus>
<clus scale="   80.524">  5  6 -1 -1</clus>
<clus scale="   87.302">  7  8 -1 -1</clus>
<clus scale="   90.248">  1  5  2 -1</clus>
<clus scale="   31.060">  1  5  2 -1</clus>
</clustering>
</event>
<event>
 9    1  0.2951046E-005  0.1086757E+03  0.7546771E-02  0.1266972E+00
          3   -1    0    0  502    0  0.00000000000E+00  0.00000000000E+00  0.68664967818E+03  0.68664967818E+03  0.00000000000E+00 0. -1.
         -4   -1    0    0    0  501 -0.00000000000E+00 -0.00000000000E+00 -0.71617406053E+02  0.71617406053E+02  0.00000000000E+00 0.  1.
        -24    2    1    2    0    0  0.60013753202E+02  0.28586542412E+02 -0.16709262745E+02  0.10596852084E+03  0.80816378089E+02 0.  0.
         23    2    1    2    0    0 -0.27961126310E+02  0.15559931451E+02  0.27265505807E+03  0.28909148765E+03  0.90604478313E+02 0.  0.
         13    1    3    3    0    0  0.37373118136E+02 -0.34891956249E+01  0.27731782100E+02  0.46668792396E+02  0.00000000000E+00 0. -1.
        -14    1    3    3    0    0  0.22640635066E+02  0.32075738037E+02 -0.44441044845E+02  0.59299728445E+02  0.00000000000E+00 0.  1.
        -11    1    4    4    0    0  0.12729582134E+02  0.41972396290E+02  0.16975381924E+03  0.17532850155E+03  0.00000000000E+00 0.  1.
         11    1    4    4    0    0 -0.40690708444E+02 -0.26412464839E+02  0.10290123883E+03  0.11376298610E+03  0.00000000000E+00 0. -1.
         21    1    1    2  502  501 -0.32052626892E+02 -0.44146473862E+02  0.35908647680E+03  0.36320707574E+03  0.00000000000E+00 0. -1.
<scales pt_clust_5="13000.00000" pt_clust_6="13000.00000" pt_clust_7="13000.00000" pt_clust_8="13000.00000" pt_clust_9="54.55531"></scales>
<clustering>
<clus scale="   54.555">  1  9  2 -1</clus>
<clus scale="   80.816">  5  6 -1 -1</clus>
<clus scale="   90.604">  7  8 -1 -1</clus>
<clus scale="  100.660">  2  5  1 -1</clus>
<clus scale="   54.555">  1  5  2 -1</clus>
</clustering>
</event>
<event>
 9    1  0.2951046E-005  0.1909268E+03  0.7546771E-02  0.1174436E+00
         -2   -1    0    0    0  501 -0.00000000000E+00  0.00000000000E+00  0.59055372526E+03  0.59055372526E+03  0.00000000000E+00 0.  1.
          1   -1    0    0  502    0  0.00000000000E+00 -0.00000000000E+00 -0.11645244285E+03  0.11645244285E+03  0.00000000000E+00 0. -1.
         23    2    1    2    0    0 -0.93056977846E+02  0.33777839069E+01  0.14760413509E+03  0.19644958713E+03  0.90191180492E+02 0.  0.
        -24    2    1    2    0    0 -0.75508302039E+02  0.13192195626E+03  0.10858097722E+03  0.20362380257E+03  0.81042693305E+02 0.  0.
         13    1    4    4    0    0 -0.28270865498E+02  0.11070312207E+03  0.98530779121E+02  0.15087324980E+03  0.00000000000E+00 0. -1.
        -14    1    4    4    0    0 -0.47237436541E+02  0.21218834194E+02  0.10050198100E+02  0.52750552768E+02  0.00000000000E+00 0.  1.
        -13    1    3    3    0    0 -0.11249238463E+02  0.17650714597E+02 -0.60525355154E+01  0.21788214198E+02  0.00000000000E+00 0.  1.
         13    1    3    3    0    0 -0.81807739384E+02 -0.14272930690E+02  0.15365667061E+03  0.17466137294E+03  0.00000000000E+00 0. -1.
         21    1    1    2  502  501  0.16856527989E+03 -0.13529974017E+03  0.21791617010E+03  0.30693277841E+03  0.00000000000E+00 0. -1.
<scales pt_clust_5="13000.00000" pt_clust_6="13000.00000" pt_clust_7="13000.00000" pt_clust_8="13000.00000" pt_clust_9="172.87314"></scales>
<clustering>
<clus scale="   81.043">  5  6 -1 -1</clus>
<clus scale="   90.191">  7  8 -1 -1</clus>
<clus scale="  129.636">  1  7  2 -1</clus>
<clus scale="  172.873">  1  9  2 -1</clus>
<clus scale="  190.927">  2  5  1 -1</clus>
</clustering>
</event>
<event>
 9    1  0.2951046E-005  0.1688136E+03  0.7546771E-02  0.1181767E+00
          1   -1    0    0  502    0  0.00000000000E+00  0.00000000000E+00  0.91626018553E+03  0.91626018553E+03  0.00000000000E+00 0. -1.
         -2   -1    0    0    0  501 -0.00000000000E+00 -0.00000000000E+00 -0.59876561479E+02  0.59876561479E+02  0.00000000000E+00 0.  1.
        -24    2    1    2    0    0 -0.13298184265E+03  0.19850728127E+02  0.95369575092E+02  0.18086427276E+03  0.74419805338E+02 0.  0.
         23    2    1    2    0    0  0.16768011441E+03 -0.73961821157E+01  0.59730999134E+03  0.62746870713E+03  0.93629206938E+02 0.  0.
         13    1    3    3    0    0 -0.12071675272E+03  0.41286496185E+02  0.88359995595E+02  0.15519213245E+03  0.00000000000E+00 0. -1.
        -14    1    3    3    0    0 -0.12265089933E+02 -0.21435768058E+02  0.70095794972E+01  0.25672140308E+02  0.00000000000E+00 0.  1.
        -11    1    4    4    0    0  0.10083061165E+03 -0.21601548912E+01  0.49481246881E+03  0.50498599763E+03  0.00000000000E+00 0. -1.
         11    1    4    4    0    0  0.66849502761E+02 -0.52360272245E+01  0.10249752253E+03  0.12248270949E+03  0.00000000000E+00 0.  1.
         21    1    1    2  502  501 -0.34698271757E+02 -0.12454546012E+02  0.16370405762E+03  0.16780376712E+03  0.00000000000E+00 0. -1.
<scales pt_clust_5="13000.00000" pt_clust_6="13000.00000" pt_clust_7="13000.00000" pt_clust_8="13000.00000" pt_clust_9="36.86578"></scales>
<clustering>
<clus scale="   36.866">  1  9  2 -1</clus>
<clus scale="   74.420">  5  6 -1 -1</clus>
<clus scale="   93.629">  7  8 -1 -1</clus>
<clus scale="  158.965">  2  5  1 -1</clus>
<clus scale="   36.866">  1  5  2 -1</clus>
</clustering>
</event>
<event>
 9    1  0.2951046E-005  0.1224227E+03  0.7546771E-02  0.1239407E+00
          1   -1    0    0  502    0  0.00000000000E+00  0.00000000000E+00  0.10622694813E+03  0.10622694813E+03  0.00000000000E+00 0. -1.
         -2   -1    0    0    0  501 -0.00000000000E+00 -0.00000000000E+00 -0.30325783605E+03  0.30325783605E+03  0.00000000000E+00 0.  1.
        -24    2    1    2    0    0  0.18282716586E+02  0.68841501517E+02 -0.20709833040E+03  0.23860636897E+03  0.94709401871E+02 0.  0.
         23    2    1    2    0    0 -0.32013590245E+02 -0.93535901665E+02 -0.73874425755E+01  0.13766662058E+03  0.95518004869E+02 0.  0.
         11    1    3    3    0    0  0.28402842106E+02  0.50987515847E+01 -0.89517997816E+01  0.30213464329E+02  0.00000000000E+00 0. -1.
        -12    1    3    3    0    0 -0.10120125520E+02  0.63742749933E+02 -0.19814653062E+03  0.20839290464E+03  0.00000000000E+00 0.  1.
        -11    1    4    4    0    0 -0.59696495471E+01 -0.66369381764E+02 -0.48131066679E+02  0.82201770851E+02  0.00000000000E+00 0.  1.
         11    1    4    4    0    0 -0.26043940698E+02 -0.27166519901E+02  0.40743624104E+02  0.55464849731E+02  0.00000000000E+00 0. -1.
         21    1    1    2  502  501  0.13730873658E+02  0.24694400148E+02  0.17454885054E+02  0.33211794627E+02  0.00000000000E+00 0. -1.
<scales pt_clust_5="13000.00000" pt_clust_6="13000.00000" pt_clust_7="13000.00000" pt_clust_8="13000.00000" pt_clust_9="28.25509"></scales>
<clustering>
<clus scale="   28.255">  1  9  2 -1</clus>
<clus scale="   94.709">  5  6 -1 -1</clus>
<clus scale="   95.518">  7  8 -1 -1</clus>
<clus scale="  121.793">  2  5  1 -1</clus>
<clus scale="   28.255">  1  5  2 -1</clus>
</clustering>
</event>
<event>
 9    1  0.2951046E-005  0.9693923E+02  0.7546771E-02  0.1291487E+00
          1   -1    0    0  502    0  0.00000000000E+00  0.00000000000E+00  0.36460974151E+03  0.36460974151E+03  0.00000000000E+00 0. -1.
         -2   -1    0    0    0  501 -0.00000000000E+00 -0.00000000000E+00 -0.87154670252E+02  0.87154670252E+02  0.00000000000E+00 0.  1.
        -24    2    1    2    0    0 -0.27633025597E+02 -0.28939120523E+02 -0.46008036934E+02  0.10124273003E+03  0.80822608976E+02 0.  0.
         23    2    1    2    0    0  0.54270855208E+01  0.20612643245E+02  0.15422924843E+03  0.17963419451E+03  0.89596029190E+02 0.  0.
         11    1    3    3    0    0  0.38120229917E+01 -0.47483653658E+02 -0.75743920958E+01  0.48234845284E+02  0.00000000000E+00 0. -1.
        -12    1    3    3    0    0 -0.31445048589E+02  0.18544533135E+02 -0.38433644838E+02  0.53007884749E+02  0.00000000000E+00 0.  1.
        -13    1    4    4    0    0 -0.38399829839E+02  0.12044210436E+02  0.38944546715E+02  0.56002568294E+02  0.00000000000E+00 0.  1.
         13    1    4    4    0    0  0.43826915360E+02  0.85684328085E+01  0.11528470172E+03  0.12363162622E+03  0.00000000000E+00 0. -1.
         21    1    1    2  502  501  0.22205940077E+02  0.83264772783E+01  0.16923385976E+03  0.17088748722E+03  0.00000000000E+00 0. -1.
<scales pt_clust_5="13000.00000" pt_clust_6="13000.00000" pt_clust_7="13000.00000" pt_clust_8="13000.00000" pt_clust_9="23.71569"></scales>
<clustering>
<clus scale="   23.716">  1  9  2 -1</clus>
<clus scale="   80.823">  5  6 -1 -1</clus>
<clus scale="   88.894">  2  5  1 -1</clus>
<clus scale="   89.596">  7  8 -1 -1</clus>
<clus scale="   23.716">  1  5  2 -1</clus>
</clustering>
</event>
<event>
 9    1  0.2951046E-005  0.1003910E+03  0.7546771E-02  0.1287476E+00
         -2   -1    0    0    0  501 -0.00000000000E+00  0.00000000000E+00  0.95085262657E+02  0.95085262657E+02  0.00000000000E+00 0.  1.
          1   -1    0    0  502    0  0.00000000000E+00 -0.00000000000E+00 -0.30362978269E+03  0.30362978269E+03  0.00000000000E+00 0. -1.
        -24    2    1    2    0    0 -0.10111322774E+02  0.40995937586E+02  0.53467250601E+02  0.10274959475E+03  0.76914410791E+02 0.  0.
         23    2    1    2    0    0  0.21031808736E+02 -0.15156127334E+02 -0.13362306330E+03  0.16454774640E+03  0.92459681072E+02 0.  0.
         13    1    3    3    0    0 -0.36529527814E+02  0.23468150589E+02  0.56096847425E+02  0.70936709717E+02  0.00000000000E+00 0. -1.
        -14    1    3    3    0    0  0.26418205040E+02  0.17527786997E+02 -0.26295968245E+01  0.31812885031E+02  0.00000000000E+00 0.  1.
        -11    1    4    4    0    0 -0.19914462890E+02 -0.15804439775E+02 -0.11801552852E+03  0.12072295192E+03  0.00000000000E+00 0. -1.
         11    1    4    4    0    0  0.40946271625E+02  0.64831244092E+00 -0.15607534785E+02  0.43824794479E+02  0.00000000000E+00 0.  1.
         21    1    1    2  502  501 -0.10920485962E+02 -0.25839810252E+02 -0.12838870733E+03  0.13141770420E+03  0.00000000000E+00 0. -1.
<scales pt_clust_5="13000.00000" pt_clust_6="13000.00000" pt_clust_7="13000.00000" pt_clust_8="13000.00000" pt_clust_9="28.05268"></scales>
<clustering>
<clus scale="   28.053">  2  9  1 -1</clus>
<clus scale="   76.914">  5  6 -1 -1</clus>
<clus scale="   86.287">  1  5  2 -1</clus>
<clus scale="   92.460">  7  8 -1 -1</clus>
<clus scale="   28.053">  2  5  1 -1</clus>
</clustering>
</event>
<event>
 9    1  0.2951046E-005  0.1013020E+03  0.7546771E-02  0.1281961E+00
          1   -1    0    0  502    0  0.00000000000E+00  0.00000000000E+00  0.32538442559E+02  0.32538442559E+02  0.00000000000E+00 0. -1.
         -2   -1    0    0    0  501 -0.00000000000E+00 -0.00000000000E+00 -0.63943890758E+03  0.63943890758E+03  0.00000000000E+00 0.  1.
        -24    2    1    2    0    0  0.21912448666E+02 -0.39849528592E+02 -0.49240381780E+03  0.50117781131E+03  0.81544702065E+02 0.  0.
         23    2    1    2    0    0 -0.30020286032E+00  0.48233070250E+02 -0.10055774302E+03  0.14375021370E+03  0.90695893343E+02 0.  0.
         11    1    3    3    0    0  0.37902183605E+02 -0.10611631748E+02 -0.10162787724E+03  0.10898352023E+03  0.00000000000E+00 0. -1.
        -12    1    3    3    0    0 -0.15989734940E+02 -0.29237896844E+02 -0.39077594056E+03  0.39219429108E+03  0.00000000000E+00 0.  1.
        -13    1    4    4    0    0 -0.34047882557E+02  0.45905061236E+01 -0.68852948653E+01  0.35039097284E+02  0.00000000000E+00 0.  1.
         13    1    4    4    0    0  0.33747679697E+02  0.43642564127E+02 -0.93672448158E+02  0.10871111642E+03  0.00000000000E+00 0. -1.
         21    1    1    2  502  501 -0.21612245805E+02 -0.83835416581E+01 -0.13938904197E+02  0.27049325124E+02  0.00000000000E+00 0. -1.
<scales pt_clust_5="13000.00000" pt_clust_6="13000.00000" pt_clust_7="13000.00000" pt_clust_8="13000.00000" pt_clust_9="23.18131"></scales>
<clustering>
<clus scale="   23.181">  1  9  2 -1</clus>
<clus scale="   81.545">  5  6 -1 -1</clus>
<clus scale="   90.696">  7  8 -1 -1</clus>
<clus scale="   93.198">  2  5  1 -1</clus>
<clus scale="   23.181">  1  5  2 -1</clus>
</clustering>
</event>
<event>
 9    1  0.2951046E-005  0.9880140E+02  0.7546771E-02  0.1289612E+00
          1   -1    0    0  502    0  0.00000000000E+00  0.00000000000E+00  0.10395732111E+03  0.10395732111E+03  0.00000000000E+00 0. -1.
         -2   -1    0    0    0  501 -0.00000000000E+00 -0.00000000000E+00 -0.12818913187E+03  0.12818913187E+03  0.00000000000E+00 0.  1.
        -24    2    1    2    0    0 -0.18085929981E+02 -0.45305203584E+02 -0.43750579525E+02  0.10160680511E+03  0.77654151853E+02 0.  0.
         23    2    1    2    0    0 -0.62377826593E+01  0.26164211791E+02  0.13147146116E+01  0.94631318049E+02  0.90718696916E+02 0.  0.
         11    1    3    3    0    0  0.25066233095E+02 -0.38815231884E+02 -0.12293128821E+02  0.47812752315E+02  0.00000000000E+00 0. -1.
        -12    1    3    3    0    0 -0.43152163076E+02 -0.64899717007E+01 -0.31457450705E+02  0.53794052791E+02  0.00000000000E+00 0.  1.
        -11    1    4    4    0    0  0.31686155873E+02  0.41888081879E+02  0.76975968480E+01  0.53083678044E+02  0.00000000000E+00 0. -1.
         11    1    4    4    0    0 -0.37923938532E+02 -0.15723870088E+02 -0.63828822364E+01  0.41547640005E+02  0.00000000000E+00 0.  1.
         21    1    1    2  502  501  0.24323712640E+02  0.19140991794E+02  0.18204054154E+02  0.35908329829E+02  0.00000000000E+00 0. -1.
<scales pt_clust_5="13000.00000" pt_clust_6="13000.00000" pt_clust_7="13000.00000" pt_clust_8="13000.00000" pt_clust_9="30.95191"></scales>
<clustering>
<clus scale="   30.952">  1  9  2 -1</clus>
<clus scale="   77.654">  5  6 -1 -1</clus>
<clus scale="   86.960">  2  5  1 -1</clus>
<clus scale="   90.719">  7  8 -1 -1</clus>
<clus scale="   30.952">  1  5  2 -1</clus>
</clustering>
</event>
<event>
 9    1  0.2951046E-005  0.1558753E+03  0.7546771E-02  0.1195043E+00
         -2   -1    0    0    0  501 -0.00000000000E+00  0.00000000000E+00  0.23066595681E+03  0.23066595681E+03  0.00000000000E+00 0.  1.
          1   -1    0    0  502    0  0.00000000000E+00 -0.00000000000E+00 -0.52103241220E+03  0.52103241220E+03  0.00000000000E+00 0. -1.
        -24    2    1    2    0    0 -0.36736106823E+02 -0.11706882756E+03  0.15568794969E+03  0.21402382349E+03  0.80701966596E+02 0.  0.
         23    2    1    2    0    0  0.59320105779E+02  0.18152921517E+03 -0.40806477810E+03  0.45951835358E+03  0.90379882965E+02 0.  0.
         13    1    3    3    0    0 -0.35777930086E+02 -0.74527969512E+01  0.30289111110E+02  0.47466142833E+02  0.00000000000E+00 0. -1.
        -14    1    3    3    0    0 -0.95817673719E+00 -0.10961603061E+03  0.12539883858E+03  0.16655768066E+03  0.00000000000E+00 0.  1.
        -11    1    4    4    0    0  0.70629662569E+02  0.12536091662E+03 -0.34767444292E+03  0.37627307492E+03  0.00000000000E+00 0. -1.
         11    1    4    4    0    0 -0.11309556789E+02  0.56168298546E+02 -0.60390335179E+02  0.83245278661E+02  0.00000000000E+00 0.  1.
         21    1    1    2  502  501 -0.22583998956E+02 -0.64460387608E+02 -0.37989626979E+02  0.78156191933E+02  0.00000000000E+00 0.  1.
<scales pt_clust_5="13000.00000" pt_clust_6="13000.00000" pt_clust_7="13000.00000" pt_clust_8="13000.00000" pt_clust_9="68.30211"></scales>
<clustering>
<clus scale="   68.302">  2  9  1 -1</clus>
<clus scale="   80.702">  5  6 -1 -1</clus>
<clus scale="   90.380">  7  8 -1 -1</clus>
<clus scale="  150.471">  1  5  2 -1</clus>
<clus scale="   68.302">  2  5  1 -1</clus>
</clustering>
</event>
<event>
 9    1  0.2951046E-005  0.1577752E+03  0.7546771E-02  0.1214919E+00
          1   -1    0    0  502    0  0.00000000000E+00  0.00000000000E+00  0.18998070518E+03  0.18998070518E+03  0.00000000000E+00 0. -1.
         -2   -1    0    0    0  501 -0.00000000000E+00 -0.00000000000E+00 -0.38391248364E+03  0.38391248364E+03  0.00000000000E+00 0.  1.
         23    2    1    2    0    0  0.18958304566E+02  0.28448064756E+01 -0.20915203136E+03  0.22953833929E+03  0.92605435817E+02 0.  0.
        -24    2    1    2    0    0 -0.13564080473E+03  0.35597793380E+02  0.10436394895E+03  0.19256803234E+03  0.80777363392E+02 0.  0.
         13    1    4    4    0    0 -0.82054164103E+02  0.44193184232E+02  0.10211303012E+03  0.13824975334E+03  0.00000000000E+00 0. -1.
        -14    1    4    4    0    0 -0.53586640626E+02 -0.85953908522E+01  0.22509188335E+01  0.54318278996E+02  0.00000000000E+00 0.  1.
        -11    1    3    3    0    0  0.23007612959E+02 -0.36653573651E+02 -0.53033896884E+02  0.68450193091E+02  0.00000000000E+00 0.  1.
         11    1    3    3    0    0 -0.40493083932E+01  0.39498380127E+02 -0.15611813448E+03  0.16108814620E+03  0.00000000000E+00 0. -1.
         21    1    1    2  502  501  0.11668250016E+03 -0.38442599856E+02 -0.89143696056E+02  0.15178681720E+03  0.00000000000E+00 0.  1.
<scales pt_clust_5="13000.00000" pt_clust_6="13000.00000" pt_clust_7="13000.00000" pt_clust_8="13000.00000" pt_clust_9="135.52871"></scales>
<clustering>
<clus scale="   80.777">  5  6 -1 -1</clus>
<clus scale="   92.605">  7  8 -1 -1</clus>
<clus scale="   94.569">  2  7  1 -1</clus>
<clus scale="  135.529">  2  9  1 -1</clus>
<clus scale="  157.775">  1  5  2 -1</clus>
</clustering>
</event>
<event>
 9    1  0.2951046E-005  0.9432375E+02  0.7546771E-02  0.1299844E+00
          3   -1    0    0  502    0  0.00000000000E+00  0.00000000000E+00  0.40831218969E+02  0.40831218969E+02  0.00000000000E+00 0. -1.
         -4   -1    0    0    0  501 -0.00000000000E+00 -0.00000000000E+00 -0.41986803975E+03  0.41986803975E+03  0.00000000000E+00 0.  1.
        -24    2    1    2    0    0  0.25132236562E+02 -0.32872963237E+02 -0.26550465697E+03  0.28061647875E+03  0.80874125938E+02 0.  0.
         23    2    1    2    0    0  0.87884043833E+01  0.12177079831E+02 -0.53691555611E+02  0.10825083818E+03  0.92789781210E+02 0.  0.
         11    1    3    3    0    0  0.37905660890E+02 -0.53378185525E+01 -0.49929751993E+02  0.62915113991E+02  0.00000000000E+00 0. -1.
        -12    1    3    3    0    0 -0.12773424328E+02 -0.27535144685E+02 -0.21557490498E+03  0.21770136476E+03  0.00000000000E+00 0.  1.
        -11    1    4    4    0    0 -0.16657922736E+02  0.29311937872E+02 -0.66849771346E+02  0.74870341396E+02  0.00000000000E+00 0.  1.
         11    1    4    4    0    0  0.25446327119E+02 -0.17134858041E+02  0.13158215735E+02  0.33380496780E+02  0.00000000000E+00 0. -1.
         21    1    1    2  502  501 -0.33920640945E+02  0.20695883406E+02 -0.59840608199E+02  0.71831941793E+02  0.00000000000E+00 0.  1.
<scales pt_clust_5="13000.00000" pt_clust_6="13000.00000" pt_clust_7="13000.00000" pt_clust_8="13000.00000" pt_clust_9="39.73575"></scales>
<clustering>
<clus scale="   39.736">  2  9  1 -1</clus>
<clus scale="   80.874">  5  6 -1 -1</clus>
<clus scale="   82.630">  2  5  1 -1</clus>
<clus scale="   92.790">  7  8 -1 -1</clus>
<clus scale="   94.324">  1  5  2 -1</clus>
</clustering>
</event>
<event>
 9    1  0.2951046E-005  0.3105039E+03  0.7546771E-02  0.1080455E+00
          3   -1    0    0  502    0  0.00000000000E+00  0.00000000000E+00  0.55958289471E+03  0.55958289471E+03  0.00000000000E+00 0. -1.
         -4   -1    0    0    0  501 -0.00000000000E+00 -0.00000000000E+00 -0.52431471060E+03  0.52431471060E+03  0.00000000000E+00 0.  1.
         23    2    1    2    0    0  0.28272032039E+03 -0.98957904713E+02 -0.41305964635E+03  0.51834878300E+03  0.91344090825E+02 0.  0.
        -24    2    1    2    0    0 -0.27482762666E+03  0.45422869225E+02  0.36546009897E+03  0.46657733367E+03  0.80869419054E+02 0.  0.
         11    1    4    4    0    0 -0.23145804139E+03  0.10091898612E+02  0.31653412649E+03  0.39226078643E+03  0.00000000000E+00 0. -1.
        -12    1    4    4    0    0 -0.43369585267E+02  0.35330970613E+02  0.48925972480E+02  0.74316547240E+02  0.00000000000E+00 0.  1.
        -13    1    3    3    0    0  0.90351691554E+02 -0.45460775702E+02 -0.21250391104E+03  0.23534660078E+03  0.00000000000E+00 0.  1.
         13    1    3    3    0    0  0.19236862884E+03 -0.53497129011E+02 -0.20055573531E+03  0.28300218222E+03  0.00000000000E+00 0. -1.
         21    1    1    2  502  501 -0.78926937342E+01  0.53535035487E+02  0.82867731492E+02  0.98971488630E+02  0.00000000000E+00 0. -1.
<scales pt_clust_5="13000.00000" pt_clust_6="13000.00000" pt_clust_7="13000.00000" pt_clust_8="13000.00000" pt_clust_9="54.11372"></scales>
<clustering>
<clus scale="   54.114">  1  9  2 -1</clus>
<clus scale="   80.869">  5  6 -1 -1</clus>
<clus scale="   91.344">  7  8 -1 -1</clus>
<clus scale="  307.585">  1  5  2 -1</clus>
<clus scale="   54.114">  1  5  2 -1</clus>
</clustering>
</event>
<event>
 9    1  0.2951046E-005  0.9964428E+02  0.7546771E-02  0.1284432E+00
         -2   -1    0    0    0  501 -0.00000000000E+00  0.00000000000E+00  0.49421184238E+03  0.49421184238E+03  0.00000000000E+00 0.  1.
          1   -1    0    0  502    0  0.00000000000E+00 -0.00000000000E+00 -0.18791321023E+03  0.18791321023E+03  0.00000000000E+00 0. -1.
        -24    2    1    2    0    0 -0.18752828957E+02 -0.36824845264E+02  0.44893785246E+03  0.45850550339E+03  0.83512654422E+02 0.  0.
         23    2    1    2    0    0 -0.83497811988E+01  0.73054498425E+02 -0.13396788607E+03  0.17755078232E+03  0.90389198578E+02 0.  0.
         13    1    3    3    0    0 -0.85105976378E+01  0.18720332033E+02  0.33955641076E+02  0.39697187110E+02  0.00000000000E+00 0. -1.
        -14    1    3    3    0    0 -0.10242231320E+02 -0.55545177297E+02  0.41498221138E+03  0.41880831628E+03  0.00000000000E+00 0.  1.
        -11    1    4    4    0    0 -0.36488763734E+02  0.22713907749E+02 -0.15320545383E+02  0.45629711756E+02  0.00000000000E+00 0.  1.
         11    1    4    4    0    0  0.28138982536E+02  0.50340590675E+02 -0.11864734068E+03  0.13192107057E+03  0.00000000000E+00 0. -1.
         21    1    1    2  502  501  0.27102610156E+02 -0.36229653161E+02 -0.86713342393E+01  0.46068766891E+02  0.00000000000E+00 0.  1.
<scales pt_clust_5="13000.00000" pt_clust_6="13000.00000" pt_clust_7="13000.00000" pt_clust_8="13000.00000" pt_clust_9="45.24532"></scales>
<clustering>
<clus scale="   45.245">  2  9  1 -1</clus>
<clus scale="   83.513">  5  6 -1 -1</clus>
<clus scale="   90.389">  7  8 -1 -1</clus>
<clus scale="   93.451">  1  5  2 -1</clus>
<clus scale="   45.245">  2  5  1 -1</clus>
</clustering>
</event>
<event>
 9    1  0.2951046E-005  0.1056890E+03  0.7546771E-02  0.1277536E+00
          1   -1    0    0  502    0  0.00000000000E+00  0.00000000000E+00  0.24306480826E+03  0.24306480826E+03  0.00000000000E+00 0. -1.
         -2   -1    0    0    0  501 -0.00000000000E+00 -0.00000000000E+00 -0.13189404033E+03  0.13189404033E+03  0.00000000000E+00 0.  1.
         23    2    1    2    0    0  0.24392212644E+02 -0.42746015812E+02 -0.89055371468E+02  0.13737172879E+03  0.92292636638E+02 0.  0.
        -24    2    1    2    0    0 -0.46517501106E+02  0.53133487194E+02  0.17595936824E+03  0.20314435374E+03  0.72930678138E+02 0.  0.
         13    1    4    4    0    0 -0.42957749414E+02  0.37833677512E+02  0.17829898816E+03  0.18726260857E+03  0.00000000000E+00 0. -1.
        -14    1    4    4    0    0 -0.35597516914E+01  0.15299809683E+02 -0.23396199152E+01  0.15881745174E+02  0.00000000000E+00 0.  1.
        -11    1    3    3    0    0 -0.23048361939E+02 -0.22924603380E+02  0.22497331504E+01  0.32585667516E+02  0.00000000000E+00 0. -1.
         11    1    3    3    0    0  0.47440574583E+02 -0.19821412432E+02 -0.91305104618E+02  0.10478606127E+03  0.00000000000E+00 0.  1.
         21    1    1    2  502  501  0.22125288462E+02 -0.10387471382E+02  0.24266771158E+02  0.34442766057E+02  0.00000000000E+00 0.  1.
<scales pt_clust_5="13000.00000" pt_clust_6="13000.00000" pt_clust_7="13000.00000" pt_clust_8="13000.00000" pt_clust_9="24.44234"></scales>
<clustering>
<clus scale="   24.442">  1  9  2 -1</clus>
<clus scale="   72.931">  5  6 -1 -1</clus>
<clus scale="   89.281">  1  5  2 -1</clus>
<clus scale="   92.293">  7  8 -1 -1</clus>
<clus scale="   24.442">  1  5  2 -1</clus>
</clustering>
</event>
<event>
 9    1  0.2951046E-005  0.1516969E+03  0.7546771E-02  0.1200989E+00
         -2   -1    0    0    0  501 -0.00000000000E+00  0.00000000000E+00  0.97070785724E+02  0.97070785724E+02  0.00000000000E+00 0.  1.
          1   -1    0    0  502    0  0.00000000000E+00 -0.00000000000E+00 -0.54779015496E+03  0.54779015496E+03  0.00000000000E+00 0. -1.
         23    2    1    2    0    0  0.65711627885E+02 -0.32773730319E+02 -0.10573826465E+02  0.11794905939E+03  0.91695361745E+02 0.  0.
        -24    2    1    2    0    0 -0.58579887128E+02  0.12559911234E+03 -0.39029486327E+03  0.42130646704E+03  0.77216051992E+02 0.  0.
         13    1    4    4    0    0 -0.62196341904E+02  0.11132174390E+03 -0.25394696839E+03  0.28416540670E+03  0.00000000000E+00 0. -1.
        -14    1    4    4    0    0  0.36164547759E+01  0.14277368437E+02 -0.13634789488E+03  0.13714106035E+03  0.00000000000E+00 0.  1.
        -13    1    3    3    0    0 -0.14198846057E+02 -0.30804065147E+02  0.10087540062E+02  0.35387231079E+02  0.00000000000E+00 0.  1.
         13    1    3    3    0    0  0.79910473942E+02 -0.19696651718E+01 -0.20661366528E+02  0.82561828307E+02  0.00000000000E+00 0. -1.
         21    1    1    2  502  501 -0.71317407572E+01 -0.92825382017E+02 -0.49850679503E+02  0.10560541425E+03  0.00000000000E+00 0.  1.
<scales pt_clust_5="13000.00000" pt_clust_6="13000.00000" pt_clust_7="13000.00000" pt_clust_8="13000.00000" pt_clust_9="93.09894"></scales>
<clustering>
<clus scale="   77.216">  5  6 -1 -1</clus>
<clus scale="   91.695">  7  8 -1 -1</clus>
<clus scale="   93.099">  1  9  2 -1</clus>
<clus scale="  143.409">  2  5  1 -1</clus>
<clus scale="  143.409">  2  5  1 -1</clus>
</clustering>
</event>
<event>
 9    1  0.2951046E-005  0.1445836E+03  0.7546771E-02  0.1208547E+00
          1   -1    0    0  502    0  0.00000000000E+00  0.00000000000E+00  0.22312391442E+03  0.22312391442E+03  0.00000000000E+00 0. -1.
         -2   -1    0    0    0  501 -0.00000000000E+00 -0.00000000000E+00 -0.32256290104E+03  0.32256290104E+03  0.00000000000E+00 0.  1.
        -24    2    1    2    0    0 -0.10925802854E+03 -0.36457324950E+02 -0.26112366284E+03  0.29674108284E+03  0.81260381548E+02 0.  0.
         23    2    1    2    0    0  0.97803273933E+02  0.62570659067E+02  0.88318986707E+02  0.17023333195E+03  0.87741530215E+02 0.  0.
         11    1    3    3    0    0 -0.34152582756E+02 -0.24978885637E+02 -0.26036864907E+02  0.49681605960E+02  0.00000000000E+00 0. -1.
        -12    1    3    3    0    0 -0.75105445781E+02 -0.11478439313E+02 -0.23508679793E+03  0.24705947688E+03  0.00000000000E+00 0.  1.
        -11    1    4    4    0    0  0.91650594483E+02  0.24671486856E+02  0.28405287563E+02  0.99072569838E+02  0.00000000000E+00 0.  1.
         11    1    4    4    0    0  0.61526794502E+01  0.37899172211E+02  0.59913699144E+02  0.71160762108E+02  0.00000000000E+00 0. -1.
         21    1    1    2  502  501  0.11454754604E+02 -0.26113334118E+02  0.73365689513E+02  0.78712400671E+02  0.00000000000E+00 0. -1.
<scales pt_clust_5="13000.00000" pt_clust_6="13000.00000" pt_clust_7="13000.00000" pt_clust_8="13000.00000" pt_clust_9="28.51522"></scales>
<clustering>
<clus scale="   28.515">  1  9  2 -1</clus>
<clus scale="   81.260">  5  6 -1 -1</clus>
<clus scale="   87.742">  7  8 -1 -1</clus>
<clus scale="  140.745">  2  5  1 -1</clus>
<clus scale="   28.515">  1  5  2 -1</clus>
</clustering>
</event>
<event>
 9    1  0.2951046E-005  0.1191328E+03  0.7546771E-02  0.1248548E+00
         -2   -1    0    0    0  501 -0.00000000000E+00  0.00000000000E+00  0.11589237382E+03  0.11589237382E+03  0.00000000000E+00 0.  1.
          1   -1    0    0  502    0  0.00000000000E+00 -0.00000000000E+00 -0.53497811098E+03  0.53497811098E+03  0.00000000000E+00 0. -1.
         23    2    1    2    0    0  0.48161663043E+02 -0.47332826790E+02  0.44912841620E+02  0.12257803953E+03  0.91914471947E+02 0.  0.
        -24    2    1    2    0    0 -0.11287821519E+03  0.45381462521E+02 -0.15470458054E+03  0.21229431665E+03  0.79588950493E+02 0.  0.
         11    1    4    4    0    0 -0.65080191337E+02  0.59757101285E+02 -0.12843435121E+03  0.15589010562E+03  0.00000000000E+00 0. -1.
        -12    1    4    4    0    0 -0.47798023849E+02 -0.14375638765E+02 -0.26270229325E+02  0.56404211036E+02  0.00000000000E+00 0.  1.
        -13    1    3    3    0    0  0.37619121099E+02 -0.67450292004E+02  0.57798802484E+02  0.96464717551E+02  0.00000000000E+00 0.  1.
         13    1    3    3    0    0  0.10542541944E+02  0.20117465214E+02 -0.12885960864E+02  0.26113321977E+02  0.00000000000E+00 0. -1.
         21    1    1    2  502  501  0.64716552143E+02  0.19513642691E+01 -0.30929399824E+03  0.31599812862E+03  0.00000000000E+00 0. -1.
<scales pt_clust_5="13000.00000" pt_clust_6="13000.00000" pt_clust_7="13000.00000" pt_clust_8="13000.00000" pt_clust_9="64.74596"></scales>
<clustering>
<clus scale="   64.746">  2  9  1 -1</clus>
<clus scale="   79.589">  5  6 -1 -1</clus>
<clus scale="   91.914">  7  8 -1 -1</clus>
<clus scale="  109.903">  2  5  1 -1</clus>
<clus scale="   64.746">  2  5  1 -1</clus>
</clustering>
</event>
<event>
 9    1  0.2951046E-005  0.2413319E+03  0.7546771E-02  0.1146751E+00
         -2   -1    0    0    0  501 -0.00000000000E+00  0.00000000000E+00  0.14235156597E+04  0.14235156597E+04  0.00000000000E+00 0.  1.
          1   -1    0    0  502    0  0.00000000000E+00 -0.00000000000E+00 -0.65627439573E+02  0.65627439573E+02  0.00000000000E+00 0. -1.
        -24    2    1    2    0    0  0.11244008329E+03 -0.21842976969E+03  0.54280511889E+03  0.60121251308E+03  0.80403682596E+02 0.  0.
         23    2    1    2    0    0  0.47998824405E+02  0.66572891619E+02  0.20005484055E+03  0.23443160688E+03  0.90556071212E+02 0.  0.
         13    1    3    3    0    0  0.72204586503E+01 -0.91735272318E+02  0.16178347125E+03  0.18612196749E+03  0.00000000000E+00 0. -1.
        -14    1    3    3    0    0  0.10521962464E+03 -0.12669449737E+03  0.38102164763E+03  0.41509054559E+03  0.00000000000E+00 0.  1.
        -13    1    4    4    0    0 -0.22066835671E+02  0.11623595766E+02  0.87099001517E+02  0.90599609714E+02  0.00000000000E+00 0.  1.
         13    1    4    4    0    0  0.70065660077E+02  0.54949295852E+02  0.11295583903E+03  0.14383199716E+03  0.00000000000E+00 0. -1.
         21    1    1    2  502  501 -0.16043890770E+03  0.15185687807E+03  0.61502826072E+03  0.65349897935E+03  0.00000000000E+00 0. -1.
<scales pt_clust_5="13000.00000" pt_clust_6="13000.00000" pt_clust_7="13000.00000" pt_clust_8="13000.00000" pt_clust_9="227.54413"></scales>
<clustering>
<clus scale="   80.404">  5  6 -1 -1</clus>
<clus scale="   90.556">  7  8 -1 -1</clus>
<clus scale="  122.214">  2  7  1 -1</clus>
<clus scale="  227.544">  1  9  2 -1</clus>
<clus scale="  122.214">  2  5  1 -1</clus>
</clustering>
</event>
<event>
 9    1  0.2951046E-005  0.1116357E+03  0.7546771E-02  0.1262944E+00
         -2   -1    0    0    0  501 -0.00000000000E+00  0.00000000000E+00  0.68910705104E+02  0.68910705104E+02  0.00000000000E+00 0.  1.
          1   -1    0    0  502    0  0.00000000000E+00 -0.00000000000E+00 -0.24763361787E+03  0.24763361787E+03  0.00000000000E+00 0. -1.
        -24    2    1    2    0    0 -0.66283021603E+02 -0.13426456345E+02 -0.27456772403E+02  0.10950707284E+03  0.81634649312E+02 0.  0.
         23    2    1    2    0    0  0.35681997984E+02  0.29043480566E+02 -0.10084146099E+03  0.14602116715E+03  0.95060255939E+02 0.  0.
         11    1    3    3    0    0 -0.38308893162E+02 -0.47256598496E+02 -0.24260294738E+02  0.65492895015E+02  0.00000000000E+00 0. -1.
        -12    1    3    3    0    0 -0.27974128442E+02  0.33830142152E+02 -0.31964776649E+01  0.44014177824E+02  0.00000000000E+00 0.  1.
        -11    1    4    4    0    0  0.61598187501E+02  0.18347317448E+02 -0.32226742269E+02  0.71899399707E+02  0.00000000000E+00 0. -1.
         11    1    4    4    0    0 -0.25916189517E+02  0.10696163118E+02 -0.68614718717E+02  0.74121767445E+02  0.00000000000E+00 0.  1.
         21    1    1    2  502  501  0.30601023619E+02 -0.15617024222E+02 -0.50424679372E+02  0.61016082977E+02  0.00000000000E+00 0. -1.
<scales pt_clust_5="13000.00000" pt_clust_6="13000.00000" pt_clust_7="13000.00000" pt_clust_8="13000.00000" pt_clust_9="34.35570"></scales>
<clustering>
<clus scale="   34.356">  2  9  1 -1</clus>
<clus scale="   81.635">  5  6 -1 -1</clus>
<clus scale="   95.060">  7  8 -1 -1</clus>
<clus scale="  100.450">  1  5  2 -1</clus>
<clus scale="   34.356">  2  5  1 -1</clus>
</clustering>
</event>
<event>
 9    1  0.2951046E-005  0.1220709E+03  0.7546771E-02  0.1243099E+00
          1   -1    0    0  502    0  0.00000000000E+00  0.00000000000E+00  0.35709095799E+03  0.35709095799E+03  0.00000000000E+00 0. -1.
         -2   -1    0    0    0  501 -0.00000000000E+00 -0.00000000000E+00 -0.13401136637E+03  0.13401136637E+03  0.00000000000E+00 0.  1.
        -24    2    1    2    0    0 -0.23608390236E+02  0.76533117816E+02 -0.74251985682E+02  0.13694677086E+03  0.82621949020E+02 0.  0.
         23    2    1    2    0    0 -0.39051574727E+02 -0.80157028963E+02  0.18817226333E+03  0.22823827999E+03  0.93454464781E+02 0.  0.
         11    1    3    3    0    0  0.18929512756E+02  0.44932075662E+02 -0.39589677789E+01  0.48917188210E+02  0.00000000000E+00 0. -1.
        -12    1    3    3    0    0 -0.42537902992E+02  0.31601042153E+02 -0.70293017903E+02  0.88029582653E+02  0.00000000000E+00 0.  1.
        -11    1    4    4    0    0 -0.63865936245E+02 -0.24965604756E+02  0.95922595181E+02  0.11791218554E+03  0.00000000000E+00 0.  1.
         11    1    4    4    0    0  0.24814361517E+02 -0.55191424207E+02  0.92249668144E+02  0.11032609445E+03  0.00000000000E+00 0. -1.
         21    1    1    2  502  501  0.62659964963E+02  0.36239111477E+01  0.10915931397E+03  0.12591727351E+03  0.00000000000E+00 0. -1.
<scales pt_clust_5="13000.00000" pt_clust_6="13000.00000" pt_clust_7="13000.00000" pt_clust_8="13000.00000" pt_clust_9="62.76467"></scales>
<clustering>
<clus scale="   62.765">  1  9  2 -1</clus>
<clus scale="   82.622">  5  6 -1 -1</clus>
<clus scale="   93.454">  7  8 -1 -1</clus>
<clus scale="  113.991">  2  5  1 -1</clus>
<clus scale="   62.765">  1  5  2 -1</clus>
</clustering>
</event>
<event>
 9    1  0.2951046E-005  0.1333430E+03  0.7546771E-02  0.1233039E+00
         -2   -1    0    0    0  501 -0.00000000000E+00  0.00000000000E+00  0.23568474192E+03  0.23568474192E+03  0.00000000000E+00 0.  1.
          1   -1    0    0  502    0  0.00000000000E+00 -0.00000000000E+00 -0.16741880439E+03  0.16741880439E+03  0.00000000000E+00 0. -1.
        -24    2    1    2    0    0  0.53076294611E+02 -0.40199394792E+02  0.17137897785E+03  0.20160144945E+03  0.82700096614E+02 0.  0.
         23    2    1    2    0    0 -0.77082874412E+02  0.33749711947E+02 -0.65498717102E+02  0.15641605031E+03  0.11443376367E+03 0.  0.
         13    1    3    3    0    0  0.37983472734E+02 -0.59275151973E+02  0.77851418715E+02  0.10496252302E+03  0.00000000000E+00 0. -1.
        -14    1    3    3    0    0  0.15092821878E+02  0.19075757181E+02  0.93527559130E+02  0.96638926428E+02  0.00000000000E+00 0.  1.
        -11    1    4    4    0    0 -0.50238615715E+02  0.23737764800E+02 -0.98267268031E+02  0.11288868833E+03  0.00000000000E+00 0. -1.
         11    1    4    4    0    0 -0.26844258697E+02  0.10011947147E+02  0.32768550929E+02  0.43527361977E+02  0.00000000000E+00 0.  1.
         21    1    1    2  502  501  0.24006579800E+02  0.64496828446E+01 -0.37614323216E+02  0.45086046550E+02  0.00000000000E+00 0.  1.
<scales pt_clust_5="13000.00000" pt_clust_6="13000.00000" pt_clust_7="13000.00000" pt_clust_8="13000.00000" pt_clust_9="24.85788"></scales>
<clustering>
<clus scale="   24.858">  2  9  1 -1</clus>
<clus scale="   82.700">  5  6 -1 -1</clus>
<clus scale="  107.353">  1  5  2 -1</clus>
<clus scale="  114.434">  7  8 -1 -1</clus>
<clus scale="   24.858">  2  5  1 -1</clus>
</clustering>
</event>
<event>
 9    1  0.2951046E-005  0.2285054E+03  0.7546771E-02  0.1128247E+00
         -2   -1    0    0    0  501 -0.00000000000E+00  0.00000000000E+00  0.12322224295E+04  0.12322224295E+04  0.00000000000E+00 0.  1.
          1   -1    0    0  502    0  0.00000000000E+00 -0.00000000000E+00 -0.57125468974E+02  0.57125468974E+02  0.00000000000E+00 0. -1.
         23    2    1    2    0    0 -0.80009952583E+02  0.17543102468E+03  0.62809699110E+03  0.66324954206E+03  0.90644844737E+02 0.  0.
        -24    2    1    2    0    0  0.10526134230E+03 -0.21454557507E+03  0.49799300877E+03  0.55850203310E+03  0.82569547812E+02 0.  0.
         13    1    4    4    0    0  0.53277067678E+02 -0.54388624541E+02  0.94986175303E+02  0.12173307652E+03  0.00000000000E+00 0. -1.
        -14    1    4    4    0    0  0.51984274617E+02 -0.16015695053E+03  0.40300683346E+03  0.43676895658E+03  0.00000000000E+00 0.  1.
        -11    1    3    3    0    0 -0.90911027421E+02  0.11226223328E+03  0.49278023191E+03  0.51351726445E+03  0.00000000000E+00 0.  1.
         11    1    3    3    0    0  0.10901074837E+02  0.63168791400E+02  0.13531675920E+03  0.14973227761E+03  0.00000000000E+00 0. -1.
         21    1    1    2  502  501 -0.25251389712E+02  0.39114550393E+02  0.49006960690E+02  0.67596323354E+02  0.00000000000E+00 0.  1.
<scales pt_clust_5="13000.00000" pt_clust_6="13000.00000" pt_clust_7="13000.00000" pt_clust_8="13000.00000" pt_clust_9="46.55728"></scales>
<clustering>
<clus scale="   46.557">  2  9  1 -1</clus>
<clus scale="   82.570">  5  6 -1 -1</clus>
<clus scale="   90.645">  7  8 -1 -1</clus>
<clus scale="  225.424">  2  5  1 -1</clus>
<clus scale="   46.557">  2  5  1 -1</clus>
</clustering>
</event>
<event>
 9    1  0.2951046E-005  0.3889970E+03  0.7546771E-02  0.1047930E+00
         -2   -1    0    0    0  501 -0.00000000000E+00  0.00000000000E+00  0.48459138852E+03  0.48459138852E+03  0.00000000000E+00 0.  1.
          1   -1    0    0  502    0  0.00000000000E+00 -0.00000000000E+00 -0.55098732701E+03  0.55098732701E+03  0.00000000000E+00 0. -1.
         23    2    1    2    0    0 -0.29310074122E+03  0.24880455086E+03  0.25626532297E+03  0.47118911119E+03  0.92387843980E+02 0.  0.
        -24    2    1    2    0    0  0.27558855243E+03 -0.23233299515E+03 -0.16372240986E+03  0.40364276160E+03  0.78706928769E+02 0.  0.
         11    1    4    4    0    0  0.17262374981E+03 -0.17594750431E+03 -0.14133636178E+03  0.28413456395E+03  0.00000000000E+00 0. -1.
        -12    1    4    4    0    0  0.10296480262E+03 -0.56385490836E+02 -0.22386048076E+02  0.11950819764E+03  0.00000000000E+00 0.  1.
        -13    1    3    3    0    0 -0.23532504784E+03  0.15464950601E+03  0.15554017919E+03  0.32169410189E+03  0.00000000000E+00 0.  1.
         13    1    3    3    0    0 -0.57775693388E+02  0.94155044848E+02  0.10072514378E+03  0.14949500930E+03  0.00000000000E+00 0. -1.
         21    1    1    2  502  501  0.17512188793E+02 -0.16471555710E+02 -0.15893885160E+03  0.16074684275E+03  0.00000000000E+00 0. -1.
<scales pt_clust_5="13000.00000" pt_clust_6="13000.00000" pt_clust_7="13000.00000" pt_clust_8="13000.00000" pt_clust_9="24.04140"></scales>
<clustering>
<clus scale="   24.041">  2  9  1 -1</clus>
<clus scale="   78.707">  5  6 -1 -1</clus>
<clus scale="   92.388">  7  8 -1 -1</clus>
<clus scale="  385.977">  2  5  1 -1</clus>
<clus scale="   24.041">  2  5  1 -1</clus>
</clustering>
</event>
<event>
 9    1  0.2951046E-005  0.8869427E+02  0.7546771E-02  0.1311223E+00
          1   -1    0    0  502    0  0.00000000000E+00  0.00000000000E+00  0.25008407302E+03  0.25008407302E+03  0.00000000000E+00 0. -1.
         -2   -1    0    0    0  501 -0.00000000000E+00 -0.00000000000E+00 -0.14078301689E+03  0.14078301689E+03  0.00000000000E+00 0.  1.
         23    2    1    2    0    0 -0.13943293199E+02  0.76706332821E+01 -0.10422941039E+03  0.13713102798E+03  0.87680640997E+02 0.  0.
        -24    2    1    2    0    0 -0.17282418044E+02  0.77395186978E+01  0.20050194718E+03  0.21655730263E+03  0.79608117535E+02 0.  0.
         11    1    4    4    0    0 -0.42477789377E+02  0.20713372498E+02  0.16198454238E+03  0.16873766136E+03  0.00000000000E+00 0. -1.
        -12    1    4    4    0    0  0.25195371333E+02 -0.12973853800E+02  0.38517404795E+02  0.47819641270E+02  0.00000000000E+00 0.  1.
        -13    1    3    3    0    0  0.31172978892E+02  0.24043054557E+02 -0.60627114213E+02  0.72287412896E+02  0.00000000000E+00 0.  1.
         13    1    3    3    0    0 -0.45116272091E+02 -0.16372421275E+02 -0.43602296175E+02  0.64843615086E+02  0.00000000000E+00 0. -1.
         21    1    1    2  502  501  0.31225711243E+02 -0.15410151980E+02  0.13028519333E+02  0.37178759295E+02  0.00000000000E+00 0.  1.
<scales pt_clust_5="13000.00000" pt_clust_6="13000.00000" pt_clust_7="13000.00000" pt_clust_8="13000.00000" pt_clust_9="34.82123"></scales>
<clustering>
<clus scale="   34.821">  1  9  2 -1</clus>
<clus scale="   79.608">  5  6 -1 -1</clus>
<clus scale="   80.723">  1  5  2 -1</clus>
<clus scale="   87.681">  7  8 -1 -1</clus>
<clus scale="   34.821">  1  5  2 -1</clus>
</clustering>
</event>
<event>
 9    1  0.2951046E-005  0.1002741E+03  0.7546771E-02  0.1284157E+00
          1   -1    0    0  502    0  0.00000000000E+00  0.00000000000E+00  0.35154289447E+03  0.35154289447E+03  0.00000000000E+00 0. -1.
         -2   -1    0    0    0  501 -0.00000000000E+00 -0.00000000000E+00 -0.42333338751E+02  0.42333338751E+02  0.00000000000E+00 0.  1.
        -24    2    1    2    0    0 -0.53851884458E+02  0.25329740974E+02  0.65242576845E+02  0.11948028905E+03  0.80481826526E+02 0.  0.
         23    2    1    2    0    0  0.32238143517E+02 -0.23179727570E+02  0.22548568540E+03  0.24587692309E+03  0.89638548161E+02 0.  0.
         13    1    3    3    0    0 -0.47383468340E+02 -0.10644650087E+01  0.76559581096E+02  0.90042743268E+02  0.00000000000E+00 0. -1.
        -14    1    3    3    0    0 -0.64684161183E+01  0.26394205982E+02 -0.11317004251E+02  0.29437545783E+02  0.00000000000E+00 0.  1.
        -11    1    4    4    0    0  0.14996115745E+02  0.34544053623E+02  0.93119212619E+02  0.10044582065E+03  0.00000000000E+00 0.  1.
         11    1    4    4    0    0  0.17242027773E+02 -0.57723781193E+02  0.13236647279E+03  0.14543110243E+03  0.00000000000E+00 0. -1.
         21    1    1    2  502  501  0.21613740941E+02 -0.21500134039E+01  0.18481293465E+02  0.28519021078E+02  0.00000000000E+00 0. -1.
<scales pt_clust_5="13000.00000" pt_clust_6="13000.00000" pt_clust_7="13000.00000" pt_clust_8="13000.00000" pt_clust_9="21.72041"></scales>
<clustering>
<clus scale="   21.720">  2  9  1 -1</clus>
<clus scale="   80.482">  5  6 -1 -1</clus>
<clus scale="   89.639">  7  8 -1 -1</clus>
<clus scale="   92.180">  2  5  1 -1</clus>
<clus scale="  100.274">  1  5  2 -1</clus>
</clustering>
</event>
<event>
 9    1  0.2951046E-005  0.1179863E+03  0.7546771E-02  0.1249608E+00
         -2   -1    0    0    0  501 -0.00000000000E+00  0.00000000000E+00  0.33716555963E+02  0.33716555963E+02  0.00000000000E+00 0.  1.
          1   -1    0    0  502    0  0.00000000000E+00 -0.00000000000E+00 -0.85299174206E+03  0.85299174206E+03  0.00000000000E+00 0. -1.
         23    2    1    2    0    0 -0.80522841062E+02 -0.31603717618E+02 -0.12113183466E+03  0.17313180811E+03  0.88424989180E+02 0.  0.
        -24    2    1    2    0    0  0.41453738088E+02  0.44567931305E+02 -0.37972947583E+03  0.39251284852E+03  0.78531194677E+02 0.  0.
         13    1    4    4    0    0  0.46023926410E+02  0.63467756876E+02 -0.32827825220E+03  0.33750995368E+03  0.00000000000E+00 0. -1.
        -14    1    4    4    0    0 -0.45701883213E+01 -0.18899825571E+02 -0.51451223629E+02  0.55002894840E+02  0.00000000000E+00 0.  1.
        -11    1    3    3    0    0 -0.63310778368E+02  0.21613710739E+02 -0.76105611974E+02  0.10132853164E+03  0.00000000000E+00 0. -1.
         11    1    3    3    0    0 -0.17212062695E+02 -0.53217428357E+02 -0.45026222681E+02  0.71803276472E+02  0.00000000000E+00 0.  1.
         21    1    1    2  502  501  0.39069102974E+02 -0.12964213686E+02 -0.31841387561E+03  0.32106364139E+03  0.00000000000E+00 0.  1.
<scales pt_clust_5="13000.00000" pt_clust_6="13000.00000" pt_clust_7="13000.00000" pt_clust_8="13000.00000" pt_clust_9="41.16389"></scales>
<clustering>
<clus scale="   41.164">  2  9  1 -1</clus>
<clus scale="   78.531">  5  6 -1 -1</clus>
<clus scale="   88.425">  7  8 -1 -1</clus>
<clus scale="  110.765">  2  5  1 -1</clus>
<clus scale="   41.164">  2  5  1 -1</clus>
</clustering>
</event>
<event>
 9    1  0.2951046E-005  0.1045847E+03  0.7546771E-02  0.1271755E+00
          1   -1    0    0  502    0  0.00000000000E+00  0.00000000000E+00  0.44762422645E+02  0.44762422645E+02  0.00000000000E+00 0. -1.
         -2   -1    0    0    0  501 -0.00000000000E+00 -0.00000000000E+00 -0.40629853453E+03  0.40629853453E+03  0.00000000000E+00 0.  1.
         23    2    1    2    0    0 -0.96466341978E+01 -0.75129053988E+02 -0.29101310716E+03  0.31104094296E+03  0.79500989639E+02 0.  0.
        -24    2    1    2    0    0  0.76115099759E+01  0.45496535678E+02 -0.44129605611E+02  0.10028540224E+03  0.77342549532E+02 0.  0.
         11    1    4    4    0    0  0.17919937213E+02  0.34179841126E+02  0.13323678212E+02  0.40827761269E+02  0.00000000000E+00 0. -1.
        -12    1    4    4    0    0 -0.10308427237E+02  0.11316694552E+02 -0.57453283823E+02  0.59457640971E+02  0.00000000000E+00 0.  1.
        -13    1    3    3    0    0 -0.34099405471E+02 -0.78056781021E+02 -0.22623619722E+03  0.24174045472E+03  0.00000000000E+00 0.  1.
         13    1    3    3    0    0  0.24452771273E+02  0.29277270329E+01 -0.64776909942E+02  0.69300488239E+02  0.00000000000E+00 0. -1.
         21    1    1    2  502  501  0.20351242219E+01  0.29632518310E+02 -0.26393399108E+02  0.39734611971E+02  0.00000000000E+00 0. -1.
<scales pt_clust_5="13000.00000" pt_clust_6="13000.00000" pt_clust_7="13000.00000" pt_clust_8="13000.00000" pt_clust_9="29.70232"></scales>
<clustering>
<clus scale="   29.702">  1  9  2 -1</clus>
<clus scale="   77.343">  5  6 -1 -1</clus>
<clus scale="   79.501">  7  8 -1 -1</clus>
<clus scale="  102.954">  1  5  2 -1</clus>
<clus scale="   29.702">  1  5  2 -1</clus>
</clustering>
</event>
<event>
 9    1  0.2951046E-005  0.9358071E+02  0.7546771E-02  0.1300772E+00
          1   -1    0    0  502    0  0.00000000000E+00  0.00000000000E+00  0.29162833482E+03  0.29162833482E+03  0.00000000000E+00 0. -1.
         -2   -1    0    0    0  501 -0.00000000000E+00 -0.00000000000E+00 -0.12685490372E+03  0.12685490372E+03  0.00000000000E+00 0.  1.
        -24    2    1    2    0    0  0.12402165384E+02  0.19837473830E+01 -0.64517946742E+02  0.10440871864E+03  0.81122537655E+02 0.  0.
         23    2    1    2    0    0 -0.29713414926E+02 -0.24461530533E+02  0.18283107322E+02  0.10116745022E+03  0.91756893296E+02 0.  0.
         11    1    3    3    0    0 -0.15813796123E+02 -0.31815937679E+02 -0.16228326192E+02  0.39060064122E+02  0.00000000000E+00 0. -1.
        -12    1    3    3    0    0  0.28215961507E+02  0.33799685062E+02 -0.48289620549E+02  0.65348654514E+02  0.00000000000E+00 0.  1.
        -11    1    4    4    0    0  0.25871809664E+02  0.77835184019E+01 -0.12669685659E+02  0.29840486402E+02  0.00000000000E+00 0.  1.
         11    1    4    4    0    0 -0.55585224591E+02 -0.32245048935E+02  0.30952792981E+02  0.71326963814E+02  0.00000000000E+00 0. -1.
         21    1    1    2  502  501  0.17311249542E+02  0.22477783150E+02  0.21100827052E+03  0.21290706969E+03  0.00000000000E+00 0. -1.
<scales pt_clust_5="13000.00000" pt_clust_6="13000.00000" pt_clust_7="13000.00000" pt_clust_8="13000.00000" pt_clust_9="28.37129"></scales>
<clustering>
<clus scale="   28.371">  1  9  2 -1</clus>
<clus scale="   81.123">  5  6 -1 -1</clus>
<clus scale="   83.180">  2  5  1 -1</clus>
<clus scale="   91.757">  7  8 -1 -1</clus>
<clus scale="   28.371">  1  5  2 -1</clus>
</clustering>
</event>
<event>
 9    1  0.2951046E-005  0.1217678E+03  0.7546771E-02  0.1245145E+00
         -2   -1    0    0    0  501 -0.00000000000E+00  0.00000000000E+00  0.36802901285E+03  0.36802901285E+03  0.00000000000E+00 0.  1.
          1   -1    0    0  502    0  0.00000000000E+00 -0.00000000000E+00 -0.46912996597E+02  0.46912996597E+02  0.00000000000E+00 0. -1.
         23    2    1    2    0    0 -0.62970550865E+02  0.40600379698E+02  0.17907355644E+03  0.21470946196E+03  0.91755835404E+02 0.  0.
        -24    2    1    2    0    0  0.83963950743E+02 -0.27628962215E+02  0.11915567242E+03  0.16657566785E+03  0.75736875241E+02 0.  0.
         11    1    4    4    0    0  0.49135414820E+02  0.20443003173E+02  0.35402290418E+02  0.63918131505E+02  0.00000000000E+00 0. -1.
        -12    1    4    4    0    0  0.34828535922E+02 -0.48071965388E+02  0.83753382005E+02  0.10265753634E+03  0.00000000000E+00 0.  1.
        -11    1    3    3    0    0  0.19569068300E+02  0.25450046023E+02  0.70663950575E+02  0.77614735634E+02  0.00000000000E+00 0.  1.
         11    1    3    3    0    0 -0.82539619165E+02  0.15150333675E+02  0.10840960587E+03  0.13709472633E+03  0.00000000000E+00 0. -1.
         21    1    1    2  502  501 -0.20993399878E+02 -0.12971417483E+02  0.22886787382E+02  0.33656879632E+02  0.00000000000E+00 0.  1.
<scales pt_clust_5="13000.00000" pt_clust_6="13000.00000" pt_clust_7="13000.00000" pt_clust_8="13000.00000" pt_clust_9="24.67753"></scales>
<clustering>
<clus scale="   24.678">  2  9  1 -1</clus>
<clus scale="   75.737">  5  6 -1 -1</clus>
<clus scale="   91.756">  7  8 -1 -1</clus>
<clus scale="  110.201">  2  5  1 -1</clus>
<clus scale="   24.678">  2  5  1 -1</clus>
</clustering>
</event>
<event>
 9    1  0.2951046E-005  0.1064935E+03  0.7546771E-02  0.1271496E+00
          3   -1    0    0  502    0  0.00000000000E+00  0.00000000000E+00  0.25927459526E+02  0.25927459526E+02  0.00000000000E+00 0. -1.
         -4   -1    0    0    0  501 -0.00000000000E+00 -0.00000000000E+00 -0.61304616155E+03  0.61304616155E+03  0.00000000000E+00 0.  1.
        -24    2    1    2    0    0  0.73312990410E+02 -0.70075884669E+01 -0.32853531986E+03  0.34592619685E+03  0.79407659686E+02 0.  0.
         23    2    1    2    0    0 -0.37965463318E+02  0.45145622789E+01 -0.22016744388E+03  0.24078417551E+03  0.89674735329E+02 0.  0.
         13    1    3    3    0    0  0.38522124270E+02 -0.37686878975E+02 -0.10962215873E+03  0.12215266100E+03  0.00000000000E+00 0. -1.
        -14    1    3    3    0    0  0.34790866140E+02  0.30679290508E+02 -0.21891316113E+03  0.22377353585E+03  0.00000000000E+00 0.  1.
        -11    1    4    4    0    0  0.13649028099E+02 -0.26548586058E+02 -0.34673242808E+02  0.45753220177E+02  0.00000000000E+00 0. -1.
         11    1    4    4    0    0 -0.51614491417E+02  0.31063148337E+02 -0.18549420107E+03  0.19503095533E+03  0.00000000000E+00 0.  1.
         21    1    1    2  502  501 -0.35347527092E+02  0.24930261880E+01 -0.38415938289E+02  0.52263248710E+02  0.00000000000E+00 0.  1.
<scales pt_clust_5="13000.00000" pt_clust_6="13000.00000" pt_clust_7="13000.00000" pt_clust_8="13000.00000" pt_clust_9="35.43533"></scales>
<clustering>
<clus scale="   35.435">  1  9  2 -1</clus>
<clus scale="   79.408">  5  6 -1 -1</clus>
<clus scale="   89.675">  7  8 -1 -1</clus>
<clus scale="   98.005">  2  5  1 -1</clus>
<clus scale="   35.435">  1  5  2 -1</clus>
</clustering>
</event>
<event>
 9    1  0.2951046E-005  0.9282206E+02  0.7546771E-02  0.1304137E+00
          1   -1    0    0  502    0  0.00000000000E+00  0.00000000000E+00  0.40927599340E+03  0.40927599340E+03  0.00000000000E+00 0. -1.
         -2   -1    0    0    0  501 -0.00000000000E+00 -0.00000000000E+00 -0.28829576728E+02  0.28829576728E+02  0.00000000000E+00 0.  1.
        -24    2    1    2    0    0 -0.13583563036E+02 -0.14915101405E+02  0.71741085773E+02  0.10849174409E+03  0.78846063392E+02 0.  0.
         23    2    1    2    0    0  0.22688027252E+01 -0.33363971965E+01  0.22084593240E+03  0.23916817990E+03  0.91718119284E+02 0.  0.
         11    1    3    3    0    0 -0.22878707193E+02  0.26658376267E+02  0.48734603668E+02  0.60076333632E+02  0.00000000000E+00 0. -1.
        -12    1    3    3    0    0  0.92951441564E+01 -0.41573477672E+02  0.23006482105E+02  0.48415410455E+02  0.00000000000E+00 0.  1.
        -11    1    4    4    0    0  0.20497156008E+02  0.39876176231E+02  0.10323451083E+03  0.11255046451E+03  0.00000000000E+00 0. -1.
         11    1    4    4    0    0 -0.18228353282E+02 -0.43212573428E+02  0.11761142157E+03  0.12661771538E+03  0.00000000000E+00 0.  1.
         21    1    1    2  502  501  0.11314760311E+02  0.18251498601E+02  0.87859398497E+02  0.90445646143E+02  0.00000000000E+00 0. -1.
<scales pt_clust_5="13000.00000" pt_clust_6="13000.00000" pt_clust_7="13000.00000" pt_clust_8="13000.00000" pt_clust_9="21.47419"></scales>
<clustering>
<clus scale="   21.474">  1  9  2 -1</clus>
<clus scale="   78.846">  5  6 -1 -1</clus>
<clus scale="   80.128">  2  5  1 -1</clus>
<clus scale="   91.718">  7  8 -1 -1</clus>
<clus scale="   21.474">  1  5  2 -1</clus>
</clustering>
</event>
<event>
 9    1  0.2951046E-005  0.8438114E+02  0.7546771E-02  0.1317883E+00
         -2   -1    0    0    0  501 -0.00000000000E+00  0.00000000000E+00  0.80279934316E+02  0.80279934316E+02  0.00000000000E+00 0.  1.
          1   -1    0    0  502    0  0.00000000000E+00 -0.00000000000E+00 -0.36400824816E+03  0.36400824816E+03  0.00000000000E+00 0. -1.
         23    2    1    2    0    0 -0.37870518148E+01 -0.30115674653E+01  0.36592241546E+02  0.91610246773E+02  0.83845297258E+02 0.  0.
        -24    2    1    2    0    0  0.21909772480E+02  0.48157830312E+02 -0.23111323892E+03  0.25106807710E+03  0.82599245663E+02 0.  0.
         11    1    4    4    0    0 -0.11674950645E+02  0.45932505318E+02 -0.19893641156E+03  0.20450377835E+03  0.00000000000E+00 0. -1.
        -12    1    4    4    0    0  0.33584723125E+02  0.22253249943E+01 -0.32176827363E+02  0.46564298748E+02  0.00000000000E+00 0.  1.
        -13    1    3    3    0    0 -0.19044615146E+02  0.27181713917E+02 -0.94198203972E+01  0.34500376140E+02  0.00000000000E+00 0. -1.
         13    1    3    3    0    0  0.15257563331E+02 -0.30193281382E+02  0.46012061944E+02  0.57109870633E+02  0.00000000000E+00 0.  1.
         21    1    1    2  502  501 -0.18122720665E+02 -0.45146262847E+02 -0.89207316467E+02  0.10160985860E+03  0.00000000000E+00 0.  1.
<scales pt_clust_5="13000.00000" pt_clust_6="13000.00000" pt_clust_7="13000.00000" pt_clust_8="13000.00000" pt_clust_9="48.64790"></scales>
<clustering>
<clus scale="   48.648">  2  9  1 -1</clus>
<clus scale="   82.599">  5  6 -1 -1</clus>
<clus scale="   83.143">  2  5  1 -1</clus>
<clus scale="   83.845">  7  8 -1 -1</clus>
<clus scale="   48.648">  2  5  1 -1</clus>
</clustering>
</event>
<event>
 9    1  0.2951046E-005  0.1799670E+03  0.7546771E-02  0.1167927E+00
         -2   -1    0    0    0  501 -0.00000000000E+00  0.00000000000E+00  0.12430504446E+03  0.12430504446E+03  0.00000000000E+00 0.  1.
          1   -1    0    0  502    0  0.00000000000E+00 -0.00000000000E+00 -0.39752098400E+03  0.39752098400E+03  0.00000000000E+00 0. -1.
        -24    2    1    2    0    0 -0.58262066222E+02  0.17619353255E+03 -0.74555186061E+02  0.21992228264E+03  0.91480628333E+02 0.  0.
         23    2    1    2    0    0  0.58862913208E+02 -0.12824948891E+03 -0.18851161714E+03  0.25289357028E+03  0.92226645466E+02 0.  0.
         11    1    3    3    0    0 -0.79496462186E+02  0.12076217124E+03 -0.69302407036E+02  0.16033094874E+03  0.00000000000E+00 0. -1.
        -12    1    3    3    0    0  0.21234395964E+02  0.55431361310E+02 -0.52527790255E+01  0.59591333901E+02  0.00000000000E+00 0.  1.
        -11    1    4    4    0    0  0.34283180457E+02 -0.88546741390E+02 -0.18261737057E+03  0.20582751494E+03  0.00000000000E+00 0. -1.
         11    1    4    4    0    0  0.24579732751E+02 -0.39702747520E+02 -0.58942465768E+01  0.47066055342E+02  0.00000000000E+00 0.  1.
         21    1    1    2  502  501 -0.60084698618E+00 -0.47944043638E+02 -0.10149136335E+02  0.49010175533E+02  0.00000000000E+00 0. -1.
<scales pt_clust_5="13000.00000" pt_clust_6="13000.00000" pt_clust_7="13000.00000" pt_clust_8="13000.00000" pt_clust_9="47.94781"></scales>
<clustering>
<clus scale="   47.948">  1  9  2 -1</clus>
<clus scale="   91.481">  5  6 -1 -1</clus>
<clus scale="   92.227">  7  8 -1 -1</clus>
<clus scale="  179.586">  1  5  2 -1</clus>
<clus scale="  179.967">  2  5  1 -1</clus>
</clustering>
</event>
<event>
 9    1  0.2951046E-005  0.1234562E+03  0.7546771E-02  0.1241482E+00
          1   -1    0    0  502    0  0.00000000000E+00  0.00000000000E+00  0.94333179663E+02  0.94333179663E+02  0.00000000000E+00 0. -1.
         -2   -1    0    0    0  501 -0.00000000000E+00 -0.00000000000E+00 -0.34205477149E+03  0.34205477149E+03  0.00000000000E+00 0.  1.
        -24    2    1    2    0    0  0.27250613226E+02 -0.50988044479E+02 -0.25298325881E+03  0.27146382462E+03  0.79685018896E+02 0.  0.
         23    2    1    2    0    0 -0.33464110994E+02  0.79219380099E+02  0.26161230096E+02  0.12925330367E+03  0.92878682386E+02 0.  0.
         13    1    3    3    0    0  0.53708376673E+02 -0.19241282346E+02 -0.14159413412E+03  0.15265554523E+03  0.00000000000E+00 0. -1.
        -14    1    3    3    0    0 -0.26457763447E+02 -0.31746762133E+02 -0.11138912469E+03  0.11880827939E+03  0.00000000000E+00 0.  1.
        -13    1    4    4    0    0  0.52934090542E+01  0.50049768106E+02 -0.27142826659E+02  0.57181574881E+02  0.00000000000E+00 0.  1.
         13    1    4    4    0    0 -0.38757520048E+02  0.29169611993E+02  0.53304056755E+02  0.72071728789E+02  0.00000000000E+00 0. -1.
         21    1    1    2  502  501  0.62134977676E+01 -0.28231335620E+02 -0.20899563106E+02  0.35670822859E+02  0.00000000000E+00 0. -1.
<scales pt_clust_5="13000.00000" pt_clust_6="13000.00000" pt_clust_7="13000.00000" pt_clust_8="13000.00000" pt_clust_9="28.90702"></scales>
<clustering>
<clus scale="   28.907">  2  9  1 -1</clus>
<clus scale="   79.685">  5  6 -1 -1</clus>
<clus scale="   92.879">  7  8 -1 -1</clus>
<clus scale="  113.863">  2  5  1 -1</clus>
<clus scale="  123.456">  1  5  2 -1</clus>
</clustering>
</event>
<event>
 9    1  0.2951046E-005  0.1386691E+03  0.7546771E-02  0.1217345E+00
          1   -1    0    0  502    0  0.00000000000E+00  0.00000000000E+00  0.47300292662E+03  0.47300292662E+03  0.00000000000E+00 0. -1.
         -2   -1    0    0    0  501 -0.00000000000E+00 -0.00000000000E+00 -0.73344802431E+02  0.73344802431E+02  0.00000000000E+00 0.  1.
        -24    2    1    2    0    0 -0.12499473683E+03  0.68985676305E+01  0.72247227145E+02  0.16556714245E+03  0.80756066995E+02 0.  0.
         23    2    1    2    0    0  0.59914822953E+02 -0.45501409954E+02  0.21646832824E+03  0.24649049687E+03  0.90768186072E+02 0.  0.
         13    1    3    3    0    0 -0.13559349590E+03  0.41077176115E+01  0.73907082438E+02  0.15448212295E+03  0.00000000000E+00 0. -1.
        -14    1    3    3    0    0  0.10598759072E+02  0.27908500190E+01 -0.16598552931E+01  0.11085019499E+02  0.00000000000E+00 0.  1.
        -13    1    4    4    0    0  0.24383603283E+01 -0.55444490519E+02  0.73645282517E+02  0.92215317420E+02  0.00000000000E+00 0. -1.
         13    1    4    4    0    0  0.57476462625E+02  0.99430805652E+01  0.14282304572E+03  0.15427517945E+03  0.00000000000E+00 0.  1.
         21    1    1    2  502  501  0.65079913879E+02  0.38602842323E+02  0.11094256880E+03  0.13429008973E+03  0.00000000000E+00 0.  1.
<scales pt_clust_5="13000.00000" pt_clust_6="13000.00000" pt_clust_7="13000.00000" pt_clust_8="13000.00000" pt_clust_9="75.66753"></scales>
<clustering>
<clus scale="   75.668">  1  9  2 -1</clus>
<clus scale="   80.756">  5  6 -1 -1</clus>
<clus scale="   90.768">  7  8 -1 -1</clus>
<clus scale="  132.332">  2  5  1 -1</clus>
<clus scale="   75.668">  1  5  2 -1</clus>
</clustering>
</event>
<event>
 9    1  0.3365350E-005  0.1019107E+03  0.7546771E-02  0.1281182E+00
          3   -1    0    0  502    0  0.00000000000E+00  0.00000000000E+00  0.27883364852E+03  0.27883364852E+03  0.00000000000E+00 0. -1.
         -4   -1    0    0    0  501 -0.00000000000E+00 -0.00000000000E+00 -0.42926990259E+03  0.42926990259E+03  0.00000000000E+00 0.  1.
         23    2    1    2    0    0  0.28930447948E+02 -0.33566081511E+02 -0.41003746643E+03  0.42249640671E+03  0.91699711878E+02 0.  0.
        -24    2    1    2    0    0 -0.16793478526E+02  0.51125032705E+02  0.21195727015E+03  0.23340017146E+03  0.81571844281E+02 0.  0.
         13    1    4    4    0    0  0.22008471707E+02  0.52568510509E+02  0.14781724828E+03  0.15842272568E+03  0.00000000000E+00 0. -1.
        -14    1    4    4    0    0 -0.38801950233E+02 -0.14434778042E+01  0.64140021870E+02  0.74977445779E+02  0.00000000000E+00 0.  1.
        -13    1    3    3    0    0 -0.12808224882E+02  0.25920754980E+02 -0.10344380086E+03  0.10740836141E+03  0.00000000000E+00 0. -1.
         13    1    3    3    0    0  0.41738672831E+02 -0.59486836490E+02 -0.30659366557E+03  0.31508804530E+03  0.00000000000E+00 0.  1.
         21    1    1    2  502  501 -0.12136969422E+02 -0.17558951194E+02  0.47643942214E+02  0.52206972940E+02  0.00000000000E+00 0. -1.
<scales pt_clust_5="13000.00000" pt_clust_6="13000.00000" pt_clust_7="13000.00000" pt_clust_8="13000.00000" pt_clust_9="21.34532"></scales>
<clustering>
<clus scale="   21.345">  1  9  2 -1</clus>
<clus scale="   81.572">  5  6 -1 -1</clus>
<clus scale="   91.700">  7  8 -1 -1</clus>
<clus scale="   92.903">  1  5  2 -1</clus>
<clus scale="   21.345">  1  5  2 -1</clus>
</clustering>
</event>
<event>
 9    1  0.2951046E-005  0.9272921E+02  0.7546771E-02  0.1303686E+00
         -2   -1    0    0    0  501 -0.00000000000E+00  0.00000000000E+00  0.17123770590E+03  0.17123770590E+03  0.00000000000E+00 0.  1.
          1   -1    0    0  502    0  0.00000000000E+00 -0.00000000000E+00 -0.27394956670E+03  0.27394956670E+03  0.00000000000E+00 0. -1.
        -24    2    1    2    0    0 -0.17382897813E+02  0.97583530656E+01  0.14835266252E+03  0.16917127948E+03  0.78822704431E+02 0.  0.
         23    2    1    2    0    0 -0.14171000848E+00  0.39280801836E+01 -0.18150707714E+03  0.20299086968E+03  0.90802115768E+02 0.  0.
         11    1    3    3    0    0 -0.21723183609E+02 -0.24750359677E+02  0.25961610853E+02  0.41934261032E+02  0.00000000000E+00 0. -1.
        -12    1    3    3    0    0  0.43402857966E+01  0.34508712742E+02  0.12239105166E+03  0.12723701845E+03  0.00000000000E+00 0.  1.
        -11    1    4    4    0    0 -0.43089434121E+02  0.11619326943E+02 -0.11594804646E+03  0.12424032183E+03  0.00000000000E+00 0.  1.
         11    1    4    4    0    0  0.42947724113E+02 -0.76912467589E+01 -0.65559030680E+02  0.78750547851E+02  0.00000000000E+00 0. -1.
         21    1    1    2  502  501  0.17524607821E+02 -0.13686433249E+02 -0.69557446177E+02  0.73025123437E+02  0.00000000000E+00 0. -1.
<scales pt_clust_5="13000.00000" pt_clust_6="13000.00000" pt_clust_7="13000.00000" pt_clust_8="13000.00000" pt_clust_9="22.23579"></scales>
<clustering>
<clus scale="   22.236">  2  9  1 -1</clus>
<clus scale="   78.823">  5  6 -1 -1</clus>
<clus scale="   81.035">  1  5  2 -1</clus>
<clus scale="   90.802">  7  8 -1 -1</clus>
<clus scale="   22.236">  2  5  1 -1</clus>
</clustering>
</event>
<event>
 9    1  0.2951046E-005  0.9940066E+02  0.7546771E-02  0.1286896E+00
         -2   -1    0    0    0  501 -0.00000000000E+00  0.00000000000E+00  0.62289090591E+03  0.62289090591E+03  0.00000000000E+00 0.  1.
          1   -1    0    0  502    0  0.00000000000E+00 -0.00000000000E+00 -0.30410854499E+03  0.30410854499E+03  0.00000000000E+00 0. -1.
        -24    2    1    2    0    0 -0.33667357367E+02  0.19226316370E+02  0.60420353573E+03  0.61087724143E+03  0.81276991349E+02 0.  0.
         23    2    1    2    0    0  0.20731275827E+02 -0.12579032637E+01 -0.13765208236E+03  0.16670363379E+03  0.91709528528E+02 0.  0.
         13    1    3    3    0    0 -0.71412817105E+01 -0.31592851876E+02  0.19346558764E+03  0.19615820093E+03  0.00000000000E+00 0. -1.
        -14    1    3    3    0    0 -0.26526075656E+02  0.50819168246E+02  0.41073794809E+03  0.41471904050E+03  0.00000000000E+00 0.  1.
        -13    1    4    4    0    0  0.11697137025E+02 -0.46354383989E+02 -0.76001809050E+02  0.89787676818E+02  0.00000000000E+00 0. -1.
         13    1    4    4    0    0  0.90341388023E+01  0.45096480726E+02 -0.61650273313E+02  0.76915956974E+02  0.00000000000E+00 0.  1.
         21    1    1    2  502  501  0.12936081540E+02 -0.17968413107E+02 -0.14776909245E+03  0.14941857568E+03  0.00000000000E+00 0.  1.
<scales pt_clust_5="13000.00000" pt_clust_6="13000.00000" pt_clust_7="13000.00000" pt_clust_8="13000.00000" pt_clust_9="22.14060"></scales>
<clustering>
<clus scale="   22.141">  2  9  1 -1</clus>
<clus scale="   81.277">  5  6 -1 -1</clus>
<clus scale="   89.865">  1  5  2 -1</clus>
<clus scale="   91.710">  7  8 -1 -1</clus>
<clus scale="   22.141">  2  5  1 -1</clus>
</clustering>
</event>
<event>
 9    1  0.2951046E-005  0.1076776E+03  0.7546771E-02  0.1269488E+00
          1   -1    0    0  502    0  0.00000000000E+00  0.00000000000E+00  0.34530504311E+03  0.34530504311E+03  0.00000000000E+00 0. -1.
         -2   -1    0    0    0  501 -0.00000000000E+00 -0.00000000000E+00 -0.22216950706E+03  0.22216950706E+03  0.00000000000E+00 0.  1.
        -24    2    1    2    0    0 -0.35112839297E+02 -0.45867805134E+02 -0.19376183818E+03  0.21780402595E+03  0.80982570698E+02 0.  0.
         23    2    1    2    0    0 -0.92705123001E+01  0.42531467267E+02  0.19510086087E+03  0.21999630274E+03  0.91864896451E+02 0.  0.
         13    1    3    3    0    0 -0.15871194172E+02  0.13459170222E+02 -0.87716499237E+01  0.22582867618E+02  0.00000000000E+00 0. -1.
        -14    1    3    3    0    0 -0.19241645125E+02 -0.59326975356E+02 -0.18499018825E+03  0.19522115834E+03  0.00000000000E+00 0.  1.
        -11    1    4    4    0    0 -0.31099308588E+02 -0.16080244942E+02  0.10196724999E+03  0.10781030258E+03  0.00000000000E+00 0.  1.
         11    1    4    4    0    0  0.21828796288E+02  0.58611712210E+02  0.93133610875E+02  0.11218600015E+03  0.00000000000E+00 0. -1.
         21    1    1    2  502  501  0.44383351597E+02  0.33363378665E+01  0.12179651336E+03  0.12967422148E+03  0.00000000000E+00 0. -1.
<scales pt_clust_5="13000.00000" pt_clust_6="13000.00000" pt_clust_7="13000.00000" pt_clust_8="13000.00000" pt_clust_9="44.50857"></scales>
<clustering>
<clus scale="   44.509">  1  9  2 -1</clus>
<clus scale="   80.983">  5  6 -1 -1</clus>
<clus scale="   91.865">  7  8 -1 -1</clus>
<clus scale="   98.557">  2  5  1 -1</clus>
<clus scale="   44.509">  1  5  2 -1</clus>
</clustering>
</event>
<event>
 9    1  0.2951046E-005  0.1097437E+03  0.7546771E-02  0.1267840E+00
          1   -1    0    0  502    0  0.00000000000E+00  0.00000000000E+00  0.41781225701E+03  0.41781225701E+03  0.00000000000E+00 0. -1.
         -2   -1    0    0    0  501 -0.00000000000E+00 -0.00000000000E+00 -0.61032850850E+02  0.61032850850E+02  0.00000000000E+00 0.  1.
        -24    2    1    2    0    0 -0.25015426211E+02  0.59434479951E+02  0.14279328998E+02  0.10269911710E+03  0.78644646738E+02 0.  0.
         23    2    1    2    0    0 -0.19290680826E+02 -0.26608637489E+02  0.22228094598E+03  0.24388410451E+03  0.94818181427E+02 0.  0.
         13    1    3    3    0    0 -0.25289801928E+02 -0.86760522790E+01 -0.12497879943E+02  0.29513470955E+02  0.00000000000E+00 0. -1.
        -14    1    3    3    0    0  0.27437571742E+00  0.68110532230E+02  0.26777208942E+02  0.73185646143E+02  0.00000000000E+00 0.  1.
        -13    1    4    4    0    0  0.19425155412E+02 -0.15268534967E+02  0.81964219112E+01  0.26031637578E+02  0.00000000000E+00 0.  1.
         13    1    4    4    0    0 -0.38715836238E+02 -0.11340102521E+02  0.21408452407E+03  0.21785246693E+03  0.00000000000E+00 0. -1.
         21    1    1    2  502  501  0.44306107037E+02 -0.32825842462E+02  0.12021913118E+03  0.13226188625E+03  0.00000000000E+00 0. -1.
<scales pt_clust_5="13000.00000" pt_clust_6="13000.00000" pt_clust_7="13000.00000" pt_clust_8="13000.00000" pt_clust_9="55.14134"></scales>
<clustering>
<clus scale="   55.141">  1  9  2 -1</clus>
<clus scale="   78.645">  5  6 -1 -1</clus>
<clus scale="   94.818">  7  8 -1 -1</clus>
<clus scale="   96.115">  2  5  1 -1</clus>
<clus scale="   55.141">  1  5  2 -1</clus>
</clustering>
</event>
<event>
 9    1  0.2951046E-005  0.1659428E+03  0.7546771E-02  0.1183755E+00
         -2   -1    0    0    0  501 -0.00000000000E+00  0.00000000000E+00  0.33062173805E+03  0.33062173805E+03  0.00000000000E+00 0.  1.
          1   -1    0    0  502    0  0.00000000000E+00 -0.00000000000E+00 -0.19623281526E+03  0.19623281526E+03  0.00000000000E+00 0. -1.
        -24    2    1    2    0    0  0.57846825267E+02 -0.12197222061E+03  0.24317152819E+03  0.28952128103E+03  0.80415808456E+02 0.  0.
         23    2    1    2    0    0 -0.71057836360E+02  0.14425205026E+03 -0.95313068845E+02  0.20813823779E+03  0.91537286534E+02 0.  0.
         13    1    3    3    0    0 -0.16282723754E+02 -0.40416183936E+02  0.98033078790E+02  0.10728037823E+03  0.00000000000E+00 0. -1.
        -14    1    3    3    0    0  0.74129549021E+02 -0.81556036675E+02  0.14513844940E+03  0.18224090279E+03  0.00000000000E+00 0.  1.
        -11    1    4    4    0    0  0.13110642392E+02  0.54530792929E+02 -0.66106802881E+01  0.56472979515E+02  0.00000000000E+00 0.  1.
         11    1    4    4    0    0 -0.84168478753E+02  0.89721257331E+02 -0.88702388557E+02  0.15166525828E+03  0.00000000000E+00 0. -1.
         21    1    1    2  502  501  0.13211011093E+02 -0.22279829649E+02 -0.13469536560E+02  0.29195034483E+02  0.00000000000E+00 0. -1.
<scales pt_clust_5="13000.00000" pt_clust_6="13000.00000" pt_clust_7="13000.00000" pt_clust_8="13000.00000" pt_clust_9="25.90215"></scales>
<clustering>
<clus scale="   25.902">  2  9  1 -1</clus>
<clus scale="   80.416">  5  6 -1 -1</clus>
<clus scale="   91.537">  7  8 -1 -1</clus>
<clus scale="  160.077">  1  5  2 -1</clus>
<clus scale="   25.902">  2  5  1 -1</clus>
</clustering>
</event>
<event>
 9    1  0.2951046E-005  0.1014446E+03  0.7546771E-02  0.1280902E+00
         -2   -1    0    0    0  501 -0.00000000000E+00  0.00000000000E+00  0.82166070796E+02  0.82166070796E+02  0.00000000000E+00 0.  1.
          1   -1    0    0  502    0  0.00000000000E+00 -0.00000000000E+00 -0.48551627902E+03  0.48551627902E+03  0.00000000000E+00 0. -1.
        -24    2    1    2    0    0  0.54225915808E+02 -0.23167085980E+02  0.21132925326E+02  0.10433144387E+03  0.83434320451E+02 0.  0.
         23    2    1    2    0    0  0.12187310393E+02 -0.31381353536E+02 -0.18498102784E+03  0.20889559061E+03  0.91027837653E+02 0.  0.
         13    1    3    3    0    0  0.57559304196E+02  0.15240687642E+02  0.26923263013E+02  0.65346875599E+02  0.00000000000E+00 0. -1.
        -14    1    3    3    0    0 -0.33333883879E+01 -0.38407773622E+02 -0.57903376872E+01  0.38984568271E+02  0.00000000000E+00 0.  1.
        -13    1    4    4    0    0  0.31864660964E+02 -0.47624998428E+02 -0.16979344908E+03  0.17920187623E+03  0.00000000000E+00 0. -1.
         13    1    4    4    0    0 -0.19677350570E+02  0.16243644892E+02 -0.15187578768E+02  0.29693714380E+02  0.00000000000E+00 0.  1.
         21    1    1    2  502  501 -0.66413226201E+02  0.54548439516E+02 -0.23950210571E+03  0.25445531535E+03  0.00000000000E+00 0.  1.
<scales pt_clust_5="13000.00000" pt_clust_6="13000.00000" pt_clust_7="13000.00000" pt_clust_8="13000.00000" pt_clust_9="85.94329"></scales>
<clustering>
<clus scale="   83.434">  5  6 -1 -1</clus>
<clus scale="   85.943">  2  9  1 -1</clus>
<clus scale="   91.028">  7  8 -1 -1</clus>
<clus scale="   94.690">  1  5  2 -1</clus>
<clus scale="   85.943">  2  5  1 -1</clus>
</clustering>
</event>
<event>
 9    1  0.2951046E-005  0.9047978E+02  0.7546771E-02  0.1305807E+00
          3   -1    0    0  502    0  0.00000000000E+00  0.00000000000E+00  0.23332148062E+03  0.23332148062E+03  0.00000000000E+00 0. -1.
         -4   -1    0    0    0  501 -0.00000000000E+00 -0.00000000000E+00 -0.93452988494E+02  0.93452988494E+02  0.00000000000E+00 0.  1.
        -24    2    1    2    0    0  0.12757417038E+02  0.19504620739E+02 -0.55205592715E+02  0.10043404061E+03  0.80598741472E+02 0.  0.
         23    2    1    2    0    0  0.52061242099E+01 -0.30373254829E+02  0.17008685288E+03  0.19370336702E+03  0.87417495584E+02 0.  0.
         13    1    3    3    0    0  0.34650150277E+02  0.24147484016E+02 -0.15099233378E+01  0.42261256099E+02  0.00000000000E+00 0. -1.
        -14    1    3    3    0    0 -0.21892733239E+02 -0.46428632774E+01 -0.53695669378E+02  0.58172784513E+02  0.00000000000E+00 0.  1.
        -13    1    4    4    0    0 -0.31167306751E+02 -0.43429216188E+02  0.10930557149E+03  0.12167664438E+03  0.00000000000E+00 0. -1.
         13    1    4    4    0    0  0.36373430961E+02  0.13055961359E+02  0.60781281387E+02  0.72026722638E+02  0.00000000000E+00 0.  1.
         21    1    1    2  502  501 -0.17963541248E+02  0.10868634090E+02  0.24987231962E+02  0.32637061484E+02  0.00000000000E+00 0. -1.
<scales pt_clust_5="13000.00000" pt_clust_6="13000.00000" pt_clust_7="13000.00000" pt_clust_8="13000.00000" pt_clust_9="20.99562"></scales>
<clustering>
<clus scale="   20.996">  1  9  2 -1</clus>
<clus scale="   80.599">  5  6 -1 -1</clus>
<clus scale="   83.910">  2  5  1 -1</clus>
<clus scale="   87.417">  7  8 -1 -1</clus>
<clus scale="   20.996">  1  5  2 -1</clus>
</clustering>
</event>
<event>
 9    1  0.2951046E-005  0.9831355E+02  0.7546771E-02  0.1288880E+00
          1   -1    0    0  502    0  0.00000000000E+00  0.00000000000E+00  0.18656728685E+03  0.18656728685E+03  0.00000000000E+00 0. -1.
         -2   -1    0    0    0  501 -0.00000000000E+00 -0.00000000000E+00 -0.14139646734E+03  0.14139646734E+03  0.00000000000E+00 0.  1.
         23    2    1    2    0    0 -0.11457585460E+01 -0.44049315248E+02 -0.10408425574E+03  0.14413225442E+03  0.89436678912E+02 0.  0.
        -24    2    1    2    0    0  0.36355751544E+01  0.22234089607E+02  0.99274550995E+02  0.12924069412E+03  0.79625048787E+02 0.  0.
         11    1    4    4    0    0  0.28210767449E+02  0.28780706726E+02  0.95337370912E+02  0.10350551083E+03  0.00000000000E+00 0. -1.
        -12    1    4    4    0    0 -0.24575192295E+02 -0.65466171195E+01  0.39371800831E+01  0.25735183291E+02  0.00000000000E+00 0.  1.
        -11    1    3    3    0    0  0.42771864758E+02 -0.20005150947E+02 -0.34832866512E+02  0.58676801793E+02  0.00000000000E+00 0.  1.
         11    1    3    3    0    0 -0.43917623304E+02 -0.24044164301E+02 -0.69251389231E+02  0.85455452629E+02  0.00000000000E+00 0. -1.
         21    1    1    2  502  501 -0.24898166084E+01  0.21815225641E+02  0.49980524251E+02  0.54590805645E+02  0.00000000000E+00 0. -1.
<scales pt_clust_5="13000.00000" pt_clust_6="13000.00000" pt_clust_7="13000.00000" pt_clust_8="13000.00000" pt_clust_9="21.95685"></scales>
<clustering>
<clus scale="   21.957">  1  9  2 -1</clus>
<clus scale="   79.625">  5  6 -1 -1</clus>
<clus scale="   89.437">  7  8 -1 -1</clus>
<clus scale="   89.481">  1  5  2 -1</clus>
<clus scale="   21.957">  1  5  2 -1</clus>
</clustering>
</event>
<event>
 9    1  0.2951046E-005  0.1083297E+03  0.7546771E-02  0.1268171E+00
          3   -1    0    0  502    0  0.00000000000E+00  0.00000000000E+00  0.18823605323E+03  0.18823605323E+03  0.00000000000E+00 0. -1.
         -4   -1    0    0    0  501 -0.00000000000E+00 -0.00000000000E+00 -0.10878184385E+03  0.10878184385E+03  0.00000000000E+00 0.  1.
        -24    2    1    2    0    0  0.67383626618E+02 -0.36496007332E+01  0.94938514605E+01  0.10556954603E+03  0.80628302173E+02 0.  0.
         23    2    1    2    0    0 -0.34305629403E+02  0.52734195131E+02  0.71759494169E+02  0.13223105461E+03  0.91530624677E+02 0.  0.
         11    1    3    3    0    0  0.71273859985E+01 -0.35699024279E+02  0.81610360154E+01  0.37307137045E+02  0.00000000000E+00 0. -1.
        -12    1    3    3    0    0  0.60256240619E+02  0.32049423546E+02  0.13328154451E+01  0.68262408983E+02  0.00000000000E+00 0.  1.
        -13    1    4    4    0    0  0.31063850376E+02  0.15866599561E+02  0.31826783647E+02  0.47219232725E+02  0.00000000000E+00 0.  1.
         13    1    4    4    0    0 -0.65369479779E+02  0.36867595570E+02  0.39932710522E+02  0.85011821880E+02  0.00000000000E+00 0. -1.
         21    1    1    2  502  501 -0.33077997215E+02 -0.49084594398E+02 -0.17991362549E+01  0.59217296445E+02  0.00000000000E+00 0. -1.
<scales pt_clust_5="13000.00000" pt_clust_6="13000.00000" pt_clust_7="13000.00000" pt_clust_8="13000.00000" pt_clust_9="59.18996"></scales>
<clustering>
<clus scale="   59.190">  2  9  1 -1</clus>
<clus scale="   80.628">  5  6 -1 -1</clus>
<clus scale="   91.531">  7  8 -1 -1</clus>
<clus scale="   99.289">  2  5  1 -1</clus>
<clus scale="  108.330">  1  5  2 -1</clus>
</clustering>
</event>
<event>
 9    1  0.2951046E-005  0.1106838E+03  0.7546771E-02  0.1262846E+00
          1   -1    0    0  502    0  0.00000000000E+00  0.00000000000E+00  0.15169990936E+03  0.15169990936E+03  0.00000000000E+00 0. -1.
         -2   -1    0    0    0  501 -0.00000000000E+00 -0.00000000000E+00 -0.20050628447E+03  0.20050628447E+03  0.00000000000E+00 0.  1.
         23    2    1    2    0    0 -0.19875949616E+02 -0.17410877990E+01 -0.12650117212E+03  0.15679451202E+03  0.90464842294E+02 0.  0.
        -24    2    1    2    0    0  0.70876415987E+02  0.96410568014E+01  0.91795668980E+02  0.14191129237E+03  0.81215477215E+02 0.  0.
         13    1    4    4    0    0  0.70754118575E+02  0.65974921337E+01  0.10587207376E+03  0.12750909066E+03  0.00000000000E+00 0. -1.
        -14    1    4    4    0    0  0.12229741167E+00  0.30435646677E+01 -0.14076404782E+02  0.14402201712E+02  0.00000000000E+00 0.  1.
        -13    1    3    3    0    0 -0.49878604788E+02 -0.20345758791E+02 -0.96269294607E+02  0.11031591998E+03  0.00000000000E+00 0.  1.
         13    1    3    3    0    0  0.30002655172E+02  0.18604670992E+02 -0.30231877513E+02  0.46478592040E+02  0.00000000000E+00 0. -1.
         21    1    1    2  502  501 -0.51000466371E+02 -0.78999690024E+01 -0.14100871973E+02  0.53500389444E+02  0.00000000000E+00 0.  1.
<scales pt_clust_5="13000.00000" pt_clust_6="13000.00000" pt_clust_7="13000.00000" pt_clust_8="13000.00000" pt_clust_9="51.60869"></scales>
<clustering>
<clus scale="   51.609">  2  9  1 -1</clus>
<clus scale="   81.215">  5  6 -1 -1</clus>
<clus scale="   90.465">  7  8 -1 -1</clus>
<clus scale="  103.262">  1  5  2 -1</clus>
<clus scale="  103.262">  1  5  2 -1</clus>
</clustering>
</event>
<event>
 9    1  0.2951046E-005  0.1021227E+03  0.7546771E-02  0.1283890E+00
          1   -1    0    0  502    0  0.00000000000E+00  0.00000000000E+00  0.14786967838E+03  0.14786967838E+03  0.00000000000E+00 0. -1.
         -2   -1    0    0    0  501 -0.00000000000E+00 -0.00000000000E+00 -0.35713184829E+03  0.35713184829E+03  0.00000000000E+00 0.  1.
        -24    2    1    2    0    0  0.76033616419E+02 -0.24107395648E+02 -0.20483611070E+03  0.23410754837E+03  0.80537162868E+02 0.  0.
         23    2    1    2    0    0 -0.26431827044E+02 -0.19998576628E+02  0.10296326603E+03  0.14464762597E+03  0.96036019281E+02 0.  0.
         13    1    3    3    0    0  0.42595390988E+01 -0.22237511228E+02 -0.70829732847E+01  0.23723808495E+02  0.00000000000E+00 0. -1.
        -14    1    3    3    0    0  0.71774077321E+02 -0.18698844204E+01 -0.19775313742E+03  0.21038373987E+03  0.00000000000E+00 0.  1.
        -13    1    4    4    0    0 -0.39311619653E+02 -0.47711425211E+02  0.94522481857E+02  0.11294371657E+03  0.00000000000E+00 0. -1.
         13    1    4    4    0    0  0.12879792609E+02  0.27712848582E+02  0.84407841760E+01  0.31703909407E+02  0.00000000000E+00 0.  1.
         21    1    1    2  502  501 -0.49601789375E+02  0.44105972277E+02 -0.10738932524E+03  0.12624635232E+03  0.00000000000E+00 0.  1.
<scales pt_clust_5="13000.00000" pt_clust_6="13000.00000" pt_clust_7="13000.00000" pt_clust_8="13000.00000" pt_clust_9="66.37525"></scales>
<clustering>
<clus scale="   66.375">  2  9  1 -1</clus>
<clus scale="   80.537">  5  6 -1 -1</clus>
<clus scale="   87.706">  2  5  1 -1</clus>
<clus scale="   96.036">  7  8 -1 -1</clus>
<clus scale="  102.123">  1  5  2 -1</clus>
</clustering>
</event>
<event>
 9    1  0.2951046E-005  0.9566302E+02  0.7546771E-02  0.1294858E+00
          3   -1    0    0  502    0  0.00000000000E+00  0.00000000000E+00  0.20017244671E+03  0.20017244671E+03  0.00000000000E+00 0. -1.
         -4   -1    0    0    0  501 -0.00000000000E+00 -0.00000000000E+00 -0.38278300890E+03  0.38278300890E+03  0.00000000000E+00 0.  1.
        -24    2    1    2    0    0  0.17795056798E+02  0.30572073260E+02 -0.35496159615E+03  0.36536394557E+03  0.79004824331E+02 0.  0.
         23    2    1    2    0    0 -0.30374585853E+02 -0.51732046180E+02  0.15065681609E+03  0.18477949861E+03  0.88584235640E+02 0.  0.
         13    1    3    3    0    0 -0.89500042945E+01  0.51644743035E+02 -0.20656822492E+03  0.21311432051E+03  0.00000000000E+00 0. -1.
        -14    1    3    3    0    0  0.26745061092E+02 -0.21072669775E+02 -0.14839337123E+03  0.15224962505E+03  0.00000000000E+00 0.  1.
        -11    1    4    4    0    0 -0.53921954135E+02 -0.48524372540E+02  0.70429599688E+02  0.10110648041E+03  0.00000000000E+00 0. -1.
         11    1    4    4    0    0  0.23547368283E+02 -0.32076736400E+01  0.80227216402E+02  0.83673018201E+02  0.00000000000E+00 0.  1.
         21    1    1    2  502  501  0.12579529055E+02  0.21159972920E+02  0.21694217868E+02  0.32812011431E+02  0.00000000000E+00 0.  1.
<scales pt_clust_5="13000.00000" pt_clust_6="13000.00000" pt_clust_7="13000.00000" pt_clust_8="13000.00000" pt_clust_9="24.61684"></scales>
<clustering>
<clus scale="   24.617">  1  9  2 -1</clus>
<clus scale="   79.005">  5  6 -1 -1</clus>
<clus scale="   86.868">  2  5  1 -1</clus>
<clus scale="   88.584">  7  8 -1 -1</clus>
<clus scale="   24.617">  1  5  2 -1</clus>
</clustering>
</event>
<event>
 9    1  0.2951046E-005  0.3862076E+03  0.7546771E-02  0.1048877E+00
         -2   -1    0    0    0  501 -0.00000000000E+00  0.00000000000E+00  0.33408435785E+03  0.33408435785E+03  0.00000000000E+00 0.  1.
          1   -1    0    0  502    0  0.00000000000E+00 -0.00000000000E+00 -0.77833207352E+03  0.77833207352E+03  0.00000000000E+00 0. -1.
         23    2    1    2    0    0 -0.37190762305E+03  0.30086168262E+02  0.27884527409E+02  0.38494865982E+03  0.90484618728E+02 0.  0.
        -24    2    1    2    0    0  0.38428390167E+03  0.11252688359E+03 -0.37582268293E+03  0.55493607532E+03  0.79843234375E+02 0.  0.
         11    1    4    4    0    0  0.37567792927E+03  0.10840991196E+03 -0.37932858641E+03  0.54477223866E+03  0.00000000000E+00 0. -1.
        -12    1    4    4    0    0  0.86059724017E+01  0.41169716277E+01  0.35059034815E+01  0.10163836657E+02  0.00000000000E+00 0.  1.
        -13    1    3    3    0    0 -0.24361726117E+03  0.43012362544E+02  0.54435442754E+02  0.25330347549E+03  0.00000000000E+00 0.  1.
         13    1    3    3    0    0 -0.12829036188E+03 -0.12926194282E+02 -0.26550915345E+02  0.13164518432E+03  0.00000000000E+00 0. -1.
         21    1    1    2  502  501 -0.12376278622E+02 -0.14261305185E+03 -0.96309560148E+02  0.17253169623E+03  0.00000000000E+00 0. -1.
<scales pt_clust_5="13000.00000" pt_clust_6="13000.00000" pt_clust_7="13000.00000" pt_clust_8="13000.00000" pt_clust_9="143.14907"></scales>
<clustering>
<clus scale="   79.843">  5  6 -1 -1</clus>
<clus scale="   90.485">  7  8 -1 -1</clus>
<clus scale="  143.149">  2  9  1 -1</clus>
<clus scale="  383.854">  2  5  1 -1</clus>
<clus scale="  143.149">  2  5  1 -1</clus>
</clustering>
</event>
<event>
 9    1  0.2951046E-005  0.8931513E+02  0.7546771E-02  0.1306293E+00
         -2   -1    0    0    0  501 -0.00000000000E+00  0.00000000000E+00  0.62556872827E+02  0.62556872827E+02  0.00000000000E+00 0.  1.
          1   -1    0    0  502    0  0.00000000000E+00 -0.00000000000E+00 -0.37372182900E+03  0.37372182900E+03  0.00000000000E+00 0. -1.
        -24    2    1    2    0    0  0.42987454711E+01  0.31415534466E+02  0.17265716211E+02  0.87408098120E+02  0.79603113270E+02 0.  0.
         23    2    1    2    0    0  0.31398200172E+01 -0.50646463834E+02 -0.26823038800E+03  0.28523700299E+03  0.82690289974E+02 0.  0.
         13    1    3    3    0    0 -0.37155448869E+02  0.79117345253E+01  0.62730710791E+01  0.38502913456E+02  0.00000000000E+00 0. -1.
        -14    1    3    3    0    0  0.41454194340E+02  0.23503799941E+02  0.10992645132E+02  0.48905184664E+02  0.00000000000E+00 0.  1.
        -11    1    4    4    0    0  0.29674413005E+02 -0.55732030892E+02 -0.22941070813E+03  0.23794096549E+03  0.00000000000E+00 0. -1.
         11    1    4    4    0    0 -0.26534592988E+02  0.50855670575E+01 -0.38819679876E+02  0.47296037498E+02  0.00000000000E+00 0.  1.
         21    1    1    2  502  501 -0.74385654883E+01  0.19230929368E+02 -0.60200284382E+02  0.63633600719E+02  0.00000000000E+00 0. -1.
<scales pt_clust_5="13000.00000" pt_clust_6="13000.00000" pt_clust_7="13000.00000" pt_clust_8="13000.00000" pt_clust_9="20.61943"></scales>
<clustering>
<clus scale="   20.619">  2  9  1 -1</clus>
<clus scale="   79.603">  5  6 -1 -1</clus>
<clus scale="   82.690">  7  8 -1 -1</clus>
<clus scale="   86.465">  1  5  2 -1</clus>
<clus scale="   20.619">  2  5  1 -1</clus>
</clustering>
</event>
<event>
 9    1  0.2951046E-005  0.2066112E+03  0.7546771E-02  0.1144605E+00
         -2   -1    0    0    0  501 -0.00000000000E+00  0.00000000000E+00  0.60764309451E+03  0.60764309451E+03  0.00000000000E+00 0.  1.
          1   -1    0    0  502    0  0.00000000000E+00 -0.00000000000E+00 -0.13778950633E+03  0.13778950633E+03  0.00000000000E+00 0. -1.
        -24    2    1    2    0    0 -0.19368468098E+03  0.44311151885E+02  0.39654137080E+03  0.45214671546E+03  0.87831427820E+02 0.  0.
         23    2    1    2    0    0  0.16020753195E+03 -0.23491302815E+02  0.12806015865E+03  0.22582091153E+03  0.91528057157E+02 0.  0.
         11    1    3    3    0    0 -0.30216272819E+02 -0.17022253351E+02  0.12163346491E+03  0.12648114499E+03  0.00000000000E+00 0. -1.
        -12    1    3    3    0    0 -0.16346840817E+03  0.61333405236E+02  0.27490790589E+03  0.32566557047E+03  0.00000000000E+00 0.  1.
        -11    1    4    4    0    0  0.14728406883E+03 -0.39464740179E+02  0.13548274508E+03  0.20397459858E+03  0.00000000000E+00 0. -1.
         11    1    4    4    0    0  0.12923463125E+02  0.15973437364E+02 -0.74225864314E+01  0.21846312954E+02  0.00000000000E+00 0.  1.
         21    1    1    2  502  501  0.33477149030E+02 -0.20819849070E+02 -0.54747941276E+02  0.67464973849E+02  0.00000000000E+00 0. -1.
<scales pt_clust_5="13000.00000" pt_clust_6="13000.00000" pt_clust_7="13000.00000" pt_clust_8="13000.00000" pt_clust_9="39.42316"></scales>
<clustering>
<clus scale="   39.423">  2  9  1 -1</clus>
<clus scale="   87.831">  5  6 -1 -1</clus>
<clus scale="   91.528">  7  8 -1 -1</clus>
<clus scale="  205.000">  1  5  2 -1</clus>
<clus scale="   39.423">  2  5  1 -1</clus>
</clustering>
</event>
<event>
 9    1  0.2951046E-005  0.1723379E+03  0.7546771E-02  0.1176766E+00
         -2   -1    0    0    0  501 -0.00000000000E+00  0.00000000000E+00  0.79979513931E+02  0.79979513931E+02  0.00000000000E+00 0.  1.
          1   -1    0    0  502    0  0.00000000000E+00 -0.00000000000E+00 -0.72673278299E+03  0.72673278299E+03  0.00000000000E+00 0. -1.
         23    2    1    2    0    0  0.14803775589E+03  0.75894026036E+01 -0.46039861978E+02  0.18089627075E+03  0.92903259779E+02 0.  0.
        -24    2    1    2    0    0 -0.12947352468E+03 -0.16424396867E+02 -0.54008046647E+03  0.56179227050E+03  0.83008978553E+02 0.  0.
         11    1    4    4    0    0 -0.10060463728E+03 -0.47824396486E+02 -0.41216932164E+03  0.42695669059E+03  0.00000000000E+00 0. -1.
        -12    1    4    4    0    0 -0.28868887405E+02  0.31399999619E+02 -0.12791114484E+03  0.13483557991E+03  0.00000000000E+00 0.  1.
        -13    1    3    3    0    0  0.87893979517E+02 -0.27607809737E+02 -0.59841340826E+02  0.10985685625E+03  0.00000000000E+00 0.  1.
         13    1    3    3    0    0  0.60143776375E+02  0.35197212340E+02  0.13801478848E+02  0.71039414494E+02  0.00000000000E+00 0. -1.
         21    1    1    2  502  501 -0.18564231207E+02  0.88349942631E+01 -0.60632940605E+02  0.64023755673E+02  0.00000000000E+00 0.  1.
<scales pt_clust_5="13000.00000" pt_clust_6="13000.00000" pt_clust_7="13000.00000" pt_clust_8="13000.00000" pt_clust_9="20.55937"></scales>
<clustering>
<clus scale="   20.559">  2  9  1 -1</clus>
<clus scale="   83.009">  5  6 -1 -1</clus>
<clus scale="   92.903">  7  8 -1 -1</clus>
<clus scale="  167.212">  2  5  1 -1</clus>
<clus scale="   20.559">  2  5  1 -1</clus>
</clustering>
</event>
<event>
 9    1  0.2951046E-005  0.1796756E+03  0.7546771E-02  0.1168237E+00
         -4   -1    0    0    0  501 -0.00000000000E+00  0.00000000000E+00  0.61966447603E+03  0.61966447603E+03  0.00000000000E+00 0.  1.
          3   -1    0    0  502    0  0.00000000000E+00 -0.00000000000E+00 -0.15451408310E+03  0.15451408310E+03  0.00000000000E+00 0. -1.
        -24    2    1    2    0    0  0.11847532905E+03  0.11098432802E+03  0.45948496634E+03  0.49394365489E+03  0.80622424003E+02 0.  0.
         23    2    1    2    0    0 -0.12608659873E+03 -0.91755893907E+02  0.87593421722E+02  0.19573720906E+03  0.79520268080E+02 0.  0.
         13    1    3    3    0    0  0.58538349940E+02  0.90618038880E+02  0.20441636502E+03  0.23113722693E+03  0.00000000000E+00 0. -1.
        -14    1    3    3    0    0  0.59936979114E+02  0.20366289143E+02  0.25506860131E+03  0.26280642795E+03  0.00000000000E+00 0.  1.
        -13    1    4    4    0    0 -0.11187386454E+03 -0.73065101195E+02  0.34981106842E+02  0.13812294674E+03  0.00000000000E+00 0. -1.
         13    1    4    4    0    0 -0.14212734181E+02 -0.18690792712E+02  0.52612314880E+02  0.57614262315E+02  0.00000000000E+00 0.  1.
         21    1    1    2  502  501  0.76112696709E+01 -0.19228434116E+02 -0.81927995133E+02  0.84497695182E+02  0.00000000000E+00 0. -1.
<scales pt_clust_5="13000.00000" pt_clust_6="13000.00000" pt_clust_7="13000.00000" pt_clust_8="13000.00000" pt_clust_9="20.68004"></scales>
<clustering>
<clus scale="   20.680">  2  9  1 -1</clus>
<clus scale="   79.520">  7  8 -1 -1</clus>
<clus scale="   80.622">  5  6 -1 -1</clus>
<clus scale="  179.184">  2  7  1 -1</clus>
<clus scale="   20.680">  2  5  1 -1</clus>
</clustering>
</event>
<event>
 9    1  0.2951046E-005  0.2492372E+03  0.7546771E-02  0.1114279E+00
         -2   -1    0    0    0  501 -0.00000000000E+00  0.00000000000E+00  0.23263178238E+03  0.23263178238E+03  0.00000000000E+00 0.  1.
          1   -1    0    0  502    0  0.00000000000E+00 -0.00000000000E+00 -0.33639320420E+03  0.33639320420E+03  0.00000000000E+00 0. -1.
         23    2    1    2    0    0  0.21986209493E+03  0.87587758339E+02  0.44193549024E+02  0.25710569460E+03  0.90218136881E+02 0.  0.
        -24    2    1    2    0    0 -0.19920978083E+03 -0.10606454173E+03 -0.10749515715E+03  0.26287944976E+03  0.81339858016E+02 0.  0.
         11    1    4    4    0    0 -0.10002493534E+03 -0.24704379742E+02 -0.82937956351E+02  0.13226488072E+03  0.00000000000E+00 0. -1.
        -12    1    4    4    0    0 -0.99184845489E+02 -0.81360161984E+02 -0.24557200803E+02  0.13061456903E+03  0.00000000000E+00 0.  1.
        -13    1    3    3    0    0  0.62328941588E+02  0.11855425192E+02  0.52157035034E+02  0.82132845863E+02  0.00000000000E+00 0.  1.
         13    1    3    3    0    0  0.15753315334E+03  0.75732333147E+02 -0.79634860091E+01  0.17497284874E+03  0.00000000000E+00 0. -1.
         21    1    1    2  502  501 -0.20652314101E+02  0.18476783387E+02 -0.40459813691E+02  0.49039842230E+02  0.00000000000E+00 0.  1.
<scales pt_clust_5="13000.00000" pt_clust_6="13000.00000" pt_clust_7="13000.00000" pt_clust_8="13000.00000" pt_clust_9="27.71118"></scales>
<clustering>
<clus scale="   27.711">  2  9  1 -1</clus>
<clus scale="   81.340">  5  6 -1 -1</clus>
<clus scale="   90.218">  7  8 -1 -1</clus>
<clus scale="  246.163">  2  5  1 -1</clus>
<clus scale="   27.711">  2  5  1 -1</clus>
</clustering>
</event>
<event>
 9    1  0.2951046E-005  0.1409835E+03  0.7546771E-02  0.1214752E+00
          1   -1    0    0  502    0  0.00000000000E+00  0.00000000000E+00  0.51653026401E+03  0.51653026401E+03  0.00000000000E+00 0. -1.
         -2   -1    0    0    0  501 -0.00000000000E+00 -0.00000000000E+00 -0.82356595528E+02  0.82356595528E+02  0.00000000000E+00 0.  1.
         23    2    1    2    0    0 -0.50142720905E+02 -0.10483344063E+03  0.23661002039E+02  0.14924603638E+03  0.90610118783E+02 0.  0.
        -24    2    1    2    0    0 -0.10439125989E+02  0.89461579418E+02  0.29952303157E+03  0.32226282921E+03  0.77633337620E+02 0.  0.
         11    1    4    4    0    0 -0.87993441887E+01  0.10374656396E+03  0.25361530731E+03  0.27415598132E+03  0.00000000000E+00 0. -1.
        -12    1    4    4    0    0 -0.16397818007E+01 -0.14284984543E+02  0.45907724257E+02  0.48106847893E+02  0.00000000000E+00 0.  1.
        -13    1    3    3    0    0 -0.71712368228E+02 -0.81391913101E+02  0.37136447004E+02  0.11465785176E+03  0.00000000000E+00 0.  1.
         13    1    3    3    0    0  0.21569647323E+02 -0.23441527525E+02 -0.13475444965E+02  0.34588184621E+02  0.00000000000E+00 0. -1.
         21    1    1    2  502  501  0.60581846895E+02  0.15371861208E+02  0.11098963488E+03  0.12737799394E+03  0.00000000000E+00 0. -1.
<scales pt_clust_5="13000.00000" pt_clust_6="13000.00000" pt_clust_7="13000.00000" pt_clust_8="13000.00000" pt_clust_9="62.50163"></scales>
<clustering>
<clus scale="   62.502">  1  9  2 -1</clus>
<clus scale="   77.633">  5  6 -1 -1</clus>
<clus scale="   90.610">  7  8 -1 -1</clus>
<clus scale="  133.015">  1  5  2 -1</clus>
<clus scale="   62.502">  1  5  2 -1</clus>
</clustering>
</event>
<event>
 9    1  0.2951046E-005  0.1487172E+03  0.7546771E-02  0.1204244E+00
          1   -1    0    0  502    0  0.00000000000E+00  0.00000000000E+00  0.11942312011E+03  0.11942312011E+03  0.00000000000E+00 0. -1.
         -2   -1    0    0    0  501 -0.00000000000E+00 -0.00000000000E+00 -0.53826162925E+03  0.53826162925E+03  0.00000000000E+00 0.  1.
        -24    2    1    2    0    0  0.93933727459E+02 -0.76691323759E+02 -0.46424703314E+03  0.48640366982E+03  0.79737807478E+02 0.  0.
         23    2    1    2    0    0 -0.68744867300E+02  0.49705601364E+02  0.49466306436E+02  0.13414385444E+03  0.91384652021E+02 0.  0.
         13    1    3    3    0    0  0.41603974724E+01 -0.25205033022E+02 -0.27383096620E+02  0.37449119847E+02  0.00000000000E+00 0. -1.
        -14    1    3    3    0    0  0.89773329986E+02 -0.51486290737E+02 -0.43686393652E+03  0.44895454997E+03  0.00000000000E+00 0.  1.
        -13    1    4    4    0    0 -0.71356505641E+02  0.19123643758E+01  0.99446640532E+01  0.72071522656E+02  0.00000000000E+00 0.  1.
         13    1    4    4    0    0  0.26116383414E+01  0.47793236988E+02  0.39521642383E+02  0.62072331786E+02  0.00000000000E+00 0. -1.
         21    1    1    2  502  501 -0.25188860159E+02  0.26985722395E+02 -0.40577824357E+01  0.37137225093E+02  0.00000000000E+00 0. -1.
<scales pt_clust_5="13000.00000" pt_clust_6="13000.00000" pt_clust_7="13000.00000" pt_clust_8="13000.00000" pt_clust_9="36.91487"></scales>
<clustering>
<clus scale="   36.915">  1  9  2 -1</clus>
<clus scale="   79.738">  5  6 -1 -1</clus>
<clus scale="   91.385">  7  8 -1 -1</clus>
<clus scale="  141.858">  2  5  1 -1</clus>
<clus scale="   36.915">  1  5  2 -1</clus>
</clustering>
</event>
<event>
 9    1  0.2951046E-005  0.1336993E+03  0.7546771E-02  0.1224295E+00
          1   -1    0    0  502    0  0.00000000000E+00  0.00000000000E+00  0.46074529610E+03  0.46074529610E+03  0.00000000000E+00 0. -1.
         -2   -1    0    0    0  501 -0.00000000000E+00 -0.00000000000E+00 -0.67730432373E+02  0.67730432373E+02  0.00000000000E+00 0.  1.
         23    2    1    2    0    0 -0.33498056478E+02  0.96648077654E+02  0.15546434867E+03  0.20720214933E+03  0.91107608242E+02 0.  0.
        -24    2    1    2    0    0  0.72095339407E+02 -0.68548001312E+02  0.24111716066E+03  0.27339784937E+03  0.81928825381E+02 0.  0.
         13    1    4    4    0    0  0.59830021299E+02 -0.87564096757E+01  0.16562525843E+03  0.17631798658E+03  0.00000000000E+00 0. -1.
        -14    1    4    4    0    0  0.12265318108E+02 -0.59791591636E+02  0.75491902226E+02  0.97079862796E+02  0.00000000000E+00 0.  1.
        -11    1    3    3    0    0 -0.27313737628E+02 -0.91546851926E+00  0.50214750765E+01  0.27786571537E+02  0.00000000000E+00 0.  1.
         11    1    3    3    0    0 -0.61843188494E+01  0.97563546174E+02  0.15044287359E+03  0.17941557779E+03  0.00000000000E+00 0. -1.
         21    1    1    2  502  501 -0.38597282929E+02 -0.28100076342E+02 -0.35666456007E+01  0.47875729768E+02  0.00000000000E+00 0.  1.
<scales pt_clust_5="13000.00000" pt_clust_6="13000.00000" pt_clust_7="13000.00000" pt_clust_8="13000.00000" pt_clust_9="47.74269"></scales>
<clustering>
<clus scale="   47.743">  2  9  1 -1</clus>
<clus scale="   81.929">  5  6 -1 -1</clus>
<clus scale="   91.108">  7  8 -1 -1</clus>
<clus scale="  127.621">  1  5  2 -1</clus>
<clus scale="  127.621">  1  5  2 -1</clus>
</clustering>
</event>
<event>
 9    1  0.2951046E-005  0.9761379E+02  0.7546771E-02  0.1291488E+00
          1   -1    0    0  502    0  0.00000000000E+00  0.00000000000E+00  0.20996444928E+03  0.20996444928E+03  0.00000000000E+00 0. -1.
         -2   -1    0    0    0  501 -0.00000000000E+00 -0.00000000000E+00 -0.12164075915E+03  0.12164075915E+03  0.00000000000E+00 0.  1.
        -24    2    1    2    0    0  0.36664334592E+02 -0.47578976128E+01 -0.82672064991E+02  0.12078925817E+03  0.79927864598E+02 0.  0.
         23    2    1    2    0    0 -0.13935822826E+02 -0.76624858282E+01  0.15431357911E+03  0.18000773434E+03  0.91308175294E+02 0.  0.
         11    1    3    3    0    0  0.74590881896E+00 -0.34864335774E+02 -0.13844381760E+02  0.37519930640E+02  0.00000000000E+00 0. -1.
        -12    1    3    3    0    0  0.35918425773E+02  0.30106438161E+02 -0.68827683231E+02  0.83269327532E+02  0.00000000000E+00 0.  1.
        -13    1    4    4    0    0  0.35084564664E+02 -0.93887171263E+01  0.10210350516E+03  0.10837066233E+03  0.00000000000E+00 0.  1.
         13    1    4    4    0    0 -0.49020387490E+02  0.17262312981E+01  0.52210073951E+02  0.71637072009E+02  0.00000000000E+00 0. -1.
         21    1    1    2  502  501 -0.22728511767E+02  0.12420383441E+02  0.16682176006E+02  0.30808215921E+02  0.00000000000E+00 0. -1.
<scales pt_clust_5="13000.00000" pt_clust_6="13000.00000" pt_clust_7="13000.00000" pt_clust_8="13000.00000" pt_clust_9="25.90079"></scales>
<clustering>
<clus scale="   25.901">  1  9  2 -1</clus>
<clus scale="   79.928">  5  6 -1 -1</clus>
<clus scale="   87.062">  2  5  1 -1</clus>
<clus scale="   91.308">  7  8 -1 -1</clus>
<clus scale="   25.901">  1  5  2 -1</clus>
</clustering>
</event>
<event>
 9    1  0.2951046E-005  0.1046327E+03  0.7546771E-02  0.1273775E+00
         -2   -1    0    0    0  501 -0.00000000000E+00  0.00000000000E+00  0.14771199899E+03  0.14771199899E+03  0.00000000000E+00 0.  1.
          1   -1    0    0  502    0  0.00000000000E+00 -0.00000000000E+00 -0.11168282294E+03  0.11168282294E+03  0.00000000000E+00 0. -1.
        -24    2    1    2    0    0 -0.47030317983E+02 -0.29072966094E+02  0.70838300851E+02  0.12242771665E+03  0.83146814543E+02 0.  0.
         23    2    1    2    0    0  0.53822441293E+02  0.23887881831E+01 -0.29970411238E+02  0.10901014839E+03  0.89902310348E+02 0.  0.
         11    1    3    3    0    0 -0.69305480210E+02 -0.93025346542E+01  0.52625020729E+02  0.87516738655E+02  0.00000000000E+00 0. -1.
        -12    1    3    3    0    0  0.22275162227E+02 -0.19770431439E+02  0.18213280123E+02  0.34910977992E+02  0.00000000000E+00 0.  1.
        -11    1    4    4    0    0  0.42429044755E+02 -0.37828340133E+02 -0.35237666750E+02  0.66879745170E+02  0.00000000000E+00 0.  1.
         11    1    4    4    0    0  0.11393396538E+02  0.40217128316E+02  0.52672555111E+01  0.42130403217E+02  0.00000000000E+00 0. -1.
         21    1    1    2  502  501 -0.67921233101E+01  0.26684177910E+02 -0.48387135566E+01  0.27956956893E+02  0.00000000000E+00 0. -1.
<scales pt_clust_5="13000.00000" pt_clust_6="13000.00000" pt_clust_7="13000.00000" pt_clust_8="13000.00000" pt_clust_9="27.53504"></scales>
<clustering>
<clus scale="   27.535">  2  9  1 -1</clus>
<clus scale="   83.147">  5  6 -1 -1</clus>
<clus scale="   89.902">  7  8 -1 -1</clus>
<clus scale="   98.889">  1  5  2 -1</clus>
<clus scale="   27.535">  2  5  1 -1</clus>
</clustering>
</event>
<event>
 9    1  0.2951046E-005  0.1455470E+03  0.7546771E-02  0.1209055E+00
         -2   -1    0    0    0  501 -0.00000000000E+00  0.00000000000E+00  0.56984112951E+02  0.56984112951E+02  0.00000000000E+00 0.  1.
          1   -1    0    0  502    0  0.00000000000E+00 -0.00000000000E+00 -0.53376169257E+03  0.53376169257E+03  0.00000000000E+00 0. -1.
         23    2    1    2    0    0  0.51207085065E+02 -0.92065932211E+02 -0.80954124651E+02  0.16082348955E+03  0.90621868546E+02 0.  0.
        -24    2    1    2    0    0 -0.25039788911E+02  0.91722230483E+02 -0.31625589187E+03  0.34616168909E+03  0.10377941633E+03 0.  0.
         13    1    4    4    0    0 -0.40293520913E+02  0.10541894456E+03 -0.29820640872E+03  0.31884758726E+03  0.00000000000E+00 0. -1.
        -14    1    4    4    0    0  0.15253732002E+02 -0.13696714079E+02 -0.18049483155E+02  0.27314101829E+02  0.00000000000E+00 0.  1.
        -13    1    3    3    0    0 -0.43588787786E+00 -0.72306621215E+02 -0.76632009927E+02  0.10536082012E+03  0.00000000000E+00 0. -1.
         13    1    3    3    0    0  0.51642972943E+02 -0.19759310996E+02 -0.43221147242E+01  0.55462669437E+02  0.00000000000E+00 0.  1.
         21    1    1    2  502  501 -0.26167296154E+02  0.34370172815E+00 -0.79567563092E+02  0.83760626880E+02  0.00000000000E+00 0.  1.
<scales pt_clust_5="13000.00000" pt_clust_6="13000.00000" pt_clust_7="13000.00000" pt_clust_8="13000.00000" pt_clust_9="26.16955"></scales>
<clustering>
<clus scale="   26.170">  2  9  1 -1</clus>
<clus scale="   90.622">  7  8 -1 -1</clus>
<clus scale="  103.779">  5  6 -1 -1</clus>
<clus scale="  136.477">  1  7  2 -1</clus>
<clus scale="   26.170">  2  5  1 -1</clus>
</clustering>
</event>
<event>
 9    1  0.2951046E-005  0.2021724E+03  0.7546771E-02  0.1148906E+00
         -2   -1    0    0    0  501 -0.00000000000E+00  0.00000000000E+00  0.55973354296E+03  0.55973354296E+03  0.00000000000E+00 0.  1.
          1   -1    0    0  502    0  0.00000000000E+00 -0.00000000000E+00 -0.97819154220E+02  0.97819154220E+02  0.00000000000E+00 0. -1.
         23    2    1    2    0    0  0.17808638396E+03 -0.45891072002E+02  0.36507293123E+03  0.41897837927E+03  0.91890622679E+02 0.  0.
        -24    2    1    2    0    0 -0.14683743369E+03  0.44019684483E+02  0.68157169613E+02  0.19611507443E+03  0.10157144331E+03 0.  0.
         11    1    4    4    0    0 -0.61896720870E+02  0.55475591484E+02 -0.52249265335E+01  0.83282922392E+02  0.00000000000E+00 0. -1.
        -12    1    4    4    0    0 -0.84940712820E+02 -0.11455907000E+02  0.73382096147E+02  0.11283215204E+03  0.00000000000E+00 0.  1.
        -13    1    3    3    0    0  0.10010629697E+03 -0.11910251082E+02  0.28442240104E+03  0.30176021439E+03  0.00000000000E+00 0.  1.
         13    1    3    3    0    0  0.77980086999E+02 -0.33980820921E+02  0.80650530186E+02  0.11721816488E+03  0.00000000000E+00 0. -1.
         21    1    1    2  502  501 -0.31248950275E+02  0.18713875192E+01  0.28684287904E+02  0.42459243482E+02  0.00000000000E+00 0.  1.
<scales pt_clust_5="13000.00000" pt_clust_6="13000.00000" pt_clust_7="13000.00000" pt_clust_8="13000.00000" pt_clust_9="31.30494"></scales>
<clustering>
<clus scale="   31.305">  2  9  1 -1</clus>
<clus scale="   91.891">  7  8 -1 -1</clus>
<clus scale="  101.571">  5  6 -1 -1</clus>
<clus scale="  197.486">  1  7  2 -1</clus>
<clus scale="   31.305">  2  5  1 -1</clus>
</clustering>
</event>
<event>
 9    1  0.2951046E-005  0.9230906E+02  0.7546771E-02  0.1304664E+00
         -2   -1    0    0    0  501 -0.00000000000E+00  0.00000000000E+00  0.72798109694E+02  0.72798109694E+02  0.00000000000E+00 0.  1.
          1   -1    0    0  502    0  0.00000000000E+00 -0.00000000000E+00 -0.31887884437E+03  0.31887884437E+03  0.00000000000E+00 0. -1.
        -24    2    1    2    0    0 -0.28006447482E+01 -0.85017023839E+01  0.29982703808E+02  0.86041778717E+02  0.80150499704E+02 0.  0.
         23    2    1    2    0    0 -0.28410854579E+02  0.14241803296E+02 -0.18137509426E+03  0.20577032177E+03  0.91839506113E+02 0.  0.
         13    1    3    3    0    0  0.31304937791E+02  0.19177738716E+02  0.12902325902E+02  0.38913427066E+02  0.00000000000E+00 0. -1.
        -14    1    3    3    0    0 -0.34105582539E+02 -0.27679441100E+02  0.17080377906E+02  0.47128351651E+02  0.00000000000E+00 0.  1.
        -11    1    4    4    0    0  0.18687880760E+02  0.32838057250E+02 -0.37455132992E+02  0.53202085285E+02  0.00000000000E+00 0. -1.
         11    1    4    4    0    0 -0.47098735338E+02 -0.18596253954E+02 -0.14391996127E+03  0.15256823649E+03  0.00000000000E+00 0.  1.
         21    1    1    2  502  501  0.31211499327E+02 -0.57401009123E+01 -0.94688344219E+02  0.99864853575E+02  0.00000000000E+00 0.  1.
<scales pt_clust_5="13000.00000" pt_clust_6="13000.00000" pt_clust_7="13000.00000" pt_clust_8="13000.00000" pt_clust_9="31.73494"></scales>
<clustering>
<clus scale="   31.735">  2  9  1 -1</clus>
<clus scale="   80.150">  5  6 -1 -1</clus>
<clus scale="   80.688">  1  5  2 -1</clus>
<clus scale="   91.840">  7  8 -1 -1</clus>
<clus scale="   31.735">  2  5  1 -1</clus>
</clustering>
</event>
<event>
 9    1  0.2951046E-005  0.1498527E+03  0.7546771E-02  0.1202305E+00
         -2   -1    0    0    0  501 -0.00000000000E+00  0.00000000000E+00  0.42281160722E+02  0.42281160722E+02  0.00000000000E+00 0.  1.
          1   -1    0    0  502    0  0.00000000000E+00 -0.00000000000E+00 -0.84348763145E+03  0.84348763145E+03  0.00000000000E+00 0. -1.
         23    2    1    2    0    0 -0.47783362373E+02  0.98342700929E+02 -0.17249673738E+03  0.22345231844E+03  0.90671261515E+02 0.  0.
        -24    2    1    2    0    0  0.82387477191E+02 -0.11886855384E+03 -0.46636833481E+03  0.49506371567E+03  0.81677594031E+02 0.  0.
         11    1    4    4    0    0  0.79820330402E+02 -0.45016974708E+02 -0.23777043018E+03  0.25481874073E+03  0.00000000000E+00 0. -1.
        -12    1    4    4    0    0  0.25671467891E+01 -0.73851579136E+02 -0.22859790463E+03  0.24024497494E+03  0.00000000000E+00 0.  1.
        -13    1    3    3    0    0  0.19732386012E+02  0.62577144500E+01 -0.58708645399E+02  0.62251354142E+02  0.00000000000E+00 0. -1.
         13    1    3    3    0    0 -0.67515748385E+02  0.92084986479E+02 -0.11378809198E+03  0.16120096430E+03  0.00000000000E+00 0.  1.
         21    1    1    2  502  501 -0.34604114818E+02  0.20525852915E+02 -0.16234139853E+03  0.16725275805E+03  0.00000000000E+00 0.  1.
<scales pt_clust_5="13000.00000" pt_clust_6="13000.00000" pt_clust_7="13000.00000" pt_clust_8="13000.00000" pt_clust_9="40.23376"></scales>
<clustering>
<clus scale="   40.234">  2  9  1 -1</clus>
<clus scale="   81.678">  5  6 -1 -1</clus>
<clus scale="   90.671">  7  8 -1 -1</clus>
<clus scale="  144.588">  2  5  1 -1</clus>
<clus scale="   40.234">  2  5  1 -1</clus>
</clustering>
</event>
<event>
 9    1  0.2951046E-005  0.1454177E+03  0.7546771E-02  0.1210133E+00
          1   -1    0    0  502    0  0.00000000000E+00  0.00000000000E+00  0.17679463661E+03  0.17679463661E+03  0.00000000000E+00 0. -1.
         -2   -1    0    0    0  501 -0.00000000000E+00 -0.00000000000E+00 -0.25642292945E+03  0.25642292945E+03  0.00000000000E+00 0.  1.
         23    2    1    2    0    0  0.12105722064E+03  0.14739610254E+02 -0.18031781673E+03  0.23908682264E+03  0.98873085070E+02 0.  0.
        -24    2    1    2    0    0 -0.56264553177E+02 -0.21634291997E+02  0.64326513201E+02  0.11951241497E+03  0.80694327546E+02 0.  0.
         11    1    4    4    0    0  0.37235641494E+01  0.24496522539E+02  0.12170567743E+02  0.27605565846E+02  0.00000000000E+00 0. -1.
        -12    1    4    4    0    0 -0.59988117327E+02 -0.46130814537E+02  0.52155945458E+02  0.91906849129E+02  0.00000000000E+00 0.  1.
        -13    1    3    3    0    0  0.27684834491E+02 -0.38257308609E+02 -0.36882020382E+02  0.59919572348E+02  0.00000000000E+00 0.  1.
         13    1    3    3    0    0  0.93372386149E+02  0.52996918863E+02 -0.14343579635E+03  0.17916725030E+03  0.00000000000E+00 0. -1.
         21    1    1    2  502  501 -0.64792667463E+02  0.68946817430E+01  0.36363010695E+02  0.74618328447E+02  0.00000000000E+00 0. -1.
<scales pt_clust_5="13000.00000" pt_clust_6="13000.00000" pt_clust_7="13000.00000" pt_clust_8="13000.00000" pt_clust_9="65.15847"></scales>
<clustering>
<clus scale="   65.158">  1  9  2 -1</clus>
<clus scale="   80.694">  5  6 -1 -1</clus>
<clus scale="   98.873">  7  8 -1 -1</clus>
<clus scale="  133.724">  1  5  2 -1</clus>
<clus scale="   65.158">  1  5  2 -1</clus>
</clustering>
</event>
<event>
 9    1  0.2951046E-005  0.1128977E+03  0.7546771E-02  0.1261796E+00
         -2   -1    0    0    0  501 -0.00000000000E+00  0.00000000000E+00  0.16138300111E+03  0.16138300111E+03  0.00000000000E+00 0.  1.
          1   -1    0    0  502    0  0.00000000000E+00 -0.00000000000E+00 -0.19567555231E+03  0.19567555231E+03  0.00000000000E+00 0. -1.
         23    2    1    2    0    0  0.40636095186E+01 -0.83741569399E+02  0.96492132876E+02  0.15737998995E+03  0.91807222819E+02 0.  0.
        -24    2    1    2    0    0  0.17215354973E+02  0.27033244057E+02 -0.39683427941E+02  0.90279900949E+02  0.74488397291E+02 0.  0.
         13    1    4    4    0    0 -0.13367078678E+02  0.31198764711E+02 -0.47556700195E+02  0.58426718591E+02  0.00000000000E+00 0. -1.
        -14    1    4    4    0    0  0.30582433651E+02 -0.41655206538E+01  0.78732722538E+01  0.31853182358E+02  0.00000000000E+00 0.  1.
        -13    1    3    3    0    0  0.17079647114E+02 -0.13702907379E+02  0.81751197540E+02  0.84632985977E+02  0.00000000000E+00 0.  1.
         13    1    3    3    0    0 -0.13016037595E+02 -0.70038662021E+02  0.14740935335E+02  0.72747003972E+02  0.00000000000E+00 0. -1.
         21    1    1    2  502  501 -0.21278964492E+02  0.56708325342E+02 -0.91101256136E+02  0.10939866253E+03  0.00000000000E+00 0. -1.
<scales pt_clust_5="13000.00000" pt_clust_6="13000.00000" pt_clust_7="13000.00000" pt_clust_8="13000.00000" pt_clust_9="60.56920"></scales>
<clustering>
<clus scale="   60.569">  2  9  1 -1</clus>
<clus scale="   74.488">  5  6 -1 -1</clus>
<clus scale="   91.807">  7  8 -1 -1</clus>
<clus scale="   99.327">  2  5  1 -1</clus>
<clus scale="   60.569">  2  5  1 -1</clus>
</clustering>
</event>
<event>
 9    1  0.2951046E-005  0.9034209E+02  0.7546771E-02  0.1317961E+00
         -2   -1    0    0    0  501 -0.00000000000E+00  0.00000000000E+00  0.24708158706E+03  0.24708158706E+03  0.00000000000E+00 0.  1.
          1   -1    0    0  502    0  0.00000000000E+00 -0.00000000000E+00 -0.16674872926E+03  0.16674872926E+03  0.00000000000E+00 0. -1.
        -24    2    1    2    0    0  0.52701383145E+01  0.47972940941E+01  0.20913847529E+03  0.21987241765E+03  0.67484737594E+02 0.  0.
         23    2    1    2    0    0  0.20974688304E+02  0.23723473521E+02 -0.54253638727E+02  0.10993276764E+03  0.90216491511E+02 0.  0.
         13    1    3    3    0    0  0.36090750316E+02 -0.24966739408E+01  0.11348884097E+03  0.11911545938E+03  0.00000000000E+00 0. -1.
        -14    1    3    3    0    0 -0.30820612001E+02  0.72939680349E+01  0.95649634322E+02  0.10075695827E+03  0.00000000000E+00 0.  1.
        -13    1    4    4    0    0 -0.26002668992E+02  0.29922220553E+02 -0.47818083229E+02  0.62113180254E+02  0.00000000000E+00 0. -1.
         13    1    4    4    0    0  0.46977357296E+02 -0.61987470320E+01 -0.64355554983E+01  0.47819587387E+02  0.00000000000E+00 0.  1.
         21    1    1    2  502  501 -0.26244826618E+02 -0.28520767615E+02 -0.74551978758E+02  0.84025131041E+02  0.00000000000E+00 0. -1.
<scales pt_clust_5="13000.00000" pt_clust_6="13000.00000" pt_clust_7="13000.00000" pt_clust_8="13000.00000" pt_clust_9="38.75855"></scales>
<clustering>
<clus scale="   38.759">  2  9  1 -1</clus>
<clus scale="   67.485">  5  6 -1 -1</clus>
<clus scale="   67.653">  1  5  2 -1</clus>
<clus scale="   90.216">  7  8 -1 -1</clus>
<clus scale="   38.759">  2  5  1 -1</clus>
</clustering>
</event>
<event>
 9    1  0.2951046E-005  0.1342846E+03  0.7546771E-02  0.1223810E+00
          1   -1    0    0  502    0  0.00000000000E+00  0.00000000000E+00  0.34354214511E+03  0.34354214511E+03  0.00000000000E+00 0. -1.
         -2   -1    0    0    0  501 -0.00000000000E+00 -0.00000000000E+00 -0.12071728949E+03  0.12071728949E+03  0.00000000000E+00 0.  1.
        -24    2    1    2    0    0 -0.88756711722E+02 -0.88673958340E+02 -0.32368857781E+02  0.15339288831E+03  0.82102438852E+02 0.  0.
         23    2    1    2    0    0  0.64531846230E+02  0.65830347517E+02  0.24202882653E+03  0.27506167358E+03  0.92644360705E+02 0.  0.
         13    1    3    3    0    0 -0.60881636924E+02 -0.15546568323E+02  0.11195070808E+02  0.63824753125E+02  0.00000000000E+00 0. -1.
        -14    1    3    3    0    0 -0.27875074799E+02 -0.73127390017E+02 -0.43563928588E+02  0.89568135181E+02  0.00000000000E+00 0.  1.
        -11    1    4    4    0    0  0.16647333621E+02  0.39813960667E+02  0.22104334411E+02  0.48485944153E+02  0.00000000000E+00 0.  1.
         11    1    4    4    0    0  0.47884512609E+02  0.26016386850E+02  0.21992449212E+03  0.22657572943E+03  0.00000000000E+00 0. -1.
         21    1    1    2  502  501  0.24224865492E+02  0.22843610823E+02  0.13164886879E+02  0.35804872714E+02  0.00000000000E+00 0.  1.
<scales pt_clust_5="13000.00000" pt_clust_6="13000.00000" pt_clust_7="13000.00000" pt_clust_8="13000.00000" pt_clust_9="33.29677"></scales>
<clustering>
<clus scale="   33.297">  2  9  1 -1</clus>
<clus scale="   82.102">  5  6 -1 -1</clus>
<clus scale="   92.644">  7  8 -1 -1</clus>
<clus scale="  127.241">  2  5  1 -1</clus>
<clus scale="  134.285">  1  5  2 -1</clus>
</clustering>
</event>
<event>
 9    1  0.2951046E-005  0.9430269E+02  0.7546771E-02  0.1300496E+00
         -2   -1    0    0    0  501 -0.00000000000E+00  0.00000000000E+00  0.14650721454E+03  0.14650721454E+03  0.00000000000E+00 0.  1.
          1   -1    0    0  502    0  0.00000000000E+00 -0.00000000000E+00 -0.18010332522E+03  0.18010332522E+03  0.00000000000E+00 0. -1.
        -24    2    1    2    0    0 -0.15596143669E+02  0.50396032631E+02  0.77118048592E+02  0.12191794952E+03  0.78318536714E+02 0.  0.
         23    2    1    2    0    0 -0.25180847750E+02 -0.67950723428E+01 -0.10948694447E+03  0.14498234972E+03  0.91390604663E+02 0.  0.
         13    1    3    3    0    0 -0.34649483643E+02  0.49851081984E+02  0.23650142984E+02  0.65154020251E+02  0.00000000000E+00 0. -1.
        -14    1    3    3    0    0  0.19053339974E+02  0.54495064616E+00  0.53467905608E+02  0.56763929264E+02  0.00000000000E+00 0.  1.
        -13    1    4    4    0    0  0.22838255665E+02 -0.23137878922E+02 -0.79897780359E+02  0.86258928055E+02  0.00000000000E+00 0.  1.
         13    1    4    4    0    0 -0.48019103415E+02  0.16342806579E+02 -0.29589164107E+02  0.58723421666E+02  0.00000000000E+00 0. -1.
         21    1    1    2  502  501  0.40776991419E+02 -0.43600960288E+02 -0.12272148152E+01  0.59710240524E+02  0.00000000000E+00 0. -1.
<scales pt_clust_5="13000.00000" pt_clust_6="13000.00000" pt_clust_7="13000.00000" pt_clust_8="13000.00000" pt_clust_9="59.69763"></scales>
<clustering>
<clus scale="   59.698">  1  9  2 -1</clus>
<clus scale="   78.319">  5  6 -1 -1</clus>
<clus scale="   81.698">  1  5  2 -1</clus>
<clus scale="   91.391">  7  8 -1 -1</clus>
<clus scale="   94.303">  2  5  1 -1</clus>
</clustering>
</event>
<event>
 9    1  0.2951046E-005  0.1100465E+03  0.7546771E-02  0.1266013E+00
          1   -1    0    0  502    0  0.00000000000E+00  0.00000000000E+00  0.72854942762E+02  0.72854942762E+02  0.00000000000E+00 0. -1.
         -2   -1    0    0    0  501 -0.00000000000E+00 -0.00000000000E+00 -0.32223002221E+03  0.32223002221E+03  0.00000000000E+00 0.  1.
        -24    2    1    2    0    0  0.19390934457E+02 -0.66853254645E+02 -0.19669961546E+03  0.22296439843E+03  0.78594008989E+02 0.  0.
         23    2    1    2    0    0 -0.44892433332E+02  0.13744262430E+02 -0.22919878832E+02  0.10611839728E+03  0.92366433706E+02 0.  0.
         13    1    3    3    0    0  0.18830866965E+02 -0.27109520881E+02 -0.13767904954E+02  0.35764268200E+02  0.00000000000E+00 0. -1.
        -14    1    3    3    0    0  0.56006749235E+00 -0.39743733764E+02 -0.18293171051E+03  0.18720013023E+03  0.00000000000E+00 0.  1.
        -11    1    4    4    0    0 -0.28829639611E+02 -0.34254410813E+02 -0.31551841271E+02  0.54772543010E+02  0.00000000000E+00 0.  1.
         11    1    4    4    0    0 -0.16062793721E+02  0.47998673243E+02  0.86319624390E+01  0.51345854271E+02  0.00000000000E+00 0. -1.
         21    1    1    2  502  501  0.25501498874E+02  0.53108992215E+02 -0.29755585152E+02  0.66002169258E+02  0.00000000000E+00 0. -1.
<scales pt_clust_5="13000.00000" pt_clust_6="13000.00000" pt_clust_7="13000.00000" pt_clust_8="13000.00000" pt_clust_9="58.91427"></scales>
<clustering>
<clus scale="   58.914">  1  9  2 -1</clus>
<clus scale="   78.594">  5  6 -1 -1</clus>
<clus scale="   92.366">  7  8 -1 -1</clus>
<clus scale="   98.771">  2  5  1 -1</clus>
<clus scale="   58.914">  1  5  2 -1</clus>
</clustering>
</event>
<event>
 9    1  0.2951046E-005  0.5695471E+03  0.7546771E-02  0.9970681E-01
          1   -1    0    0  502    0  0.00000000000E+00  0.00000000000E+00  0.80326244187E+03  0.80326244187E+03  0.00000000000E+00 0. -1.
         -2   -1    0    0    0  501 -0.00000000000E+00 -0.00000000000E+00 -0.41711182561E+03  0.41711182561E+03  0.00000000000E+00 0.  1.
        -24    2    1    2    0    0 -0.16950514506E+02 -0.17985521190E+03 -0.65471216174E+02  0.20888670923E+03  0.81926552201E+02 0.  0.
         23    2    1    2    0    0 -0.29578214211E+03 -0.18824290517E+03  0.18324920718E+02  0.36260840771E+03  0.90700538506E+02 0.  0.
         11    1    3    3    0    0  0.19598906908E+02 -0.67642257782E+02  0.63908584978E+01  0.70713755820E+02  0.00000000000E+00 0. -1.
        -12    1    3    3    0    0 -0.36549421414E+02 -0.11221295412E+03 -0.71862074672E+02  0.13817295341E+03  0.00000000000E+00 0.  1.
        -13    1    4    4    0    0 -0.22378006414E+03 -0.16377226285E+03 -0.18879946435E+02  0.27794841889E+03  0.00000000000E+00 0.  1.
         13    1    4    4    0    0 -0.72002077965E+02 -0.24470642322E+02  0.37204867153E+02  0.84659988819E+02  0.00000000000E+00 0. -1.
         21    1    1    2  502  501  0.31273265661E+03  0.36809811707E+03  0.43329691171E+03  0.64887915054E+03  0.00000000000E+00 0. -1.
<scales pt_clust_5="13000.00000" pt_clust_6="13000.00000" pt_clust_7="13000.00000" pt_clust_8="13000.00000" pt_clust_9="483.00925"></scales>
<clustering>
<clus scale="   81.927">  5  6 -1 -1</clus>
<clus scale="   90.701">  7  8 -1 -1</clus>
<clus scale="  198.291">  5  7 -1 -1</clus>
<clus scale="  483.009">  1  9  2 -1</clus>
<clus scale="  483.009">  1  5  2 -1</clus>
</clustering>
</event>
<event>
 9    1  0.2951046E-005  0.1068335E+03  0.7546771E-02  0.1271680E+00
         -2   -1    0    0    0  501 -0.00000000000E+00  0.00000000000E+00  0.51977877114E+03  0.51977877114E+03  0.00000000000E+00 0.  1.
          1   -1    0    0  502    0  0.00000000000E+00 -0.00000000000E+00 -0.35378321361E+02  0.35378321361E+02  0.00000000000E+00 0. -1.
         23    2    1    2    0    0  0.44549522600E+02 -0.10927099992E+02  0.27108581421E+03  0.29080503463E+03  0.94741691046E+02 0.  0.
        -24    2    1    2    0    0 -0.33693657906E+02  0.54520715183E+02  0.18012131732E+03  0.20849465496E+03  0.83177889046E+02 0.  0.
         13    1    4    4    0    0  0.18285065810E+02  0.33256816960E+02  0.30526293936E+02  0.48705380888E+02  0.00000000000E+00 0. -1.
        -14    1    4    4    0    0 -0.51978723715E+02  0.21263898223E+02  0.14959502339E+03  0.15978927407E+03  0.00000000000E+00 0.  1.
        -11    1    3    3    0    0 -0.73689681902E+01 -0.43389963814E+02  0.11068412153E+03  0.11911324616E+03  0.00000000000E+00 0. -1.
         11    1    3    3    0    0  0.51918490790E+02  0.32462863822E+02  0.16040169268E+03  0.17169178847E+03  0.00000000000E+00 0.  1.
         21    1    1    2  502  501 -0.10855864694E+02 -0.43593615191E+02  0.33193318245E+02  0.55857402909E+02  0.00000000000E+00 0. -1.
<scales pt_clust_5="13000.00000" pt_clust_6="13000.00000" pt_clust_7="13000.00000" pt_clust_8="13000.00000" pt_clust_9="44.92497"></scales>
<clustering>
<clus scale="   44.925">  2  9  1 -1</clus>
<clus scale="   83.178">  5  6 -1 -1</clus>
<clus scale="   94.742">  7  8 -1 -1</clus>
<clus scale="   96.726">  2  5  1 -1</clus>
<clus scale="   44.925">  2  5  1 -1</clus>
</clustering>
</event>
<event>
 9    1  0.2951046E-005  0.1585471E+03  0.7546771E-02  0.1192153E+00
         -2   -1    0    0    0  501 -0.00000000000E+00  0.00000000000E+00  0.28215625396E+03  0.28215625396E+03  0.00000000000E+00 0.  1.
          1   -1    0    0  502    0  0.00000000000E+00 -0.00000000000E+00 -0.67830326447E+03  0.67830326447E+03  0.00000000000E+00 0. -1.
        -24    2    1    2    0    0 -0.12947100970E+03 -0.32506329417E+02  0.24612554917E+03  0.29121560616E+03  0.80058350661E+02 0.  0.
         23    2    1    2    0    0  0.74433787010E+02  0.64819846596E+01 -0.31517019047E+03  0.33652432711E+03  0.91290574540E+02 0.  0.
         13    1    3    3    0    0 -0.63823631621E+02  0.22042167665E+02  0.82000618279E+02  0.10622341788E+03  0.00000000000E+00 0. -1.
        -14    1    3    3    0    0 -0.65647378080E+02 -0.54548497082E+02  0.16412493089E+03  0.18499218828E+03  0.00000000000E+00 0.  1.
        -13    1    4    4    0    0 -0.36806419787E+01  0.28076742020E+02 -0.35851549577E+02  0.45685710840E+02  0.00000000000E+00 0.  1.
         13    1    4    4    0    0  0.78114428989E+02 -0.21594757361E+02 -0.27931864090E+03  0.29083861627E+03  0.00000000000E+00 0. -1.
         21    1    1    2  502  501  0.55037222691E+02  0.26024344757E+02 -0.32710236921E+03  0.33271958515E+03  0.00000000000E+00 0. -1.
<scales pt_clust_5="13000.00000" pt_clust_6="13000.00000" pt_clust_7="13000.00000" pt_clust_8="13000.00000" pt_clust_9="60.87990"></scales>
<clustering>
<clus scale="   60.880">  2  9  1 -1</clus>
<clus scale="   80.058">  5  6 -1 -1</clus>
<clus scale="   91.291">  7  8 -1 -1</clus>
<clus scale="  152.357">  1  5  2 -1</clus>
<clus scale="   60.880">  2  5  1 -1</clus>
</clustering>
</event>
<event>
 9    1  0.2951046E-005  0.1813451E+03  0.7546771E-02  0.1167753E+00
          1   -1    0    0  502    0  0.00000000000E+00  0.00000000000E+00  0.78454729288E+03  0.78454729288E+03  0.00000000000E+00 0. -1.
         -2   -1    0    0    0  501 -0.00000000000E+00 -0.00000000000E+00 -0.53587115562E+02  0.53587115562E+02  0.00000000000E+00 0.  1.
         23    2    1    2    0    0 -0.72225367163E+02  0.14727678976E+03  0.26440715664E+03  0.32434635382E+03  0.91555755094E+02 0.  0.
        -24    2    1    2    0    0  0.99599755751E+02 -0.11224719344E+03  0.36015585368E+03  0.39847636001E+03  0.80942119854E+02 0.  0.
         13    1    4    4    0    0  0.60041118971E+02 -0.99343993381E+02  0.32098769254E+03  0.34133160380E+03  0.00000000000E+00 0. -1.
        -14    1    4    4    0    0  0.39558636780E+02 -0.12903200056E+02  0.39168161141E+02  0.57144756214E+02  0.00000000000E+00 0.  1.
        -11    1    3    3    0    0 -0.39966784076E+02  0.51881637093E+02  0.36018235009E+02  0.74741965120E+02  0.00000000000E+00 0.  1.
         11    1    3    3    0    0 -0.32258583087E+02  0.95395152666E+02  0.22838892163E+03  0.24960438870E+03  0.00000000000E+00 0. -1.
         21    1    1    2  502  501 -0.27374388588E+02 -0.35029596322E+02  0.10639716700E+03  0.11531169461E+03  0.00000000000E+00 0. -1.
<scales pt_clust_5="13000.00000" pt_clust_6="13000.00000" pt_clust_7="13000.00000" pt_clust_8="13000.00000" pt_clust_9="44.45706"></scales>
<clustering>
<clus scale="   44.457">  1  9  2 -1</clus>
<clus scale="   80.942">  5  6 -1 -1</clus>
<clus scale="   91.556">  7  8 -1 -1</clus>
<clus scale="  176.225">  1  5  2 -1</clus>
<clus scale="   44.457">  1  5  2 -1</clus>
</clustering>
</event>
<event>
 9    1  0.2951046E-005  0.9461449E+02  0.7546771E-02  0.1300822E+00
          1   -1    0    0  502    0  0.00000000000E+00  0.00000000000E+00  0.30745059824E+03  0.30745059824E+03  0.00000000000E+00 0. -1.
         -2   -1    0    0    0  501 -0.00000000000E+00 -0.00000000000E+00 -0.86018595254E+02  0.86018595254E+02  0.00000000000E+00 0.  1.
        -24    2    1    2    0    0  0.59465428202E+00 -0.52064663719E+01 -0.31046701177E+02  0.85685751208E+02  0.79691212818E+02 0.  0.
         23    2    1    2    0    0  0.30259051768E+02  0.52149958334E+02  0.20817641611E+03  0.23624090011E+03  0.94005926895E+02 0.  0.
         11    1    3    3    0    0  0.27724374159E+02 -0.17120822976E+02  0.10873258430E+02  0.34351000724E+02  0.00000000000E+00 0. -1.
        -12    1    3    3    0    0 -0.27129719877E+02  0.11914356604E+02 -0.41919959607E+02  0.51334750484E+02  0.00000000000E+00 0.  1.
        -11    1    4    4    0    0 -0.59366047414E+01  0.57149847925E+02  0.57840979613E+02  0.81528690142E+02  0.00000000000E+00 0. -1.
         11    1    4    4    0    0  0.36195656510E+02 -0.49998895902E+01  0.15033543649E+03  0.15471220996E+03  0.00000000000E+00 0.  1.
         21    1    1    2  502  501 -0.30853706050E+02 -0.46943491963E+02  0.44302288061E+02  0.71542542184E+02  0.00000000000E+00 0.  1.
<scales pt_clust_5="13000.00000" pt_clust_6="13000.00000" pt_clust_7="13000.00000" pt_clust_8="13000.00000" pt_clust_9="56.17511"></scales>
<clustering>
<clus scale="   56.175">  1  9  2 -1</clus>
<clus scale="   79.691">  5  6 -1 -1</clus>
<clus scale="   80.408">  2  5  1 -1</clus>
<clus scale="   94.006">  7  8 -1 -1</clus>
<clus scale="   56.175">  1  5  2 -1</clus>
</clustering>
</event>
<event>
 9    1  0.2951046E-005  0.1186458E+03  0.7546771E-02  0.1249302E+00
         -2   -1    0    0    0  501 -0.00000000000E+00  0.00000000000E+00  0.33642389226E+03  0.33642389226E+03  0.00000000000E+00 0.  1.
          1   -1    0    0  502    0  0.00000000000E+00 -0.00000000000E+00 -0.11924788309E+03  0.11924788309E+03  0.00000000000E+00 0. -1.
         23    2    1    2    0    0  0.37078726738E+02  0.70428306121E+02  0.27744646755E+03  0.30301593163E+03  0.92234127016E+02 0.  0.
        -24    2    1    2    0    0 -0.36662533224E+02 -0.40009845397E+02 -0.14889124255E+02  0.98021408991E+02  0.80259463793E+02 0.  0.
         11    1    4    4    0    0 -0.57186396334E+02 -0.23761818919E+02 -0.28891665559E+02  0.68334737161E+02  0.00000000000E+00 0. -1.
        -12    1    4    4    0    0  0.20523863110E+02 -0.16248026478E+02  0.14002541305E+02  0.29686671830E+02  0.00000000000E+00 0.  1.
        -11    1    3    3    0    0 -0.98833183623E+01 -0.18626618974E+02  0.44446509381E+02  0.49194746797E+02  0.00000000000E+00 0. -1.
         11    1    3    3    0    0  0.46962045101E+02  0.89054925095E+02  0.23299995817E+03  0.25382118484E+03  0.00000000000E+00 0.  1.
         21    1    1    2  502  501 -0.41619351397E+00 -0.30418460725E+02 -0.45381334134E+02  0.54634434724E+02  0.00000000000E+00 0. -1.
<scales pt_clust_5="13000.00000" pt_clust_6="13000.00000" pt_clust_7="13000.00000" pt_clust_8="13000.00000" pt_clust_9="30.42131"></scales>
<clustering>
<clus scale="   30.421">  2  9  1 -1</clus>
<clus scale="   80.259">  5  6 -1 -1</clus>
<clus scale="   92.234">  7  8 -1 -1</clus>
<clus scale="  109.596">  2  5  1 -1</clus>
<clus scale="   30.421">  2  5  1 -1</clus>
</clustering>
</event>
<event>
 9    1  0.2951046E-005  0.1568205E+03  0.7546771E-02  0.1194209E+00
         -2   -1    0    0    0  501 -0.00000000000E+00  0.00000000000E+00  0.40997803387E+02  0.40997803387E+02  0.00000000000E+00 0.  1.
          1   -1    0    0  502    0  0.00000000000E+00 -0.00000000000E+00 -0.94388594085E+03  0.94388594085E+03  0.00000000000E+00 0. -1.
        -24    2    1    2    0    0  0.11349025196E+03 -0.79002963351E+02 -0.18462667742E+03  0.24452930832E+03  0.81154587694E+02 0.  0.
         23    2    1    2    0    0 -0.71182229276E+02  0.69255398971E+02 -0.52007576858E+03  0.53746887188E+03  0.92362130359E+02 0.  0.
         11    1    3    3    0    0  0.26840556367E+02 -0.14689706807E+02 -0.10781865361E+03  0.11207615722E+03  0.00000000000E+00 0. -1.
        -12    1    3    3    0    0  0.86649695590E+02 -0.64313256544E+02 -0.76808023814E+02  0.13245315110E+03  0.00000000000E+00 0.  1.
        -13    1    4    4    0    0 -0.57988097901E+02 -0.68507686687E+00 -0.31751821115E+03  0.32277066663E+03  0.00000000000E+00 0.  1.
         13    1    4    4    0    0 -0.13194131375E+02  0.69940475838E+02 -0.20255755744E+03  0.21469820525E+03  0.00000000000E+00 0. -1.
         21    1    1    2  502  501 -0.42308022681E+02  0.97475643803E+01 -0.19818569146E+03  0.20288556404E+03  0.00000000000E+00 0. -1.
<scales pt_clust_5="13000.00000" pt_clust_6="13000.00000" pt_clust_7="13000.00000" pt_clust_8="13000.00000" pt_clust_9="43.41640"></scales>
<clustering>
<clus scale="   43.416">  2  9  1 -1</clus>
<clus scale="   81.155">  5  6 -1 -1</clus>
<clus scale="   92.362">  7  8 -1 -1</clus>
<clus scale="  150.492">  1  5  2 -1</clus>
<clus scale="   43.416">  2  5  1 -1</clus>
</clustering>
</event>
<event>
 9    1  0.2951046E-005  0.1036713E+03  0.7546771E-02  0.1275052E+00
         -2   -1    0    0    0  501 -0.00000000000E+00  0.00000000000E+00  0.21715074671E+03  0.21715074671E+03  0.00000000000E+00 0.  1.
          1   -1    0    0  502    0  0.00000000000E+00 -0.00000000000E+00 -0.20580576266E+03  0.20580576266E+03  0.00000000000E+00 0. -1.
         23    2    1    2    0    0 -0.65589609514E+01 -0.54493387106E+02  0.16905555795E+03  0.19754095724E+03  0.86198021475E+02 0.  0.
        -24    2    1    2    0    0  0.53251141050E+01  0.75236339885E+02 -0.60455457930E+02  0.12596531308E+03  0.80768397440E+02 0.  0.
         11    1    4    4    0    0  0.38053011330E+02  0.63323114746E+02 -0.30132459976E+02  0.79786049385E+02  0.00000000000E+00 0. -1.
        -12    1    4    4    0    0 -0.32727897225E+02  0.11913225140E+02 -0.30322997954E+02  0.46179263690E+02  0.00000000000E+00 0.  1.
        -13    1    3    3    0    0 -0.28456411242E+02 -0.25943044096E+01  0.12553767431E+02  0.31210492352E+02  0.00000000000E+00 0. -1.
         13    1    3    3    0    0  0.21897450291E+02 -0.51899082696E+02  0.15650179052E+03  0.16633046488E+03  0.00000000000E+00 0.  1.
         21    1    1    2  502  501  0.12338468463E+01 -0.20742952780E+02 -0.97255115961E+02  0.99450239058E+02  0.00000000000E+00 0. -1.
<scales pt_clust_5="13000.00000" pt_clust_6="13000.00000" pt_clust_7="13000.00000" pt_clust_8="13000.00000" pt_clust_9="20.77962"></scales>
<clustering>
<clus scale="   20.780">  2  9  1 -1</clus>
<clus scale="   80.768">  5  6 -1 -1</clus>
<clus scale="   86.198">  7  8 -1 -1</clus>
<clus scale="   99.203">  2  5  1 -1</clus>
<clus scale="   20.780">  2  5  1 -1</clus>
</clustering>
</event>
<event>
 9    1  0.2951046E-005  0.1753625E+03  0.7546771E-02  0.1174288E+00
         -2   -1    0    0    0  501 -0.00000000000E+00  0.00000000000E+00  0.13028772948E+03  0.13028772948E+03  0.00000000000E+00 0.  1.
          1   -1    0    0  502    0  0.00000000000E+00 -0.00000000000E+00 -0.31300183860E+03  0.31300183860E+03  0.00000000000E+00 0. -1.
        -24    2    1    2    0    0 -0.10076070502E+03 -0.11656490494E+03  0.12553750809E+02  0.17306404905E+03  0.77804059504E+02 0.  0.
         23    2    1    2    0    0  0.97295409983E+02  0.94604273195E+02 -0.16878100905E+03  0.23564473123E+03  0.92871120523E+02 0.  0.
         13    1    3    3    0    0 -0.24250013780E+02 -0.78422738828E+02 -0.14578211431E+02  0.83370938475E+02  0.00000000000E+00 0. -1.
        -14    1    3    3    0    0 -0.76510691244E+02 -0.38142166108E+02  0.27131962240E+02  0.89693110577E+02  0.00000000000E+00 0.  1.
        -11    1    4    4    0    0  0.32757307397E+02  0.28469447026E+02 -0.20190053252E+00  0.43400361354E+02  0.00000000000E+00 0.  1.
         11    1    4    4    0    0  0.64538102586E+02  0.66134826169E+02 -0.16857910852E+03  0.19224436987E+03  0.00000000000E+00 0. -1.
         21    1    1    2  502  501  0.34652950405E+01  0.21960631741E+02 -0.26486850875E+02  0.34580787809E+02  0.00000000000E+00 0.  1.
<scales pt_clust_5="13000.00000" pt_clust_6="13000.00000" pt_clust_7="13000.00000" pt_clust_8="13000.00000" pt_clust_9="22.23236"></scales>
<clustering>
<clus scale="   22.232">  2  9  1 -1</clus>
<clus scale="   77.804">  5  6 -1 -1</clus>
<clus scale="   92.871">  7  8 -1 -1</clus>
<clus scale="  167.870">  1  5  2 -1</clus>
<clus scale="   22.232">  2  5  1 -1</clus>
</clustering>
</event>
<event>
 9    1  0.2951046E-005  0.1161567E+03  0.7546771E-02  0.1251123E+00
         -2   -1    0    0    0  501 -0.00000000000E+00  0.00000000000E+00  0.27152936151E+02  0.27152936151E+02  0.00000000000E+00 0.  1.
          1   -1    0    0  502    0  0.00000000000E+00 -0.00000000000E+00 -0.13873556050E+04  0.13873556050E+04  0.00000000000E+00 0. -1.
        -24    2    1    2    0    0  0.27439102429E+02  0.50780367856E+02 -0.18783176995E+03  0.21438769402E+03  0.85730738034E+02 0.  0.
         23    2    1    2    0    0 -0.10970209847E+03 -0.58593089506E+02 -0.51126819898E+03  0.53387388168E+03  0.90324136858E+02 0.  0.
         11    1    3    3    0    0  0.40917131449E+02 -0.74925357472E+01 -0.57318598037E+02  0.70822111087E+02  0.00000000000E+00 0. -1.
        -12    1    3    3    0    0 -0.13478029020E+02  0.58272903603E+02 -0.13051317191E+03  0.14356558293E+03  0.00000000000E+00 0.  1.
        -11    1    4    4    0    0 -0.50507967883E+02 -0.58557651628E+02 -0.16064119995E+03  0.17828530087E+03  0.00000000000E+00 0.  1.
         11    1    4    4    0    0 -0.59194130590E+02 -0.35437877450E-01 -0.35062699903E+03  0.35558858081E+03  0.00000000000E+00 0. -1.
         21    1    1    2  502  501  0.82262996044E+02  0.78127216501E+01 -0.66110269992E+03  0.66624696545E+03  0.00000000000E+00 0.  1.
<scales pt_clust_5="13000.00000" pt_clust_6="13000.00000" pt_clust_7="13000.00000" pt_clust_8="13000.00000" pt_clust_9="82.63316"></scales>
<clustering>
<clus scale="   82.633">  2  9  1 -1</clus>
<clus scale="   85.731">  5  6 -1 -1</clus>
<clus scale="   90.324">  7  8 -1 -1</clus>
<clus scale="  112.622">  1  5  2 -1</clus>
<clus scale="   82.633">  2  5  1 -1</clus>
</clustering>
</event>
<event>
 9    1  0.2951046E-005  0.1256262E+03  0.7546771E-02  0.1255148E+00
         -2   -1    0    0    0  501 -0.00000000000E+00  0.00000000000E+00  0.62368751794E+02  0.62368751794E+02  0.00000000000E+00 0.  1.
          1   -1    0    0  502    0  0.00000000000E+00 -0.00000000000E+00 -0.62629341138E+03  0.62629341138E+03  0.00000000000E+00 0. -1.
        -24    2    1    2    0    0  0.27320367973E+02  0.19758772009E+02  0.13869481818E+01  0.82192933383E+02  0.74946268054E+02 0.  0.
         23    2    1    2    0    0  0.33600735692E+02  0.63610357110E+02 -0.32225462576E+03  0.34238877034E+03  0.90591055078E+02 0.  0.
         13    1    3    3    0    0 -0.21609832578E+02  0.10800396494E+02 -0.16583781410E+02  0.29302819563E+02  0.00000000000E+00 0. -1.
        -14    1    3    3    0    0  0.48930200551E+02  0.89583755154E+01  0.17970729592E+02  0.52890113820E+02  0.00000000000E+00 0.  1.
        -13    1    4    4    0    0  0.26397510953E+02  0.85451434160E+02 -0.21809956871E+03  0.23572483547E+03  0.00000000000E+00 0.  1.
         13    1    4    4    0    0  0.72032247389E+01 -0.21841077051E+02 -0.10415505705E+03  0.10666393487E+03  0.00000000000E+00 0. -1.
         21    1    1    2  502  501 -0.60921103665E+02 -0.83369129119E+02 -0.24305698201E+03  0.26408045945E+03  0.00000000000E+00 0. -1.
<scales pt_clust_5="13000.00000" pt_clust_6="13000.00000" pt_clust_7="13000.00000" pt_clust_8="13000.00000" pt_clust_9="87.03559"></scales>
<clustering>
<clus scale="   74.946">  5  6 -1 -1</clus>
<clus scale="   82.181">  1  5  2 -1</clus>
<clus scale="   87.036">  1  9  2 -1</clus>
<clus scale="   90.591">  7  8 -1 -1</clus>
<clus scale="  125.626">  2  5  1 -1</clus>
</clustering>
</event>
<event>
 9    1  0.2951046E-005  0.1829940E+03  0.7546771E-02  0.1179749E+00
          1   -1    0    0  502    0  0.00000000000E+00  0.00000000000E+00  0.89913151665E+03  0.89913151665E+03  0.00000000000E+00 0. -1.
         -2   -1    0    0    0  501 -0.00000000000E+00 -0.00000000000E+00 -0.13968011784E+03  0.13968011784E+03  0.00000000000E+00 0.  1.
        -24    2    1    2    0    0  0.47031714636E+02  0.90992400472E+02 -0.61069898718E+02  0.14415677041E+03  0.80994091142E+02 0.  0.
         23    2    1    2    0    0 -0.15148696576E+03  0.47289670976E+02  0.41588736323E+03  0.45447143465E+03  0.91637177149E+02 0.  0.
         11    1    3    3    0    0  0.57998676275E+02  0.33486651362E+02 -0.52274050058E+02  0.84957510430E+02  0.00000000000E+00 0. -1.
        -12    1    3    3    0    0 -0.10966961639E+02  0.57505749110E+02 -0.87958486603E+01  0.59199259978E+02  0.00000000000E+00 0.  1.
        -11    1    4    4    0    0 -0.47265700753E+02  0.25585994972E+02  0.49986414252E+02  0.73398441511E+02  0.00000000000E+00 0.  1.
         11    1    4    4    0    0 -0.10422126500E+03  0.21703676004E+02  0.36590094898E+03  0.38107299314E+03  0.00000000000E+00 0. -1.
         21    1    1    2  502  501  0.10445525112E+03 -0.13828207145E+03  0.40463393429E+03  0.44018342944E+03  0.00000000000E+00 0. -1.
<scales pt_clust_5="13000.00000" pt_clust_6="13000.00000" pt_clust_7="13000.00000" pt_clust_8="13000.00000" pt_clust_9="158.39648"></scales>
<clustering>
<clus scale="   80.994">  5  6 -1 -1</clus>
<clus scale="   91.637">  7  8 -1 -1</clus>
<clus scale="  130.582">  2  5  1 -1</clus>
<clus scale="  158.396">  2  9  1 -1</clus>
<clus scale="  182.994">  1  5  2 -1</clus>
</clustering>
</event>
<event>
 9    1  0.2951046E-005  0.1091999E+03  0.7546771E-02  0.1262804E+00
          3   -1    0    0  502    0  0.00000000000E+00  0.00000000000E+00  0.33103006367E+02  0.33103006367E+02  0.00000000000E+00 0. -1.
         -4   -1    0    0    0  501 -0.00000000000E+00 -0.00000000000E+00 -0.56986386995E+03  0.56986386995E+03  0.00000000000E+00 0.  1.
         23    2    1    2    0    0  0.41558829396E+02 -0.51899920513E+02 -0.25817434998E+03  0.27851136489E+03  0.80584411244E+02 0.  0.
        -24    2    1    2    0    0 -0.76259542905E+02  0.40150344404E+02 -0.25637044258E+03  0.28160990642E+03  0.78426829107E+02 0.  0.
         13    1    4    4    0    0 -0.74729364351E+01  0.45393386964E+02 -0.80901062537E+02  0.93066569071E+02  0.00000000000E+00 0. -1.
        -14    1    4    4    0    0 -0.68786606470E+02 -0.52430425599E+01 -0.17546938004E+03  0.18854333735E+03  0.00000000000E+00 0.  1.
        -11    1    3    3    0    0  0.13713758023E+01 -0.50559132831E+02 -0.20878354596E+03  0.21482242818E+03  0.00000000000E+00 0.  1.
         11    1    3    3    0    0  0.40187453593E+02 -0.13407876820E+01 -0.49390804020E+02  0.63688936714E+02  0.00000000000E+00 0. -1.
         21    1    1    2  502  501  0.34700713509E+02  0.11749576109E+02 -0.22216071019E+02  0.42845605006E+02  0.00000000000E+00 0. -1.
<scales pt_clust_5="13000.00000" pt_clust_6="13000.00000" pt_clust_7="13000.00000" pt_clust_8="13000.00000" pt_clust_9="36.63594"></scales>
<clustering>
<clus scale="   36.636">  1  9  2 -1</clus>
<clus scale="   78.427">  5  6 -1 -1</clus>
<clus scale="   80.584">  7  8 -1 -1</clus>
<clus scale="  107.618">  1  5  2 -1</clus>
<clus scale="   36.636">  1  5  2 -1</clus>
</clustering>
</event>
<event>
 9    1  0.2951046E-005  0.8924991E+02  0.7546771E-02  0.1311761E+00
          1   -1    0    0  502    0  0.00000000000E+00  0.00000000000E+00  0.10807676963E+03  0.10807676963E+03  0.00000000000E+00 0. -1.
         -2   -1    0    0    0  501 -0.00000000000E+00 -0.00000000000E+00 -0.13248093120E+03  0.13248093120E+03  0.00000000000E+00 0.  1.
        -24    2    1    2    0    0 -0.84183330609E+01 -0.17450053712E+02 -0.57728534099E+02  0.97927528334E+02  0.76693183858E+02 0.  0.
         23    2    1    2    0    0  0.27057951944E+02 -0.11449212012E+02 -0.30882614123E+01  0.92545415709E+02  0.87703474225E+02 0.  0.
         11    1    3    3    0    0 -0.31326109714E+02 -0.99732978781E+01  0.25865085160E+01  0.32976989655E+02  0.00000000000E+00 0. -1.
        -12    1    3    3    0    0  0.22907776653E+02 -0.74767558343E+01 -0.60315042615E+02  0.64950538679E+02  0.00000000000E+00 0.  1.
        -11    1    4    4    0    0  0.31896491707E+02  0.17910678052E+02  0.30531956129E+02  0.47648493330E+02  0.00000000000E+00 0. -1.
         11    1    4    4    0    0 -0.48385397637E+01 -0.29359890064E+02 -0.33620217541E+02  0.44896922380E+02  0.00000000000E+00 0.  1.
         21    1    1    2  502  501 -0.18639618883E+02  0.28899265724E+02  0.36412633943E+02  0.50084756784E+02  0.00000000000E+00 0. -1.
<scales pt_clust_5="13000.00000" pt_clust_6="13000.00000" pt_clust_7="13000.00000" pt_clust_8="13000.00000" pt_clust_9="34.38899"></scales>
<clustering>
<clus scale="   34.389">  1  9  2 -1</clus>
<clus scale="   76.693">  5  6 -1 -1</clus>
<clus scale="   78.457">  2  5  1 -1</clus>
<clus scale="   87.703">  7  8 -1 -1</clus>
<clus scale="   34.389">  1  5  2 -1</clus>
</clustering>
</event>
<event>
 9    1  0.2951046E-005  0.2906253E+03  0.7546771E-02  0.1090423E+00
         -2   -1    0    0    0  501 -0.00000000000E+00  0.00000000000E+00  0.42558815256E+03  0.42558815256E+03  0.00000000000E+00 0.  1.
          1   -1    0    0  502    0  0.00000000000E+00 -0.00000000000E+00 -0.74158285763E+03  0.74158285763E+03  0.00000000000E+00 0. -1.
        -24    2    1    2    0    0  0.12577927654E+03 -0.24204469793E+03  0.32295627799E+03  0.43039341096E+03  0.80818738555E+02 0.  0.
         23    2    1    2    0    0 -0.14684520461E+03  0.27651436736E+03 -0.57863177596E+03  0.66418050437E+03  0.91089520550E+02 0.  0.
         13    1    3    3    0    0  0.52343583707E+02 -0.56601795623E+02  0.48370406241E+02  0.91012692648E+02  0.00000000000E+00 0. -1.
        -14    1    3    3    0    0  0.73435692830E+02 -0.18544290231E+03  0.27458587175E+03  0.33938071831E+03  0.00000000000E+00 0.  1.
        -13    1    4    4    0    0 -0.13272294233E+03  0.20915125259E+03 -0.51004086873E+03  0.56701085850E+03  0.00000000000E+00 0. -1.
         13    1    4    4    0    0 -0.14122262281E+02  0.67363114767E+02 -0.68590907234E+02  0.97169645869E+02  0.00000000000E+00 0.  1.
         21    1    1    2  502  501  0.21065928074E+02 -0.34469669429E+02 -0.60319207101E+02  0.72597094855E+02  0.00000000000E+00 0.  1.
<scales pt_clust_5="13000.00000" pt_clust_6="13000.00000" pt_clust_7="13000.00000" pt_clust_8="13000.00000" pt_clust_9="40.39717"></scales>
<clustering>
<clus scale="   40.397">  2  9  1 -1</clus>
<clus scale="   80.819">  5  6 -1 -1</clus>
<clus scale="   91.090">  7  8 -1 -1</clus>
<clus scale="  287.572">  1  5  2 -1</clus>
<clus scale="   40.397">  2  5  1 -1</clus>
</clustering>
</event>
<event>
 9    1  0.2951046E-005  0.1980018E+03  0.7546771E-02  0.1152460E+00
          1   -1    0    0  502    0  0.00000000000E+00  0.00000000000E+00  0.37885637934E+03  0.37885637934E+03  0.00000000000E+00 0. -1.
         -2   -1    0    0    0  501 -0.00000000000E+00 -0.00000000000E+00 -0.36115972784E+03  0.36115972784E+03  0.00000000000E+00 0.  1.
        -24    2    1    2    0    0 -0.12959739478E+03  0.12083367949E+03 -0.29724319103E+03  0.35535592926E+03  0.80796404700E+02 0.  0.
         23    2    1    2    0    0  0.12690482568E+03 -0.10036171839E+03  0.22246789162E+03  0.28991096776E+03  0.91537408325E+02 0.  0.
         13    1    3    3    0    0 -0.73431408885E+01  0.49359424452E+02 -0.51383447431E+02  0.71627740228E+02  0.00000000000E+00 0. -1.
        -14    1    3    3    0    0 -0.12225425389E+03  0.71474255042E+02 -0.24585974360E+03  0.28372818903E+03  0.00000000000E+00 0.  1.
        -13    1    4    4    0    0  0.77246575456E+02 -0.20233444100E+02  0.52541359215E+02  0.95587761287E+02  0.00000000000E+00 0.  1.
         13    1    4    4    0    0  0.49658250224E+02 -0.80128274286E+02  0.16992653241E+03  0.19432320647E+03  0.00000000000E+00 0. -1.
         21    1    1    2  502  501  0.26925690969E+01 -0.20471961108E+02  0.92471950914E+02  0.94749210159E+02  0.00000000000E+00 0. -1.
<scales pt_clust_5="13000.00000" pt_clust_6="13000.00000" pt_clust_7="13000.00000" pt_clust_8="13000.00000" pt_clust_9="20.64827"></scales>
<clustering>
<clus scale="   20.648">  1  9  2 -1</clus>
<clus scale="   80.796">  5  6 -1 -1</clus>
<clus scale="   91.537">  7  8 -1 -1</clus>
<clus scale="  193.271">  2  5  1 -1</clus>
<clus scale="   20.648">  1  5  2 -1</clus>
</clustering>
</event>
<event>
 9    1  0.2951046E-005  0.1019724E+03  0.7546771E-02  0.1281643E+00
         -2   -1    0    0    0  501 -0.00000000000E+00  0.00000000000E+00  0.11326624275E+03  0.11326624275E+03  0.00000000000E+00 0.  1.
          1   -1    0    0  502    0  0.00000000000E+00 -0.00000000000E+00 -0.32919976735E+03  0.32919976735E+03  0.00000000000E+00 0. -1.
         23    2    1    2    0    0  0.39616922185E+02  0.14984073040E+02  0.74838491568E+02  0.12587000297E+03  0.91915367920E+02 0.  0.
        -24    2    1    2    0    0 -0.58678413175E+02 -0.23461972085E+02 -0.25966260020E+03  0.27913921905E+03  0.80625165841E+02 0.  0.
         13    1    4    4    0    0 -0.68307349836E+02 -0.19094154925E+02 -0.12235930088E+03  0.14142941457E+03  0.00000000000E+00 0. -1.
        -14    1    4    4    0    0  0.96289366611E+01 -0.43678171599E+01 -0.13730329931E+03  0.13770980448E+03  0.00000000000E+00 0.  1.
        -11    1    3    3    0    0  0.18929520277E+02  0.52668434311E+02  0.55195531345E+02  0.78605581170E+02  0.00000000000E+00 0.  1.
         11    1    3    3    0    0  0.20687401907E+02 -0.37684361270E+02  0.19642960223E+02  0.47264421803E+02  0.00000000000E+00 0. -1.
         21    1    1    2  502  501  0.19061490990E+02  0.84778990448E+01 -0.31109415967E+02  0.37456788073E+02  0.00000000000E+00 0.  1.
<scales pt_clust_5="13000.00000" pt_clust_6="13000.00000" pt_clust_7="13000.00000" pt_clust_8="13000.00000" pt_clust_9="20.86181"></scales>
<clustering>
<clus scale="   20.862">  2  9  1 -1</clus>
<clus scale="   80.625">  5  6 -1 -1</clus>
<clus scale="   91.915">  7  8 -1 -1</clus>
<clus scale="   91.926">  2  5  1 -1</clus>
<clus scale="   20.862">  2  5  1 -1</clus>
</clustering>
</event>
<event>
 9    1  0.2951046E-005  0.1087707E+03  0.7546771E-02  0.1266774E+00
         -2   -1    0    0    0  501 -0.00000000000E+00  0.00000000000E+00  0.64504620326E+02  0.64504620326E+02  0.00000000000E+00 0.  1.
          1   -1    0    0  502    0  0.00000000000E+00 -0.00000000000E+00 -0.54734931627E+03  0.54734931627E+03  0.00000000000E+00 0. -1.
        -24    2    1    2    0    0 -0.23691394862E+02 -0.52869959604E+02  0.71190073603E+01  0.10086931406E+03  0.82264350930E+02 0.  0.
         23    2    1    2    0    0  0.52684168511E+02  0.41966760424E+02 -0.39471807322E+03  0.41082879032E+03  0.91875497492E+02 0.  0.
         13    1    3    3    0    0 -0.24751791902E+02  0.17386879317E+02  0.34633120422E-01  0.30248239192E+02  0.00000000000E+00 0. -1.
        -14    1    3    3    0    0  0.10603970398E+01 -0.70256838921E+02  0.70843742399E+01  0.70621074868E+02  0.00000000000E+00 0.  1.
        -11    1    4    4    0    0 -0.53149668201E+01  0.40504373764E+02 -0.70668943123E+02  0.81626911546E+02  0.00000000000E+00 0.  1.
         11    1    4    4    0    0  0.57999135331E+02  0.14623866596E+01 -0.32404913010E+03  0.32920187878E+03  0.00000000000E+00 0. -1.
         21    1    1    2  502  501 -0.28992773649E+02  0.10903199180E+02 -0.95245630080E+02  0.10015583221E+03  0.00000000000E+00 0.  1.
<scales pt_clust_5="13000.00000" pt_clust_6="13000.00000" pt_clust_7="13000.00000" pt_clust_8="13000.00000" pt_clust_9="30.97516"></scales>
<clustering>
<clus scale="   30.975">  2  9  1 -1</clus>
<clus scale="   82.264">  5  6 -1 -1</clus>
<clus scale="   91.875">  7  8 -1 -1</clus>
<clus scale="  100.784">  1  5  2 -1</clus>
<clus scale="   30.975">  2  5  1 -1</clus>
</clustering>
</event>
<event>
 9    1  0.2951046E-005  0.1525485E+03  0.7546771E-02  0.1198768E+00
         -2   -1    0    0    0  501 -0.00000000000E+00  0.00000000000E+00  0.62683244056E+02  0.62683244056E+02  0.00000000000E+00 0.  1.
          1   -1    0    0  502    0  0.00000000000E+00 -0.00000000000E+00 -0.11638263610E+04  0.11638263610E+04  0.00000000000E+00 0. -1.
         23    2    1    2    0    0 -0.93887847888E+02  0.74535794872E+02 -0.13235727642E+03  0.19972958881E+03  0.89459193635E+02 0.  0.
        -24    2    1    2    0    0  0.92997784304E+01 -0.18351872416E+03 -0.61687071736E+03  0.64878970647E+03  0.81443190566E+02 0.  0.
         11    1    4    4    0    0 -0.19919568884E+02 -0.16538784799E+03 -0.50753988732E+03  0.53417849705E+03  0.00000000000E+00 0. -1.
        -12    1    4    4    0    0  0.29219347314E+02 -0.18130876171E+02 -0.10933083004E+03  0.11461120942E+03  0.00000000000E+00 0.  1.
        -13    1    3    3    0    0 -0.89230469211E+02  0.27730646958E+02 -0.11807080794E+03  0.15057151491E+03  0.00000000000E+00 0. -1.
         13    1    3    3    0    0 -0.46573786778E+01  0.46805147914E+02 -0.14286468484E+02  0.49158073896E+02  0.00000000000E+00 0.  1.
         21    1    1    2  502  501  0.84588069458E+02  0.10898292929E+03 -0.35191512312E+03  0.37799030973E+03  0.00000000000E+00 0.  1.
<scales pt_clust_5="13000.00000" pt_clust_6="13000.00000" pt_clust_7="13000.00000" pt_clust_8="13000.00000" pt_clust_9="137.95804"></scales>
<clustering>
<clus scale="   81.443">  5  6 -1 -1</clus>
<clus scale="   89.459">  7  8 -1 -1</clus>
<clus scale="  137.958">  2  9  1 -1</clus>
<clus scale="  147.990">  2  5  1 -1</clus>
<clus scale="  137.958">  2  5  1 -1</clus>
</clustering>
</event>
<event>
 9    1  0.2951046E-005  0.1102027E+03  0.7546771E-02  0.1261235E+00
         -2   -1    0    0    0  501 -0.00000000000E+00  0.00000000000E+00  0.15626671534E+03  0.15626671534E+03  0.00000000000E+00 0.  1.
          1   -1    0    0  502    0  0.00000000000E+00 -0.00000000000E+00 -0.20928156519E+03  0.20928156519E+03  0.00000000000E+00 0. -1.
        -24    2    1    2    0    0  0.33484271386E+02  0.74135462082E+02  0.56487749325E+02  0.13340179719E+03  0.89375111190E+02 0.  0.
         23    2    1    2    0    0  0.20989453331E+02 -0.41090912287E+02  0.28232178647E+01  0.10300927674E+03  0.92053898947E+02 0.  0.
         11    1    3    3    0    0 -0.25698551265E+02  0.19830416477E+02 -0.42001056264E+01  0.32730747655E+02  0.00000000000E+00 0. -1.
        -12    1    3    3    0    0  0.59182822651E+02  0.54305045605E+02  0.60687854951E+02  0.10067104953E+03  0.00000000000E+00 0.  1.
        -13    1    4    4    0    0 -0.15552455812E+02 -0.59700748223E+02 -0.19539167927E+01  0.61724193077E+02  0.00000000000E+00 0. -1.
         13    1    4    4    0    0  0.36541909143E+02  0.18609835936E+02  0.47771346574E+01  0.41285083661E+02  0.00000000000E+00 0.  1.
         21    1    1    2  502  501 -0.54473724717E+02 -0.33044549795E+02 -0.11232581704E+03  0.12913720661E+03  0.00000000000E+00 0. -1.
<scales pt_clust_5="13000.00000" pt_clust_6="13000.00000" pt_clust_7="13000.00000" pt_clust_8="13000.00000" pt_clust_9="63.71286"></scales>
<clustering>
<clus scale="   63.713">  2  9  1 -1</clus>
<clus scale="   89.375">  5  6 -1 -1</clus>
<clus scale="   92.054">  7  8 -1 -1</clus>
<clus scale="  107.975">  1  5  2 -1</clus>
<clus scale="   63.713">  2  5  1 -1</clus>
</clustering>
</event>
<event>
 9    1  0.2951046E-005  0.1512659E+03  0.7546771E-02  0.1200330E+00
          1   -1    0    0  502    0  0.00000000000E+00  0.00000000000E+00  0.77721656827E+03  0.77721656827E+03  0.00000000000E+00 0. -1.
         -2   -1    0    0    0  501 -0.00000000000E+00 -0.00000000000E+00 -0.11540855253E+03  0.11540855253E+03  0.00000000000E+00 0.  1.
         23    2    1    2    0    0  0.56523277632E+02  0.30786950332E+02 -0.52518291704E+02  0.12158723501E+03  0.88783824703E+02 0.  0.
        -24    2    1    2    0    0 -0.12609455395E+03  0.34209278495E+02  0.61318418718E+03  0.63213359952E+03  0.80795599902E+02 0.  0.
         11    1    4    4    0    0 -0.90599933657E+02  0.24321004155E+02  0.55766631124E+03  0.56550117056E+03  0.00000000000E+00 0. -1.
        -12    1    4    4    0    0 -0.35494620295E+02  0.98882743398E+01  0.55517875945E+02  0.66632428957E+02  0.00000000000E+00 0.  1.
        -11    1    3    3    0    0 -0.77015621615E+00 -0.27683072891E+02 -0.10991022961E+02  0.29795104481E+02  0.00000000000E+00 0. -1.
         11    1    3    3    0    0  0.57293433848E+02  0.58470023223E+02 -0.41527268743E+02  0.91792130529E+02  0.00000000000E+00 0.  1.
         21    1    1    2  502  501  0.69571276321E+02 -0.64996228827E+02  0.10114212027E+03  0.13890428627E+03  0.00000000000E+00 0.  1.
<scales pt_clust_5="13000.00000" pt_clust_6="13000.00000" pt_clust_7="13000.00000" pt_clust_8="13000.00000" pt_clust_9="95.20857"></scales>
<clustering>
<clus scale="   80.796">  5  6 -1 -1</clus>
<clus scale="   88.784">  7  8 -1 -1</clus>
<clus scale="   95.209">  2  9  1 -1</clus>
<clus scale="  146.720">  1  5  2 -1</clus>
<clus scale="  146.720">  1  5  2 -1</clus>
</clustering>
</event>
<event>
 9    1  0.2951046E-005  0.1142387E+03  0.7546771E-02  0.1257078E+00
         -2   -1    0    0    0  501 -0.00000000000E+00  0.00000000000E+00  0.56290713690E+02  0.56290713690E+02  0.00000000000E+00 0.  1.
          1   -1    0    0  502    0  0.00000000000E+00 -0.00000000000E+00 -0.69237368267E+03  0.69237368267E+03  0.00000000000E+00 0. -1.
         23    2    1    2    0    0 -0.39494013122E+02 -0.46121728583E+02 -0.21379969850E+02  0.11225909651E+03  0.91967443802E+02 0.  0.
        -24    2    1    2    0    0  0.21495398761E+02  0.65495211105E+02 -0.59243580858E+03  0.60183494088E+03  0.80457653031E+02 0.  0.
         11    1    4    4    0    0  0.17843816882E+02  0.84604361167E+02 -0.48888899483E+03  0.49647633277E+03  0.00000000000E+00 0. -1.
        -12    1    4    4    0    0  0.36515818785E+01 -0.19109150063E+02 -0.10354681374E+03  0.10535860811E+03  0.00000000000E+00 0.  1.
        -11    1    3    3    0    0 -0.65508141131E+02 -0.11916049775E+02 -0.70331187269E+01  0.66953517874E+02  0.00000000000E+00 0.  1.
         11    1    3    3    0    0  0.26014128009E+02 -0.34205678808E+02 -0.14346851124E+02  0.45305578641E+02  0.00000000000E+00 0. -1.
         21    1    1    2  502  501  0.17998614361E+02 -0.19373482522E+02 -0.22267190549E+02  0.34570358963E+02  0.00000000000E+00 0.  1.
<scales pt_clust_5="13000.00000" pt_clust_6="13000.00000" pt_clust_7="13000.00000" pt_clust_8="13000.00000" pt_clust_9="26.44394"></scales>
<clustering>
<clus scale="   26.444">  1  9  2 -1</clus>
<clus scale="   80.458">  5  6 -1 -1</clus>
<clus scale="   91.967">  7  8 -1 -1</clus>
<clus scale="  105.195">  2  5  1 -1</clus>
<clus scale="  105.195">  2  5  1 -1</clus>
</clustering>
</event>
<event>
 9    1  0.2951046E-005  0.9010197E+02  0.7546771E-02  0.1308743E+00
          1   -1    0    0  502    0  0.00000000000E+00  0.00000000000E+00  0.25936760745E+03  0.25936760745E+03  0.00000000000E+00 0. -1.
         -2   -1    0    0    0  501 -0.00000000000E+00 -0.00000000000E+00 -0.89666030700E+02  0.89666030700E+02  0.00000000000E+00 0.  1.
         23    2    1    2    0    0 -0.19830016902E+02  0.24133541448E+02 -0.42285767486E+02  0.10383296932E+03  0.89540728127E+02 0.  0.
        -24    2    1    2    0    0  0.87467985750E+01  0.19164545604E+00  0.20066719729E+03  0.21617140474E+03  0.79913759426E+02 0.  0.
         11    1    4    4    0    0 -0.19504082397E+01  0.34679084206E+02  0.14990757132E+03  0.15387892290E+03  0.00000000000E+00 0. -1.
        -12    1    4    4    0    0  0.10697206815E+02 -0.34487438750E+02  0.50759625971E+02  0.62292481841E+02  0.00000000000E+00 0.  1.
        -13    1    3    3    0    0 -0.33975446728E+02  0.52448899040E+02 -0.22062716483E+02  0.66272026146E+02  0.00000000000E+00 0. -1.
         13    1    3    3    0    0  0.14145429825E+02 -0.28315357593E+02 -0.20223051002E+02  0.37560943178E+02  0.00000000000E+00 0.  1.
         21    1    1    2  502  501  0.11083218327E+02 -0.24325186904E+02  0.11320146942E+02  0.29029264083E+02  0.00000000000E+00 0.  1.
<scales pt_clust_5="13000.00000" pt_clust_6="13000.00000" pt_clust_7="13000.00000" pt_clust_8="13000.00000" pt_clust_9="26.73111"></scales>
<clustering>
<clus scale="   26.731">  2  9  1 -1</clus>
<clus scale="   79.914">  5  6 -1 -1</clus>
<clus scale="   80.542">  1  5  2 -1</clus>
<clus scale="   89.541">  7  8 -1 -1</clus>
<clus scale="   80.542">  1  5  2 -1</clus>
</clustering>
</event>
<event>
 9    1  0.2951046E-005  0.1346976E+03  0.7546771E-02  0.1223130E+00
          1   -1    0    0  502    0  0.00000000000E+00  0.00000000000E+00  0.41935698329E+03  0.41935698329E+03  0.00000000000E+00 0. -1.
         -2   -1    0    0    0  501 -0.00000000000E+00 -0.00000000000E+00 -0.24916960884E+03  0.24916960884E+03  0.00000000000E+00 0.  1.
         23    2    1    2    0    0  0.35208152977E+02  0.85351437519E+02 -0.16589639463E+03  0.21085826950E+03  0.91733931246E+02 0.  0.
        -24    2    1    2    0    0 -0.55923694681E+02 -0.17874950605E+03  0.28070209701E+03  0.34712664509E+03  0.81390385934E+02 0.  0.
         13    1    4    4    0    0 -0.68499977681E+02 -0.89181729105E+02  0.17492519497E+03  0.20795300331E+03  0.00000000000E+00 0. -1.
        -14    1    4    4    0    0  0.12576282999E+02 -0.89567776949E+02  0.10577690204E+03  0.13917364178E+03  0.00000000000E+00 0.  1.
        -13    1    3    3    0    0  0.56061007657E+02  0.20234911786E+02 -0.58291300091E+02  0.83367643008E+02  0.00000000000E+00 0. -1.
         13    1    3    3    0    0 -0.20852854681E+02  0.65116525733E+02 -0.10760509454E+03  0.12749062649E+03  0.00000000000E+00 0.  1.
         21    1    1    2  502  501  0.20715541705E+02  0.93398068535E+02  0.55381672065E+02  0.11054167755E+03  0.00000000000E+00 0.  1.
<scales pt_clust_5="13000.00000" pt_clust_6="13000.00000" pt_clust_7="13000.00000" pt_clust_8="13000.00000" pt_clust_9="95.66783"></scales>
<clustering>
<clus scale="   81.390">  5  6 -1 -1</clus>
<clus scale="   91.734">  7  8 -1 -1</clus>
<clus scale="   95.668">  1  9  2 -1</clus>
<clus scale="  127.878">  1  5  2 -1</clus>
<clus scale="   95.668">  1  5  2 -1</clus>
</clustering>
</event>
<event>
 9    1  0.2951046E-005  0.1700436E+03  0.7546771E-02  0.1194021E+00
          3   -1    0    0  502    0  0.00000000000E+00  0.00000000000E+00  0.62977056699E+03  0.62977056699E+03  0.00000000000E+00 0. -1.
         -4   -1    0    0    0  501 -0.00000000000E+00 -0.00000000000E+00 -0.10862272670E+03  0.10862272670E+03  0.00000000000E+00 0.  1.
        -24    2    1    2    0    0 -0.27798965249E+02  0.83337434222E+02  0.11521739183E+02  0.11908879039E+03  0.79570592001E+02 0.  0.
         23    2    1    2    0    0  0.87492522642E+02 -0.18705704459E+03  0.27732405847E+03  0.35798990864E+03  0.92751613647E+02 0.  0.
         11    1    3    3    0    0 -0.26603016907E+02 -0.74108560755E+01  0.95189476522E-01  0.27616124952E+02  0.00000000000E+00 0. -1.
        -12    1    3    3    0    0 -0.11959483426E+01  0.90748290298E+02  0.11426549706E+02  0.91472665439E+02  0.00000000000E+00 0.  1.
        -11    1    4    4    0    0  0.36200533742E+02 -0.13771626093E+03  0.12346515568E+03  0.18846721687E+03  0.00000000000E+00 0.  1.
         11    1    4    4    0    0  0.51291988899E+02 -0.49340783660E+02  0.15385890279E+03  0.16952269177E+03  0.00000000000E+00 0. -1.
         21    1    1    2  502  501 -0.59693557392E+02  0.10371961037E+03  0.23230204263E+03  0.26131459465E+03  0.00000000000E+00 0.  1.
<scales pt_clust_5="13000.00000" pt_clust_6="13000.00000" pt_clust_7="13000.00000" pt_clust_8="13000.00000" pt_clust_9="142.52010"></scales>
<clustering>
<clus scale="   79.571">  5  6 -1 -1</clus>
<clus scale="   92.752">  7  8 -1 -1</clus>
<clus scale="  118.530">  2  5  1 -1</clus>
<clus scale="  142.520">  1  9  2 -1</clus>
<clus scale="  142.520">  1  5  2 -1</clus>
</clustering>
</event>
<event>
 9    1  0.2951046E-005  0.1940177E+03  0.7546771E-02  0.1155763E+00
          1   -1    0    0  502    0  0.00000000000E+00  0.00000000000E+00  0.61109395732E+03  0.61109395732E+03  0.00000000000E+00 0. -1.
         -2   -1    0    0    0  501 -0.00000000000E+00 -0.00000000000E+00 -0.12246656724E+03  0.12246656724E+03  0.00000000000E+00 0.  1.
         23    2    1    2    0    0 -0.11760187401E+03  0.11913205121E+03  0.89493018822E+02  0.21006009923E+03  0.89964428938E+02 0.  0.
        -24    2    1    2    0    0  0.58907783652E+02 -0.17852713258E+03  0.13196583287E+03  0.24358651029E+03  0.81100819395E+02 0.  0.
         13    1    4    4    0    0  0.45933945091E+02 -0.17973558934E+03  0.13591266659E+03  0.22997187291E+03  0.00000000000E+00 0. -1.
        -14    1    4    4    0    0  0.12973838561E+02  0.12084567580E+01 -0.39468337187E+01  0.13614637386E+02  0.00000000000E+00 0.  1.
        -13    1    3    3    0    0 -0.62262068292E+02  0.10022946860E+03  0.94774460136E+02  0.15134302038E+03  0.00000000000E+00 0.  1.
         13    1    3    3    0    0 -0.55339805720E+02  0.18902582613E+02 -0.52814413134E+01  0.58717078852E+02  0.00000000000E+00 0. -1.
         21    1    1    2  502  501  0.58694090359E+02  0.59395081375E+02  0.26716853838E+03  0.27991391504E+03  0.00000000000E+00 0.  1.
<scales pt_clust_5="13000.00000" pt_clust_6="13000.00000" pt_clust_7="13000.00000" pt_clust_8="13000.00000" pt_clust_9="83.50313"></scales>
<clustering>
<clus scale="   81.101">  5  6 -1 -1</clus>
<clus scale="   83.503">  1  9  2 -1</clus>
<clus scale="   89.964">  7  8 -1 -1</clus>
<clus scale="  190.070">  1  5  2 -1</clus>
<clus scale="   83.503">  1  5  2 -1</clus>
</clustering>
</event>
<event>
 9    1  0.2951046E-005  0.9459773E+02  0.7546771E-02  0.1303020E+00
         -2   -1    0    0    0  501 -0.00000000000E+00  0.00000000000E+00  0.15183082223E+03  0.15183082223E+03  0.00000000000E+00 0.  1.
          1   -1    0    0  502    0  0.00000000000E+00 -0.00000000000E+00 -0.17571226465E+03  0.17571226465E+03  0.00000000000E+00 0. -1.
        -24    2    1    2    0    0  0.26366771713E+02 -0.24955623712E+02  0.90215495195E+02  0.11738603732E+03  0.65746911560E+02 0.  0.
         23    2    1    2    0    0 -0.24386232832E+02  0.60586184814E+02 -0.19830325317E+02  0.10936194247E+03  0.85448338297E+02 0.  0.
         11    1    3    3    0    0 -0.15923028769E+02 -0.23168218102E+02  0.57093808089E+02  0.63639705352E+02  0.00000000000E+00 0. -1.
        -12    1    3    3    0    0  0.42289800482E+02 -0.17874056102E+01  0.33121687106E+02  0.53746331971E+02  0.00000000000E+00 0.  1.
        -13    1    4    4    0    0  0.15298008695E+02  0.52405625773E+02  0.14243773975E+02  0.56420419883E+02  0.00000000000E+00 0.  1.
         13    1    4    4    0    0 -0.39684241527E+02  0.81805590407E+01 -0.34074099293E+02  0.52941522592E+02  0.00000000000E+00 0. -1.
         21    1    1    2  502  501 -0.19805388815E+01 -0.35630561102E+02 -0.94266612299E+02  0.10079510709E+03  0.00000000000E+00 0. -1.
<scales pt_clust_5="13000.00000" pt_clust_6="13000.00000" pt_clust_7="13000.00000" pt_clust_8="13000.00000" pt_clust_9="35.68556"></scales>
<clustering>
<clus scale="   35.686">  2  9  1 -1</clus>
<clus scale="   65.747">  5  6 -1 -1</clus>
<clus scale="   77.266">  1  5  2 -1</clus>
<clus scale="   85.448">  7  8 -1 -1</clus>
<clus scale="   35.686">  2  5  1 -1</clus>
</clustering>
</event>
<event>
 9    1  0.2951046E-005  0.1393009E+03  0.7546771E-02  0.1217985E+00
         -2   -1    0    0    0  501 -0.00000000000E+00  0.00000000000E+00  0.84637829941E+02  0.84637829941E+02  0.00000000000E+00 0.  1.
          1   -1    0    0  502    0  0.00000000000E+00 -0.00000000000E+00 -0.39667883878E+03  0.39667883878E+03  0.00000000000E+00 0. -1.
        -24    2    1    2    0    0 -0.88778527866E+02 -0.51889783248E+02 -0.47961292689E+01  0.12616452935E+03  0.72940448280E+02 0.  0.
         23    2    1    2    0    0  0.11270702579E+03  0.43171182126E+02 -0.24157299789E+03  0.28471505352E+03  0.90213767049E+02 0.  0.
         11    1    3    3    0    0 -0.10963908837E+02 -0.45762204147E+02  0.57206657086E+01  0.47403719702E+02  0.00000000000E+00 0. -1.
        -12    1    3    3    0    0 -0.77814619029E+02 -0.61275791006E+01 -0.10516794977E+02  0.78760809651E+02  0.00000000000E+00 0.  1.
        -13    1    4    4    0    0  0.14977790110E+02  0.33227747675E+02 -0.18292029061E+02  0.40780089987E+02  0.00000000000E+00 0.  1.
         13    1    4    4    0    0  0.97729235684E+02  0.99434344514E+01 -0.22328096883E+03  0.24393496354E+03  0.00000000000E+00 0. -1.
         21    1    1    2  502  501 -0.23928497929E+02  0.87186011217E+01 -0.65671881687E+02  0.70437085849E+02  0.00000000000E+00 0.  1.
<scales pt_clust_5="13000.00000" pt_clust_6="13000.00000" pt_clust_7="13000.00000" pt_clust_8="13000.00000" pt_clust_9="25.46737"></scales>
<clustering>
<clus scale="   25.467">  2  9  1 -1</clus>
<clus scale="   72.940">  5  6 -1 -1</clus>
<clus scale="   90.214">  7  8 -1 -1</clus>
<clus scale="  128.789">  1  5  2 -1</clus>
<clus scale="   25.467">  2  5  1 -1</clus>
</clustering>
</event>
<event>
 9    1  0.2951046E-005  0.9942472E+02  0.7546771E-02  0.1285322E+00
          1   -1    0    0  502    0  0.00000000000E+00  0.00000000000E+00  0.29077244864E+03  0.29077244864E+03  0.00000000000E+00 0. -1.
         -2   -1    0    0    0  501 -0.00000000000E+00 -0.00000000000E+00 -0.16487348591E+03  0.16487348591E+03  0.00000000000E+00 0.  1.
         23    2    1    2    0    0 -0.31098402964E+02  0.39481317072E+02 -0.13211640860E+03  0.16626445043E+03  0.87539916551E+02 0.  0.
        -24    2    1    2    0    0  0.13054641955E+02 -0.21985593830E+02  0.10451102100E+03  0.13383321762E+03  0.79592629155E+02 0.  0.
         13    1    4    4    0    0 -0.11643258586E+02 -0.42527545791E+02  0.31865443079E+02  0.54401875740E+02  0.00000000000E+00 0. -1.
        -14    1    4    4    0    0  0.24697900541E+02  0.20541951960E+02  0.72645577923E+02  0.79431341882E+02  0.00000000000E+00 0.  1.
        -11    1    3    3    0    0 -0.58073738073E+02  0.18044554543E+02 -0.10886056222E+03  0.12469477539E+03  0.00000000000E+00 0.  1.
         11    1    3    3    0    0  0.26975335109E+02  0.21436762528E+02 -0.23255846380E+02  0.41569675038E+02  0.00000000000E+00 0. -1.
         21    1    1    2  502  501  0.18043761009E+02 -0.17495723242E+02  0.15350435033E+03  0.15554826650E+03  0.00000000000E+00 0. -1.
<scales pt_clust_5="13000.00000" pt_clust_6="13000.00000" pt_clust_7="13000.00000" pt_clust_8="13000.00000" pt_clust_9="25.13320"></scales>
<clustering>
<clus scale="   25.133">  1  9  2 -1</clus>
<clus scale="   79.593">  5  6 -1 -1</clus>
<clus scale="   87.540">  7  8 -1 -1</clus>
<clus scale="   92.504">  1  5  2 -1</clus>
<clus scale="   25.133">  1  5  2 -1</clus>
</clustering>
</event>
<event>
 9    1  0.2951046E-005  0.2923572E+03  0.7546771E-02  0.1089125E+00
         -2   -1    0    0    0  501 -0.00000000000E+00  0.00000000000E+00  0.81656069120E+02  0.81656069120E+02  0.00000000000E+00 0.  1.
          1   -1    0    0  502    0  0.00000000000E+00 -0.00000000000E+00 -0.95132467243E+03  0.95132467243E+03  0.00000000000E+00 0. -1.
        -24    2    1    2    0    0 -0.33152380665E+02 -0.12383629570E+03 -0.11030279569E+03  0.18836821006E+03  0.82954007431E+02 0.  0.
         23    2    1    2    0    0 -0.52286377317E+02 -0.81543338835E+02 -0.17837219361E+03  0.22249183968E+03  0.91119690021E+02 0.  0.
         13    1    3    3    0    0 -0.27868387497E+02 -0.10528472780E+03 -0.12375303758E+03  0.16485246507E+03  0.00000000000E+00 0. -1.
        -14    1    3    3    0    0 -0.52839931681E+01 -0.18551567904E+02  0.13450241895E+02  0.23515744992E+02  0.00000000000E+00 0.  1.
        -11    1    4    4    0    0 -0.43092002309E+02 -0.39938237459E+02 -0.25955497364E+02  0.64231388882E+02  0.00000000000E+00 0.  1.
         11    1    4    4    0    0 -0.91943750085E+01 -0.41605101376E+02 -0.15241669624E+03  0.15826045080E+03  0.00000000000E+00 0. -1.
         21    1    1    2  502  501  0.85438757983E+02  0.20537963454E+03 -0.58099361402E+03  0.62212069181E+03  0.00000000000E+00 0.  1.
<scales pt_clust_5="13000.00000" pt_clust_6="13000.00000" pt_clust_7="13000.00000" pt_clust_8="13000.00000" pt_clust_9="222.44230"></scales>
<clustering>
<clus scale="   82.954">  5  6 -1 -1</clus>
<clus scale="   91.120">  7  8 -1 -1</clus>
<clus scale="  106.770">  5  7 -1 -1</clus>
<clus scale="  222.442">  2  9  1 -1</clus>
<clus scale="  222.442">  2  5  1 -1</clus>
</clustering>
</event>
<event>
 9    1  0.2951046E-005  0.1148876E+03  0.7546771E-02  0.1256985E+00
          1   -1    0    0  502    0  0.00000000000E+00  0.00000000000E+00  0.64241666847E+02  0.64241666847E+02  0.00000000000E+00 0. -1.
         -2   -1    0    0    0  501 -0.00000000000E+00 -0.00000000000E+00 -0.70965896730E+03  0.70965896730E+03  0.00000000000E+00 0.  1.
        -24    2    1    2    0    0  0.56816111729E+02 -0.32659341368E+02 -0.57360864322E+03  0.58267750660E+03  0.78686072359E+02 0.  0.
         23    2    1    2    0    0 -0.57138233602E+02  0.60762097142E+02 -0.93220690995E+02  0.15589121797E+03  0.93033136159E+02 0.  0.
         11    1    3    3    0    0  0.87520465195E+01  0.18992545871E+02 -0.48041665478E+02  0.52395770238E+02  0.00000000000E+00 0. -1.
        -12    1    3    3    0    0  0.48064065210E+02 -0.51651887239E+02 -0.52556697774E+03  0.53028173636E+03  0.00000000000E+00 0.  1.
        -13    1    4    4    0    0 -0.23512774476E+02 -0.17021990786E+02 -0.56532036843E+02  0.63548956903E+02  0.00000000000E+00 0.  1.
         13    1    4    4    0    0 -0.33625459126E+02  0.77784087928E+02 -0.36688654152E+02  0.92342261071E+02  0.00000000000E+00 0. -1.
         21    1    1    2  502  501  0.32212187276E+00 -0.28102755775E+02  0.21412033763E+02  0.35331909579E+02  0.00000000000E+00 0. -1.
<scales pt_clust_5="13000.00000" pt_clust_6="13000.00000" pt_clust_7="13000.00000" pt_clust_8="13000.00000" pt_clust_9="28.10460"></scales>
<clustering>
<clus scale="   28.105">  1  9  2 -1</clus>
<clus scale="   78.686">  5  6 -1 -1</clus>
<clus scale="   93.033">  7  8 -1 -1</clus>
<clus scale="  103.612">  2  5  1 -1</clus>
<clus scale="   28.105">  1  5  2 -1</clus>
</clustering>
</event>
<event>
 9    1  0.2951046E-005  0.1007987E+03  0.7546771E-02  0.1285030E+00
         -2   -1    0    0    0  501 -0.00000000000E+00  0.00000000000E+00  0.68956746823E+02  0.68956746823E+02  0.00000000000E+00 0.  1.
          1   -1    0    0  502    0  0.00000000000E+00 -0.00000000000E+00 -0.24477463240E+03  0.24477463240E+03  0.00000000000E+00 0. -1.
        -24    2    1    2    0    0  0.37291328417E+02  0.29602412821E+02  0.10966175908E+02  0.91797455504E+02  0.77714669163E+02 0.  0.
         23    2    1    2    0    0 -0.30636615353E+02 -0.96807126553E+01 -0.13283653368E+03  0.16404182495E+03  0.90729583130E+02 0.  0.
         13    1    3    3    0    0  0.97382877971E+01  0.53503277646E+02  0.30142636072E+01  0.54465775981E+02  0.00000000000E+00 0. -1.
        -14    1    3    3    0    0  0.27553040620E+02 -0.23900864825E+02  0.79519123012E+01  0.37331679524E+02  0.00000000000E+00 0.  1.
        -11    1    4    4    0    0  0.15380840061E+02 -0.38520288752E+02 -0.49623474082E+02  0.64675127108E+02  0.00000000000E+00 0.  1.
         11    1    4    4    0    0 -0.46017455414E+02  0.28839576097E+02 -0.83213059595E+02  0.99366697839E+02  0.00000000000E+00 0. -1.
         21    1    1    2  502  501 -0.66547130642E+01 -0.19921700165E+02 -0.53947527808E+02  0.57892098770E+02  0.00000000000E+00 0.  1.
<scales pt_clust_5="13000.00000" pt_clust_6="13000.00000" pt_clust_7="13000.00000" pt_clust_8="13000.00000" pt_clust_9="21.00379"></scales>
<clustering>
<clus scale="   21.004">  2  9  1 -1</clus>
<clus scale="   77.715">  5  6 -1 -1</clus>
<clus scale="   89.264">  1  5  2 -1</clus>
<clus scale="   90.730">  7  8 -1 -1</clus>
<clus scale="   21.004">  2  5  1 -1</clus>
</clustering>
</event>
<event>
 9    1  0.2951046E-005  0.2194883E+03  0.7546771E-02  0.1135137E+00
         -2   -1    0    0    0  501 -0.00000000000E+00  0.00000000000E+00  0.40106402591E+02  0.40106402591E+02  0.00000000000E+00 0.  1.
          1   -1    0    0  502    0  0.00000000000E+00 -0.00000000000E+00 -0.14609997816E+04  0.14609997816E+04  0.00000000000E+00 0. -1.
        -24    2    1    2    0    0 -0.14963829624E+03 -0.14778638161E+03 -0.50188820642E+03  0.55014247744E+03  0.80824126657E+02 0.  0.
         23    2    1    2    0    0  0.14762146467E+03  0.10963808768E+03 -0.75241269379E+03  0.78004731219E+03  0.92392317701E+02 0.  0.
         11    1    3    3    0    0 -0.11822281620E+03 -0.15299176889E+03 -0.42446961196E+03  0.46643066697E+03  0.00000000000E+00 0. -1.
        -12    1    3    3    0    0 -0.31415480034E+02  0.52053872845E+01 -0.77418594467E+02  0.83711810468E+02  0.00000000000E+00 0.  1.
        -11    1    4    4    0    0  0.76308521839E+02  0.10721978443E+03 -0.54649584599E+03  0.56211812136E+03  0.00000000000E+00 0. -1.
         11    1    4    4    0    0  0.71312942829E+02  0.24183032522E+01 -0.20591684781E+03  0.21792919083E+03  0.00000000000E+00 0.  1.
         21    1    1    2  502  501  0.20168315685E+01  0.38148293929E+02 -0.16659247877E+03  0.17091639454E+03  0.00000000000E+00 0.  1.
<scales pt_clust_5="13000.00000" pt_clust_6="13000.00000" pt_clust_7="13000.00000" pt_clust_8="13000.00000" pt_clust_9="38.20157"></scales>
<clustering>
<clus scale="   38.202">  2  9  1 -1</clus>
<clus scale="   80.824">  5  6 -1 -1</clus>
<clus scale="   92.392">  7  8 -1 -1</clus>
<clus scale="  214.875">  1  5  2 -1</clus>
<clus scale="   38.202">  2  5  1 -1</clus>
</clustering>
</event>
<event>
 9    1  0.2951046E-005  0.1639590E+03  0.7546771E-02  0.1186416E+00
          1   -1    0    0  502    0  0.00000000000E+00  0.00000000000E+00  0.26247769061E+03  0.26247769061E+03  0.00000000000E+00 0. -1.
         -2   -1    0    0    0  501 -0.00000000000E+00 -0.00000000000E+00 -0.20653093319E+03  0.20653093319E+03  0.00000000000E+00 0.  1.
        -24    2    1    2    0    0  0.76206469920E+02  0.11731049769E+03 -0.12939283977E+03  0.20676207031E+03  0.80242556084E+02 0.  0.
         23    2    1    2    0    0 -0.39254989498E+02 -0.10200527838E+03  0.15718263650E+03  0.21333360961E+03  0.94121287463E+02 0.  0.
         11    1    3    3    0    0 -0.90367266394E+01  0.53418000008E+02 -0.35603480418E+02  0.64828643138E+02  0.00000000000E+00 0. -1.
        -12    1    3    3    0    0  0.85243196560E+02  0.63892497685E+02 -0.93789359351E+02  0.14193342717E+03  0.00000000000E+00 0.  1.
        -11    1    4    4    0    0 -0.28320052764E+02 -0.70974936787E+02  0.16290638152E+03  0.17993875675E+03  0.00000000000E+00 0. -1.
         11    1    4    4    0    0 -0.10934936734E+02 -0.31030341595E+02 -0.57237450144E+01  0.33394852865E+02  0.00000000000E+00 0.  1.
         21    1    1    2  502  501 -0.36951480422E+02 -0.15305219311E+02  0.28156960693E+02  0.48912943880E+02  0.00000000000E+00 0. -1.
<scales pt_clust_5="13000.00000" pt_clust_6="13000.00000" pt_clust_7="13000.00000" pt_clust_8="13000.00000" pt_clust_9="39.99577"></scales>
<clustering>
<clus scale="   39.996">  1  9  2 -1</clus>
<clus scale="   80.243">  5  6 -1 -1</clus>
<clus scale="   94.121">  7  8 -1 -1</clus>
<clus scale="  156.405">  2  5  1 -1</clus>
<clus scale="   39.996">  1  5  2 -1</clus>
</clustering>
</event>
<event>
 9    1  0.2951046E-005  0.1006572E+03  0.7546771E-02  0.1284192E+00
         -2   -1    0    0    0  501 -0.00000000000E+00  0.00000000000E+00  0.13118583566E+03  0.13118583566E+03  0.00000000000E+00 0.  1.
          1   -1    0    0  502    0  0.00000000000E+00 -0.00000000000E+00 -0.10441663617E+03  0.10441663617E+03  0.00000000000E+00 0. -1.
         23    2    1    2    0    0  0.59966657591E+02  0.20262723806E+02  0.46681809067E+02  0.11779596960E+03  0.87693335880E+02 0.  0.
        -24    2    1    2    0    0 -0.26693556101E+02 -0.14543653448E+02 -0.15389767794E+02  0.83743866596E+02  0.76499192458E+02 0.  0.
         13    1    4    4    0    0 -0.48711319877E+02 -0.14920771177E+02 -0.28238951386E+02  0.58248265829E+02  0.00000000000E+00 0. -1.
        -14    1    4    4    0    0  0.22017763776E+02  0.37711772971E+00  0.12849183592E+02  0.25495600767E+02  0.00000000000E+00 0.  1.
        -13    1    3    3    0    0  0.32949494997E+02  0.25891572349E+02  0.70054378004E+02  0.81631235546E+02  0.00000000000E+00 0.  1.
         13    1    3    3    0    0  0.27017162594E+02 -0.56288485421E+01 -0.23372568937E+02  0.36164734055E+02  0.00000000000E+00 0. -1.
         21    1    1    2  502  501 -0.33273101490E+02 -0.57190703588E+01 -0.45228417765E+01  0.34062635633E+02  0.00000000000E+00 0. -1.
<scales pt_clust_5="13000.00000" pt_clust_6="13000.00000" pt_clust_7="13000.00000" pt_clust_8="13000.00000" pt_clust_9="33.76103"></scales>
<clustering>
<clus scale="   33.761">  2  9  1 -1</clus>
<clus scale="   76.499">  5  6 -1 -1</clus>
<clus scale="   87.693">  7  8 -1 -1</clus>
<clus scale="   91.071">  2  5  1 -1</clus>
<clus scale="   33.761">  2  5  1 -1</clus>
</clustering>
</event>
<event>
 9    1  0.2951046E-005  0.9623446E+02  0.7546771E-02  0.1294510E+00
         -2   -1    0    0    0  501 -0.00000000000E+00  0.00000000000E+00  0.23228549681E+03  0.23228549681E+03  0.00000000000E+00 0.  1.
          1   -1    0    0  502    0  0.00000000000E+00 -0.00000000000E+00 -0.66125047567E+02  0.66125047567E+02  0.00000000000E+00 0. -1.
        -24    2    1    2    0    0 -0.15033701287E+01 -0.30584596074E+02  0.15069400165E+03  0.17379677102E+03  0.80987393136E+02 0.  0.
         23    2    1    2    0    0 -0.20543414044E+02  0.19643978657E+02  0.12602027927E+01  0.96195905853E+02  0.91892036835E+02 0.  0.
         13    1    3    3    0    0  0.38657137550E+02 -0.14937896315E+02  0.92683852180E+02  0.10152739278E+03  0.00000000000E+00 0. -1.
        -14    1    3    3    0    0 -0.40160507679E+02 -0.15646699759E+02  0.58010149465E+02  0.72269378241E+02  0.00000000000E+00 0.  1.
        -11    1    4    4    0    0  0.71649822689E+00  0.51870925456E+02  0.16872723967E+02  0.54550848677E+02  0.00000000000E+00 0. -1.
         11    1    4    4    0    0 -0.21259912271E+02 -0.32226946799E+02 -0.15612521174E+02  0.41645057176E+02  0.00000000000E+00 0.  1.
         21    1    1    2  502  501  0.22046784173E+02  0.10940617417E+02  0.14206244802E+02  0.28417867499E+02  0.00000000000E+00 0. -1.
<scales pt_clust_5="13000.00000" pt_clust_6="13000.00000" pt_clust_7="13000.00000" pt_clust_8="13000.00000" pt_clust_9="24.61215"></scales>
<clustering>
<clus scale="   24.612">  2  9  1 -1</clus>
<clus scale="   80.987">  5  6 -1 -1</clus>
<clus scale="   85.883">  1  5  2 -1</clus>
<clus scale="   91.892">  7  8 -1 -1</clus>
<clus scale="   24.612">  2  5  1 -1</clus>
</clustering>
</event>
<event>
 9    1  0.2951046E-005  0.1391280E+03  0.7546771E-02  0.1235519E+00
         -2   -1    0    0    0  501 -0.00000000000E+00  0.00000000000E+00  0.28623731482E+03  0.28623731482E+03  0.00000000000E+00 0.  1.
          1   -1    0    0  502    0  0.00000000000E+00 -0.00000000000E+00 -0.31924414147E+03  0.31924414147E+03  0.00000000000E+00 0. -1.
        -24    2    1    2    0    0 -0.34859288030E+02  0.16893558999E+02  0.21674928268E+03  0.23462495223E+03  0.81043533793E+02 0.  0.
         23    2    1    2    0    0 -0.35579327282E+02  0.70285659597E+02 -0.31008124459E+02  0.12506696896E+03  0.92055855146E+02 0.  0.
         11    1    3    3    0    0 -0.55573970054E+02 -0.93231226497E+01  0.14024855355E+03  0.15114576916E+03  0.00000000000E+00 0. -1.
        -12    1    3    3    0    0  0.20714682024E+02  0.26216681649E+02  0.76500729127E+02  0.83479183064E+02  0.00000000000E+00 0.  1.
        -11    1    4    4    0    0 -0.59187746493E+01  0.37675038251E+02 -0.60864707325E+02  0.71825851880E+02  0.00000000000E+00 0. -1.
         11    1    4    4    0    0 -0.29660552633E+02  0.32610621346E+02  0.29856582866E+02  0.53241117076E+02  0.00000000000E+00 0.  1.
         21    1    1    2  502  501  0.70438615312E+02 -0.87179218597E+02 -0.21874798487E+03  0.24578953510E+03  0.00000000000E+00 0. -1.
<scales pt_clust_5="13000.00000" pt_clust_6="13000.00000" pt_clust_7="13000.00000" pt_clust_8="13000.00000" pt_clust_9="104.31831"></scales>
<clustering>
<clus scale="   81.044">  5  6 -1 -1</clus>
<clus scale="   89.825">  1  5  2 -1</clus>
<clus scale="   92.056">  7  8 -1 -1</clus>
<clus scale="  104.318">  2  9  1 -1</clus>
<clus scale="  104.318">  2  5  1 -1</clus>
</clustering>
</event>
<event>
 9    1  0.2951046E-005  0.1064148E+03  0.7546771E-02  0.1272009E+00
         -2   -1    0    0    0  501 -0.00000000000E+00  0.00000000000E+00  0.97408874328E+03  0.97408874328E+03  0.00000000000E+00 0.  1.
          1   -1    0    0  502    0  0.00000000000E+00 -0.00000000000E+00 -0.20602322494E+02  0.20602322494E+02  0.00000000000E+00 0. -1.
         23    2    1    2    0    0  0.51394556420E+02 -0.22610467548E+02  0.54195816159E+03  0.55245010223E+03  0.91267918087E+02 0.  0.
        -24    2    1    2    0    0 -0.23816922292E+02  0.58091589922E+02  0.35850822686E+03  0.37273873496E+03  0.80399858242E+02 0.  0.
         13    1    4    4    0    0 -0.33312870049E+02  0.68293096872E+02  0.20551647958E+03  0.21911348149E+03  0.00000000000E+00 0. -1.
        -14    1    4    4    0    0  0.94959477575E+01 -0.10201506950E+02  0.15299174728E+03  0.15362525347E+03  0.00000000000E+00 0.  1.
        -13    1    3    3    0    0  0.31923018042E+02 -0.57046717157E+02  0.38924380313E+03  0.39469500287E+03  0.00000000000E+00 0.  1.
         13    1    3    3    0    0  0.19471538377E+02  0.34436249609E+02  0.15271435846E+03  0.15775509936E+03  0.00000000000E+00 0. -1.
         21    1    1    2  502  501 -0.27577634128E+02 -0.35481122375E+02  0.53020032343E+02  0.69502228588E+02  0.00000000000E+00 0.  1.
<scales pt_clust_5="13000.00000" pt_clust_6="13000.00000" pt_clust_7="13000.00000" pt_clust_8="13000.00000" pt_clust_9="44.93813"></scales>
<clustering>
<clus scale="   44.938">  2  9  1 -1</clus>
<clus scale="   80.400">  5  6 -1 -1</clus>
<clus scale="   91.268">  7  8 -1 -1</clus>
<clus scale="   97.254">  2  5  1 -1</clus>
<clus scale="   44.938">  2  5  1 -1</clus>
</clustering>
</event>
<event>
 9    1  0.2951046E-005  0.1189413E+03  0.7546771E-02  0.1248371E+00
         -2   -1    0    0    0  501 -0.00000000000E+00  0.00000000000E+00  0.21240155427E+03  0.21240155427E+03  0.00000000000E+00 0.  1.
          1   -1    0    0  502    0  0.00000000000E+00 -0.00000000000E+00 -0.12553033272E+03  0.12553033272E+03  0.00000000000E+00 0. -1.
        -24    2    1    2    0    0 -0.20712825118E+02 -0.63442920162E+02  0.13436724598E+03  0.17016634940E+03  0.80299467195E+02 0.  0.
         23    2    1    2    0    0  0.47078684798E+02  0.63895201335E+02 -0.63881398630E+02  0.13671970690E+03  0.91172615675E+02 0.  0.
         13    1    3    3    0    0  0.25500348691E+02  0.40741174338E+00  0.35937761179E+02  0.44067634906E+02  0.00000000000E+00 0. -1.
        -14    1    3    3    0    0 -0.46213173809E+02 -0.63850331906E+02  0.98429484805E+02  0.12609871449E+03  0.00000000000E+00 0.  1.
        -11    1    4    4    0    0  0.37972165719E+01  0.73590533702E+02 -0.25231128548E+02  0.77888351838E+02  0.00000000000E+00 0.  1.
         11    1    4    4    0    0  0.43281468226E+02 -0.96953323670E+01 -0.38650270081E+02  0.58831355065E+02  0.00000000000E+00 0. -1.
         21    1    1    2  502  501 -0.26365859679E+02 -0.45228117257E+00  0.16385374195E+02  0.31045830677E+02  0.00000000000E+00 0.  1.
<scales pt_clust_5="13000.00000" pt_clust_6="13000.00000" pt_clust_7="13000.00000" pt_clust_8="13000.00000" pt_clust_9="26.36974"></scales>
<clustering>
<clus scale="   26.370">  1  9  2 -1</clus>
<clus scale="   80.299">  5  6 -1 -1</clus>
<clus scale="   91.173">  7  8 -1 -1</clus>
<clus scale="  110.827">  1  5  2 -1</clus>
<clus scale="  118.941">  2  5  1 -1</clus>
</clustering>
</event>
<event>
 9    1  0.2951046E-005  0.1093170E+03  0.7546771E-02  0.1266794E+00
         -4   -1    0    0    0  501 -0.00000000000E+00  0.00000000000E+00  0.23166902615E+03  0.23166902615E+03  0.00000000000E+00 0.  1.
          3   -1    0    0  502    0  0.00000000000E+00 -0.00000000000E+00 -0.49041264649E+03  0.49041264649E+03  0.00000000000E+00 0. -1.
        -24    2    1    2    0    0  0.83231103921E+01  0.60004173688E+02  0.19429283453E+03  0.21874191188E+03  0.80178198023E+02 0.  0.
         23    2    1    2    0    0 -0.81190059719E+02 -0.70617369968E+01 -0.20150908681E+03  0.23617219015E+03  0.92356360932E+02 0.  0.
         13    1    3    3    0    0  0.73572814948E+01  0.72840706665E+02  0.10199269110E+03  0.12554842562E+03  0.00000000000E+00 0. -1.
        -14    1    3    3    0    0  0.96582889725E+00 -0.12836532977E+02  0.92300143429E+02  0.93193486260E+02  0.00000000000E+00 0.  1.
        -13    1    4    4    0    0  0.72049788013E+01  0.20347367644E+02 -0.10674035643E+02  0.24080326544E+02  0.00000000000E+00 0.  1.
         13    1    4    4    0    0 -0.88395038520E+02 -0.27409104641E+02 -0.19083505117E+03  0.21209186360E+03  0.00000000000E+00 0. -1.
         21    1    1    2  502  501  0.72866949327E+02 -0.52942436691E+02 -0.25152736806E+03  0.26716757062E+03  0.00000000000E+00 0. -1.
<scales pt_clust_5="13000.00000" pt_clust_6="13000.00000" pt_clust_7="13000.00000" pt_clust_8="13000.00000" pt_clust_9="90.06938"></scales>
<clustering>
<clus scale="   80.178">  5  6 -1 -1</clus>
<clus scale="   90.069">  2  9  1 -1</clus>
<clus scale="   92.356">  7  8 -1 -1</clus>
<clus scale="   99.242">  1  5  2 -1</clus>
<clus scale="   90.069">  2  5  1 -1</clus>
</clustering>
</event>
<event>
 9    1  0.2951046E-005  0.1030242E+03  0.7546771E-02  0.1274808E+00
          3   -1    0    0  502    0  0.00000000000E+00  0.00000000000E+00  0.40527761905E+02  0.40527761905E+02  0.00000000000E+00 0. -1.
         -4   -1    0    0    0  501 -0.00000000000E+00 -0.00000000000E+00 -0.36245016261E+03  0.36245016261E+03  0.00000000000E+00 0.  1.
        -24    2    1    2    0    0 -0.42518836316E+02 -0.33374392113E+02 -0.17475216471E+03  0.20007022787E+03  0.81043664278E+02 0.  0.
         23    2    1    2    0    0  0.66262984532E+02  0.30891939966E+02 -0.13920974752E+03  0.17774191591E+03  0.82871827500E+02 0.  0.
         13    1    3    3    0    0 -0.62997202514E+02 -0.34097312317E+02 -0.15843450752E+03  0.17387572402E+03  0.00000000000E+00 0. -1.
        -14    1    3    3    0    0  0.20478366198E+02  0.72292020401E+00 -0.16317657194E+02  0.26194503852E+02  0.00000000000E+00 0.  1.
        -13    1    4    4    0    0  0.11209189037E+02  0.49092677053E+02 -0.47406580532E+02  0.69160109433E+02  0.00000000000E+00 0. -1.
         13    1    4    4    0    0  0.55053795495E+02 -0.18200737087E+02 -0.91803166985E+02  0.10858180648E+03  0.00000000000E+00 0.  1.
         21    1    1    2  502  501 -0.23744148215E+02  0.24824521475E+01 -0.79604884782E+01  0.25165780734E+02  0.00000000000E+00 0. -1.
<scales pt_clust_5="13000.00000" pt_clust_6="13000.00000" pt_clust_7="13000.00000" pt_clust_8="13000.00000" pt_clust_9="23.87357"></scales>
<clustering>
<clus scale="   23.874">  1  9  2 -1</clus>
<clus scale="   81.044">  5  6 -1 -1</clus>
<clus scale="   82.872">  7  8 -1 -1</clus>
<clus scale="  101.559">  2  5  1 -1</clus>
<clus scale="   23.874">  1  5  2 -1</clus>
</clustering>
</event>
<event>
 9    1  0.2951046E-005  0.9728435E+02  0.7546771E-02  0.1291685E+00
          1   -1    0    0  502    0  0.00000000000E+00  0.00000000000E+00  0.11892322711E+03  0.11892322711E+03  0.00000000000E+00 0. -1.
         -2   -1    0    0    0  501 -0.00000000000E+00 -0.00000000000E+00 -0.35947328727E+03  0.35947328727E+03  0.00000000000E+00 0.  1.
        -24    2    1    2    0    0 -0.14143872908E+02 -0.37302321022E+02 -0.32374125344E+03  0.33552271560E+03  0.78584866292E+02 0.  0.
         23    2    1    2    0    0 -0.92864635716E+00  0.21456211135E+02  0.77885996339E+02  0.12036990688E+03  0.89226984021E+02 0.  0.
         13    1    3    3    0    0  0.12483910327E+02  0.16343647476E+02 -0.34657561856E+02  0.40300240988E+02  0.00000000000E+00 0. -1.
        -14    1    3    3    0    0 -0.26627783235E+02 -0.53645968498E+02 -0.28908369159E+03  0.29522247462E+03  0.00000000000E+00 0.  1.
        -13    1    4    4    0    0 -0.14734473527E+01  0.51563906337E+02  0.73712178750E+02  0.89969399131E+02  0.00000000000E+00 0. -1.
         13    1    4    4    0    0  0.54480099557E+00 -0.30107695201E+02  0.41738175884E+01  0.30400507754E+02  0.00000000000E+00 0.  1.
         21    1    1    2  502  501  0.15072519265E+02  0.15846109886E+02  0.53051969505E+01  0.22503891890E+02  0.00000000000E+00 0. -1.
<scales pt_clust_5="13000.00000" pt_clust_6="13000.00000" pt_clust_7="13000.00000" pt_clust_8="13000.00000" pt_clust_9="21.86961"></scales>
<clustering>
<clus scale="   21.870">  1  9  2 -1</clus>
<clus scale="   78.585">  5  6 -1 -1</clus>
<clus scale="   87.626">  2  5  1 -1</clus>
<clus scale="   89.227">  7  8 -1 -1</clus>
<clus scale="   21.870">  1  5  2 -1</clus>
</clustering>
</event>
<event>
 9    1  0.2951046E-005  0.1703415E+03  0.7546771E-02  0.1179135E+00
         -2   -1    0    0    0  501 -0.00000000000E+00  0.00000000000E+00  0.18846120118E+04  0.18846120118E+04  0.00000000000E+00 0.  1.
          1   -1    0    0  502    0  0.00000000000E+00 -0.00000000000E+00 -0.53627917925E+02  0.53627917925E+02  0.00000000000E+00 0. -1.
        -24    2    1    2    0    0  0.11173658590E+03  0.92004605331E+02  0.16869284628E+04  0.16950355358E+04  0.80423360749E+02 0.  0.
         23    2    1    2    0    0 -0.11650495157E+03 -0.56267067036E+02  0.10794423434E+03  0.19217555966E+03  0.92412669214E+02 0.  0.
         11    1    3    3    0    0  0.32281742904E+02  0.40473362629E+02  0.26827143530E+03  0.27322109546E+03  0.00000000000E+00 0. -1.
        -12    1    3    3    0    0  0.79454842994E+02  0.51531242702E+02  0.14186570275E+04  0.14218144403E+04  0.00000000000E+00 0.  1.
        -13    1    4    4    0    0 -0.10451620424E+03 -0.30609284325E+02  0.35747835596E+02  0.11462317822E+03  0.00000000000E+00 0. -1.
         13    1    4    4    0    0 -0.11988747335E+02 -0.25657782711E+02  0.72196398744E+02  0.77552381446E+02  0.00000000000E+00 0.  1.
         21    1    1    2  502  501  0.47683656738E+01 -0.35737538295E+02  0.36111396791E+02  0.51028834327E+02  0.00000000000E+00 0. -1.
<scales pt_clust_5="13000.00000" pt_clust_6="13000.00000" pt_clust_7="13000.00000" pt_clust_8="13000.00000" pt_clust_9="36.05425"></scales>
<clustering>
<clus scale="   36.054">  2  9  1 -1</clus>
<clus scale="   80.423">  5  6 -1 -1</clus>
<clus scale="   92.413">  7  8 -1 -1</clus>
<clus scale="  164.146">  1  5  2 -1</clus>
<clus scale="   36.054">  2  5  1 -1</clus>
</clustering>
</event>
<event>
 9    1  0.2951046E-005  0.1108997E+03  0.7546771E-02  0.1262429E+00
          3   -1    0    0  502    0  0.00000000000E+00  0.00000000000E+00  0.82520837159E+02  0.82520837159E+02  0.00000000000E+00 0. -1.
         -4   -1    0    0    0  501 -0.00000000000E+00 -0.00000000000E+00 -0.52181030872E+03  0.52181030872E+03  0.00000000000E+00 0.  1.
         23    2    1    2    0    0  0.36408772715E+02  0.61754188526E+02 -0.45809790734E+03  0.47211400871E+03  0.88875002002E+02 0.  0.
        -24    2    1    2    0    0 -0.21369518808E+02 -0.28882354150E+02 -0.74817165572E+01  0.87519164471E+02  0.79453013485E+02 0.  0.
         11    1    4    4    0    0  0.28902550387E+02 -0.65749945849E+01 -0.12753001986E+02  0.32268049714E+02  0.00000000000E+00 0. -1.
        -12    1    4    4    0    0 -0.50272069195E+02 -0.22307359565E+02  0.52712854291E+01  0.55251114758E+02  0.00000000000E+00 0.  1.
        -13    1    3    3    0    0 -0.21390181248E+02  0.35522991207E+02 -0.97173704230E+02  0.10565108401E+03  0.00000000000E+00 0. -1.
         13    1    3    3    0    0  0.57798953963E+02  0.26231197319E+02 -0.36092420311E+03  0.36646292471E+03  0.00000000000E+00 0.  1.
         21    1    1    2  502  501 -0.15039253907E+02 -0.32871834376E+02  0.26290152337E+02  0.44697972697E+02  0.00000000000E+00 0. -1.
<scales pt_clust_5="13000.00000" pt_clust_6="13000.00000" pt_clust_7="13000.00000" pt_clust_8="13000.00000" pt_clust_9="36.14881"></scales>
<clustering>
<clus scale="   36.149">  1  9  2 -1</clus>
<clus scale="   79.453">  5  6 -1 -1</clus>
<clus scale="   88.875">  7  8 -1 -1</clus>
<clus scale="  103.502">  1  5  2 -1</clus>
<clus scale="   36.149">  1  5  2 -1</clus>
</clustering>
</event>
<event>
 9    1  0.2951046E-005  0.1414791E+03  0.7546771E-02  0.1213484E+00
         -2   -1    0    0    0  501 -0.00000000000E+00  0.00000000000E+00  0.91383176200E+02  0.91383176200E+02  0.00000000000E+00 0.  1.
          1   -1    0    0  502    0  0.00000000000E+00 -0.00000000000E+00 -0.39028667511E+03  0.39028667511E+03  0.00000000000E+00 0. -1.
        -24    2    1    2    0    0 -0.36044387100E+01  0.10935312090E+03 -0.18249641108E+01  0.13640356281E+03  0.81434049540E+02 0.  0.
         23    2    1    2    0    0  0.25434050175E+02 -0.10498720281E+03 -0.28860378679E+03  0.32144582395E+03  0.91466214093E+02 0.  0.
         11    1    3    3    0    0 -0.11883594773E+02  0.65004688397E+02 -0.40051161934E+02  0.77271760110E+02  0.00000000000E+00 0. -1.
        -12    1    3    3    0    0  0.82791560630E+01  0.44348432503E+02  0.38226197823E+02  0.59131802700E+02  0.00000000000E+00 0.  1.
        -13    1    4    4    0    0 -0.33442572858E+02 -0.24585028310E+02 -0.95981245143E+02  0.10457164394E+03  0.00000000000E+00 0. -1.
         13    1    4    4    0    0  0.58876623034E+02 -0.80402174500E+02 -0.19262254165E+03  0.21687418001E+03  0.00000000000E+00 0.  1.
         21    1    1    2  502  501 -0.21829611465E+02 -0.43659180886E+01 -0.84747480025E+01  0.23820464546E+02  0.00000000000E+00 0. -1.
<scales pt_clust_5="13000.00000" pt_clust_6="13000.00000" pt_clust_7="13000.00000" pt_clust_8="13000.00000" pt_clust_9="22.26192"></scales>
<clustering>
<clus scale="   22.262">  1  9  2 -1</clus>
<clus scale="   81.434">  5  6 -1 -1</clus>
<clus scale="   91.466">  7  8 -1 -1</clus>
<clus scale="  135.210">  1  5  2 -1</clus>
<clus scale="  141.479">  2  5  1 -1</clus>
</clustering>
</event>
<event>
 9    1  0.2951046E-005  0.1671436E+03  0.7546771E-02  0.1204428E+00
          1   -1    0    0  502    0  0.00000000000E+00  0.00000000000E+00  0.37093906854E+03  0.37093906854E+03  0.00000000000E+00 0. -1.
         -2   -1    0    0    0  501 -0.00000000000E+00 -0.00000000000E+00 -0.29614558916E+03  0.29614558916E+03  0.00000000000E+00 0.  1.
        -24    2    1    2    0    0 -0.42149985817E+02  0.38836411068E+02 -0.20092072992E+03  0.22422048312E+03  0.81368281366E+02 0.  0.
         23    2    1    2    0    0 -0.30619140790E+02  0.95852678840E+02  0.10208950750E+02  0.13638491092E+03  0.91495100572E+02 0.  0.
         13    1    3    3    0    0  0.22264302616E+02  0.10834951846E+02 -0.26905677142E+02  0.36565158484E+02  0.00000000000E+00 0. -1.
        -14    1    3    3    0    0 -0.64414288433E+02  0.28001459222E+02 -0.17401505278E+03  0.18765532464E+03  0.00000000000E+00 0.  1.
        -11    1    4    4    0    0 -0.91664545505E+01 -0.17782972423E+02  0.50150458107E+01  0.20625437733E+02  0.00000000000E+00 0. -1.
         11    1    4    4    0    0 -0.21452686240E+02  0.11363565126E+03  0.51939049390E+01  0.11575947319E+03  0.00000000000E+00 0.  1.
         21    1    1    2  502  501  0.72769126607E+02 -0.13468908991E+03  0.26550525855E+03  0.30647926364E+03  0.00000000000E+00 0. -1.
<scales pt_clust_5="13000.00000" pt_clust_6="13000.00000" pt_clust_7="13000.00000" pt_clust_8="13000.00000" pt_clust_9="139.87719"></scales>
<clustering>
<clus scale="   81.368">  5  6 -1 -1</clus>
<clus scale="   91.495">  7  8 -1 -1</clus>
<clus scale="   99.527">  2  5  1 -1</clus>
<clus scale="  139.877">  1  9  2 -1</clus>
<clus scale="  139.877">  1  5  2 -1</clus>
</clustering>
</event>
<event>
 9    1  0.2951046E-005  0.1014903E+03  0.7546771E-02  0.1282224E+00
          1   -1    0    0  502    0  0.00000000000E+00  0.00000000000E+00  0.49929751343E+02  0.49929751343E+02  0.00000000000E+00 0. -1.
         -2   -1    0    0    0  501 -0.00000000000E+00 -0.00000000000E+00 -0.34999267334E+03  0.34999267334E+03  0.00000000000E+00 0.  1.
        -24    2    1    2    0    0  0.62946248311E+02  0.12549227256E+02 -0.19432118613E+03  0.22001761695E+03  0.80791801005E+02 0.  0.
         23    2    1    2    0    0 -0.12026862359E+02 -0.23152775475E+01 -0.79917851333E+02  0.12190144055E+03  0.91230983317E+02 0.  0.
         13    1    3    3    0    0  0.18240278509E+02 -0.21115735899E+02 -0.14013075179E+02  0.31224162737E+02  0.00000000000E+00 0. -1.
        -14    1    3    3    0    0  0.44705969802E+02  0.33664963155E+02 -0.18030811095E+03  0.18879345421E+03  0.00000000000E+00 0.  1.
        -11    1    4    4    0    0  0.13446239236E+01 -0.46019562936E+02 -0.45070996360E+02  0.64428277171E+02  0.00000000000E+00 0.  1.
         11    1    4    4    0    0 -0.13371486283E+02  0.43704285389E+02 -0.34846854973E+02  0.57473163374E+02  0.00000000000E+00 0. -1.
         21    1    1    2  502  501 -0.50919385951E+02 -0.10233949708E+02 -0.25823884532E+02  0.58003367183E+02  0.00000000000E+00 0. -1.
<scales pt_clust_5="13000.00000" pt_clust_6="13000.00000" pt_clust_7="13000.00000" pt_clust_8="13000.00000" pt_clust_9="51.93763"></scales>
<clustering>
<clus scale="   51.938">  1  9  2 -1</clus>
<clus scale="   80.792">  5  6 -1 -1</clus>
<clus scale="   91.231">  7  8 -1 -1</clus>
<clus scale="   92.220">  2  5  1 -1</clus>
<clus scale="   51.938">  1  5  2 -1</clus>
</clustering>
</event>
<event>
 9    1  0.2951046E-005  0.1091290E+03  0.7546771E-02  0.1267288E+00
          1   -1    0    0  502    0  0.00000000000E+00  0.00000000000E+00  0.50685602811E+03  0.50685602811E+03  0.00000000000E+00 0. -1.
         -2   -1    0    0    0  501 -0.00000000000E+00 -0.00000000000E+00 -0.59733276119E+02  0.59733276119E+02  0.00000000000E+00 0.  1.
         23    2    1    2    0    0  0.51497923773E+02 -0.51286615877E+01  0.16507598257E+02  0.10717734046E+03  0.92391245174E+02 0.  0.
        -24    2    1    2    0    0 -0.87857048364E+02 -0.19701911003E+00  0.27568992534E+03  0.30018829968E+03  0.79932349914E+02 0.  0.
         11    1    4    4    0    0 -0.63143116631E+02 -0.37763165200E+02  0.18017663786E+03  0.19461945087E+03  0.00000000000E+00 0. -1.
        -12    1    4    4    0    0 -0.24713931733E+02  0.37566146090E+02  0.95513287482E+02  0.10556884881E+03  0.00000000000E+00 0.  1.
        -13    1    3    3    0    0  0.43680966965E+02 -0.46058987371E+02  0.37099347931E+01  0.63586325643E+02  0.00000000000E+00 0.  1.
         13    1    3    3    0    0  0.78169568084E+01  0.40930325783E+02  0.12797663463E+02  0.43591014815E+02  0.00000000000E+00 0. -1.
         21    1    1    2  502  501  0.36359124591E+02  0.53256806978E+01  0.15492522839E+03  0.15922366409E+03  0.00000000000E+00 0.  1.
<scales pt_clust_5="13000.00000" pt_clust_6="13000.00000" pt_clust_7="13000.00000" pt_clust_8="13000.00000" pt_clust_9="36.74709"></scales>
<clustering>
<clus scale="   36.747">  1  9  2 -1</clus>
<clus scale="   79.932">  5  6 -1 -1</clus>
<clus scale="   92.391">  7  8 -1 -1</clus>
<clus scale="   98.804">  1  5  2 -1</clus>
<clus scale="   36.747">  1  5  2 -1</clus>
</clustering>
</event>
<event>
 9    1  0.2951046E-005  0.1215350E+03  0.7546771E-02  0.1243850E+00
         -2   -1    0    0    0  501 -0.00000000000E+00  0.00000000000E+00  0.24737622633E+02  0.24737622633E+02  0.00000000000E+00 0.  1.
          1   -1    0    0  502    0  0.00000000000E+00 -0.00000000000E+00 -0.12212751013E+04  0.12212751013E+04  0.00000000000E+00 0. -1.
        -24    2    1    2    0    0 -0.85503216882E+02  0.28454940543E+02 -0.25487937092E+03  0.28193229167E+03  0.80011496832E+02 0.  0.
         23    2    1    2    0    0  0.25438683937E+02 -0.82120472189E+02 -0.62182467074E+03  0.63426053470E+03  0.90717176655E+02 0.  0.
         13    1    3    3    0    0 -0.88491836513E+02  0.47949900522E+02 -0.21791867038E+03  0.24003863228E+03  0.00000000000E+00 0. -1.
        -14    1    3    3    0    0  0.29886196311E+01 -0.19494959979E+02 -0.36960700546E+02  0.41893659385E+02  0.00000000000E+00 0.  1.
        -11    1    4    4    0    0 -0.37639286483E+01 -0.93298854676E+02 -0.48522688178E+03  0.49412950757E+03  0.00000000000E+00 0.  1.
         11    1    4    4    0    0  0.29202612585E+02  0.11178382487E+02 -0.13659778896E+03  0.14013102713E+03  0.00000000000E+00 0. -1.
         21    1    1    2  502  501  0.60064532945E+02  0.53665531646E+02 -0.31983343697E+03  0.32981989753E+03  0.00000000000E+00 0.  1.
<scales pt_clust_5="13000.00000" pt_clust_6="13000.00000" pt_clust_7="13000.00000" pt_clust_8="13000.00000" pt_clust_9="80.54649"></scales>
<clustering>
<clus scale="   80.011">  5  6 -1 -1</clus>
<clus scale="   80.546">  2  9  1 -1</clus>
<clus scale="   90.717">  7  8 -1 -1</clus>
<clus scale="  113.767">  1  5  2 -1</clus>
<clus scale="   80.546">  2  5  1 -1</clus>
</clustering>
</event>
<event>
 9    1  0.2951046E-005  0.1150673E+03  0.7546771E-02  0.1254019E+00
         -2   -1    0    0    0  501 -0.00000000000E+00  0.00000000000E+00  0.15199537254E+03  0.15199537254E+03  0.00000000000E+00 0.  1.
          1   -1    0    0  502    0  0.00000000000E+00 -0.00000000000E+00 -0.44199140100E+03  0.44199140100E+03  0.00000000000E+00 0. -1.
        -24    2    1    2    0    0 -0.64658323580E+02  0.85592851561E+01  0.98368748891E+02  0.14464160347E+03  0.83611138769E+02 0.  0.
         23    2    1    2    0    0  0.12448186106E+03  0.83121175283E+00 -0.20674371085E+03  0.25789478781E+03  0.90941381992E+02 0.  0.
         11    1    3    3    0    0 -0.77883293265E+02  0.39600512534E+01  0.46233471029E+02  0.90658828689E+02  0.00000000000E+00 0. -1.
        -12    1    3    3    0    0  0.13224969685E+02  0.45992339027E+01  0.52135277862E+02  0.53982774784E+02  0.00000000000E+00 0.  1.
        -13    1    4    4    0    0  0.10115364395E+03 -0.11412811617E+02 -0.20794189153E+03  0.23152136447E+03  0.00000000000E+00 0.  1.
         13    1    4    4    0    0  0.23328217118E+02  0.12244023370E+02  0.11981806761E+01  0.26373423348E+02  0.00000000000E+00 0. -1.
         21    1    1    2  502  501 -0.59823537483E+02 -0.93904969090E+01 -0.18162106650E+03  0.19145038226E+03  0.00000000000E+00 0. -1.
<scales pt_clust_5="13000.00000" pt_clust_6="13000.00000" pt_clust_7="13000.00000" pt_clust_8="13000.00000" pt_clust_9="60.55607"></scales>
<clustering>
<clus scale="   60.556">  2  9  1 -1</clus>
<clus scale="   83.611">  5  6 -1 -1</clus>
<clus scale="   90.941">  7  8 -1 -1</clus>
<clus scale="  109.366">  1  5  2 -1</clus>
<clus scale="   60.556">  2  5  1 -1</clus>
</clustering>
</event>
<event>
 9    1  0.2951046E-005  0.9620256E+02  0.7546771E-02  0.1295548E+00
          3   -1    0    0  502    0  0.00000000000E+00  0.00000000000E+00  0.15052684114E+03  0.15052684114E+03  0.00000000000E+00 0. -1.
         -4   -1    0    0    0  501 -0.00000000000E+00 -0.00000000000E+00 -0.15043843548E+03  0.15043843548E+03  0.00000000000E+00 0.  1.
         23    2    1    2    0    0  0.94426095063E+01  0.56264706743E+01 -0.71145143055E+02  0.11740930590E+03  0.92749629035E+02 0.  0.
        -24    2    1    2    0    0 -0.55191493129E+02 -0.15455611972E+02  0.45654280838E+00  0.98709303497E+02  0.80363805972E+02 0.  0.
         13    1    4    4    0    0 -0.14919299976E+01 -0.23514847772E+02  0.28998357684E+02  0.37364136136E+02  0.00000000000E+00 0. -1.
        -14    1    4    4    0    0 -0.53699563131E+02  0.80592357994E+01 -0.28541814875E+02  0.61345167361E+02  0.00000000000E+00 0.  1.
        -11    1    3    3    0    0  0.94744240718E+01 -0.24098778438E+02  0.12417017343E+02  0.28717558277E+02  0.00000000000E+00 0. -1.
         11    1    3    3    0    0 -0.31814565487E-01  0.29725249112E+02 -0.83562160398E+02  0.88691747628E+02  0.00000000000E+00 0.  1.
         21    1    1    2  502  501  0.45748883622E+02  0.98291412978E+01  0.70777005908E+02  0.84846667210E+02  0.00000000000E+00 0. -1.
<scales pt_clust_5="13000.00000" pt_clust_6="13000.00000" pt_clust_7="13000.00000" pt_clust_8="13000.00000" pt_clust_9="46.79287"></scales>
<clustering>
<clus scale="   46.793">  1  9  2 -1</clus>
<clus scale="   80.364">  5  6 -1 -1</clus>
<clus scale="   84.325">  1  5  2 -1</clus>
<clus scale="   92.750">  7  8 -1 -1</clus>
<clus scale="   46.793">  1  5  2 -1</clus>
</clustering>
</event>
<event>
 9    1  0.2951046E-005  0.9230346E+02  0.7546771E-02  0.1304411E+00
          1   -1    0    0  502    0  0.00000000000E+00  0.00000000000E+00  0.66820208422E+02  0.66820208422E+02  0.00000000000E+00 0. -1.
         -2   -1    0    0    0  501 -0.00000000000E+00 -0.00000000000E+00 -0.19326768955E+03  0.19326768955E+03  0.00000000000E+00 0.  1.
        -24    2    1    2    0    0  0.19538089017E+02  0.55082953155E+01 -0.97500047219E+02  0.12810976367E+03  0.80583956848E+02 0.  0.
         23    2    1    2    0    0  0.45537890912E+01  0.14657508235E+02 -0.65096629623E+01  0.93370728418E+02  0.91870221893E+02 0.  0.
         13    1    3    3    0    0  0.22424419032E+02  0.40746679376E+02 -0.44291155928E+02  0.64225018042E+02  0.00000000000E+00 0. -1.
        -14    1    3    3    0    0 -0.28863300145E+01 -0.35238384060E+02 -0.53208891290E+02  0.63884745632E+02  0.00000000000E+00 0.  1.
        -13    1    4    4    0    0 -0.62721492670E+01  0.52767081004E+02  0.48397532305E+00  0.53140746384E+02  0.00000000000E+00 0. -1.
         13    1    4    4    0    0  0.10825938358E+02 -0.38109572769E+02 -0.69936382854E+01  0.40229982034E+02  0.00000000000E+00 0.  1.
         21    1    1    2  502  501 -0.24091878109E+02 -0.20165803551E+02 -0.22437770945E+02  0.38607405878E+02  0.00000000000E+00 0.  1.
<scales pt_clust_5="13000.00000" pt_clust_6="13000.00000" pt_clust_7="13000.00000" pt_clust_8="13000.00000" pt_clust_9="31.41780"></scales>
<clustering>
<clus scale="   31.418">  2  9  1 -1</clus>
<clus scale="   80.584">  5  6 -1 -1</clus>
<clus scale="   81.078">  2  5  1 -1</clus>
<clus scale="   91.870">  7  8 -1 -1</clus>
<clus scale="   92.303">  1  5  2 -1</clus>
</clustering>
</event>
<event>
 9    1  0.2951046E-005  0.1079082E+03  0.7546771E-02  0.1268827E+00
         -2   -1    0    0    0  501 -0.00000000000E+00  0.00000000000E+00  0.19653336080E+03  0.19653336080E+03  0.00000000000E+00 0.  1.
          1   -1    0    0  502    0  0.00000000000E+00 -0.00000000000E+00 -0.40592247904E+03  0.40592247904E+03  0.00000000000E+00 0. -1.
        -24    2    1    2    0    0  0.44924694163E+02 -0.39346731431E+02  0.16225297962E+03  0.19037787626E+03  0.79695125036E+02 0.  0.
         23    2    1    2    0    0  0.17147212161E+01  0.73249362398E+02 -0.20433531426E+03  0.23511417266E+03  0.90318016872E+02 0.  0.
         11    1    3    3    0    0  0.20283296195E+02  0.21805196166E+02  0.77332943493E+02  0.82868949756E+02  0.00000000000E+00 0. -1.
        -12    1    3    3    0    0  0.24641397967E+02 -0.61151927597E+02  0.84920036129E+02  0.10750892651E+03  0.00000000000E+00 0.  1.
        -11    1    4    4    0    0  0.34669617661E+02  0.34358044735E+02 -0.16090655129E+03  0.16814688780E+03  0.00000000000E+00 0. -1.
         11    1    4    4    0    0 -0.32954896445E+02  0.38891317664E+02 -0.43428762969E+02  0.66967284866E+02  0.00000000000E+00 0.  1.
         21    1    1    2  502  501 -0.46639415379E+02 -0.33902630967E+02 -0.16730678361E+03  0.17696379091E+03  0.00000000000E+00 0.  1.
<scales pt_clust_5="13000.00000" pt_clust_6="13000.00000" pt_clust_7="13000.00000" pt_clust_8="13000.00000" pt_clust_9="57.65955"></scales>
<clustering>
<clus scale="   57.660">  2  9  1 -1</clus>
<clus scale="   79.695">  5  6 -1 -1</clus>
<clus scale="   90.318">  7  8 -1 -1</clus>
<clus scale="   99.187">  1  5  2 -1</clus>
<clus scale="   57.660">  2  5  1 -1</clus>
</clustering>
</event>
<event>
 9    1  0.2951046E-005  0.1005920E+03  0.7546771E-02  0.1284361E+00
          1   -1    0    0  502    0  0.00000000000E+00  0.00000000000E+00  0.27586524599E+03  0.27586524599E+03  0.00000000000E+00 0. -1.
         -2   -1    0    0    0  501 -0.00000000000E+00 -0.00000000000E+00 -0.23256443887E+03  0.23256443887E+03  0.00000000000E+00 0.  1.
         23    2    1    2    0    0 -0.87600134198E+01  0.45425967924E+02 -0.20398332891E+03  0.22786506700E+03  0.90404833331E+02 0.  0.
        -24    2    1    2    0    0  0.28908900842E+02 -0.39402956757E+01  0.18058111943E+03  0.19947003672E+03  0.79545611931E+02 0.  0.
         13    1    4    4    0    0 -0.15594680884E+01 -0.36257524374E+02  0.51823097672E+02  0.63266685284E+02  0.00000000000E+00 0. -1.
        -14    1    4    4    0    0  0.30468368931E+02  0.32317228699E+02  0.12875802176E+03  0.13620335144E+03  0.00000000000E+00 0.  1.
        -13    1    3    3    0    0  0.25496506822E+02 -0.10773036092E+02 -0.25505965403E+02  0.37638868711E+02  0.00000000000E+00 0. -1.
         13    1    3    3    0    0 -0.34256520242E+02  0.56199004016E+02 -0.17847736351E+03  0.19022619829E+03  0.00000000000E+00 0.  1.
         21    1    1    2  502  501 -0.20148887423E+02 -0.41485672248E+02  0.66703016602E+02  0.81094581138E+02  0.00000000000E+00 0. -1.
<scales pt_clust_5="13000.00000" pt_clust_6="13000.00000" pt_clust_7="13000.00000" pt_clust_8="13000.00000" pt_clust_9="46.11983"></scales>
<clustering>
<clus scale="   46.120">  1  9  2 -1</clus>
<clus scale="   79.546">  5  6 -1 -1</clus>
<clus scale="   90.405">  7  8 -1 -1</clus>
<clus scale="   90.957">  1  5  2 -1</clus>
<clus scale="   46.120">  1  5  2 -1</clus>
</clustering>
</event>
<event>
 9    1  0.2951046E-005  0.1285650E+03  0.7546771E-02  0.1234507E+00
         -2   -1    0    0    0  501 -0.00000000000E+00  0.00000000000E+00  0.13790735902E+04  0.13790735902E+04  0.00000000000E+00 0.  1.
          1   -1    0    0  502    0  0.00000000000E+00 -0.00000000000E+00 -0.27097703331E+02  0.27097703331E+02  0.00000000000E+00 0. -1.
        -24    2    1    2    0    0 -0.92134587818E+02 -0.19438291247E+02  0.95775230482E+03  0.96571094674E+03  0.80259116792E+02 0.  0.
         23    2    1    2    0    0  0.57103363054E+02  0.28592090130E+02  0.38623078696E+03  0.40338119476E+03  0.97282402315E+02 0.  0.
         13    1    3    3    0    0 -0.29637921766E+01 -0.31521072939E+02  0.17916445618E+03  0.18194027718E+03  0.00000000000E+00 0. -1.
        -14    1    3    3    0    0 -0.89170795641E+02  0.12082781692E+02  0.77858784865E+03  0.78377066956E+03  0.00000000000E+00 0.  1.
        -11    1    4    4    0    0  0.83105496229E+02  0.33827755595E+02  0.30558982491E+03  0.31849015941E+03  0.00000000000E+00 0. -1.
         11    1    4    4    0    0 -0.26002133176E+02 -0.52356654650E+01  0.80640962044E+02  0.84891035345E+02  0.00000000000E+00 0.  1.
         21    1    1    2  502  501  0.35031224764E+02 -0.91537988833E+01  0.79927950990E+01  0.37079152040E+02  0.00000000000E+00 0. -1.
<scales pt_clust_5="13000.00000" pt_clust_6="13000.00000" pt_clust_7="13000.00000" pt_clust_8="13000.00000" pt_clust_9="36.20744"></scales>
<clustering>
<clus scale="   36.207">  2  9  1 -1</clus>
<clus scale="   80.259">  5  6 -1 -1</clus>
<clus scale="   97.282">  7  8 -1 -1</clus>
<clus scale="  116.218">  1  5  2 -1</clus>
<clus scale="   36.207">  2  5  1 -1</clus>
</clustering>
</event>
<event>
 9    1  0.2951046E-005  0.1245730E+03  0.7546771E-02  0.1247277E+00
         -2   -1    0    0    0  501 -0.00000000000E+00  0.00000000000E+00  0.14518315768E+03  0.14518315768E+03  0.00000000000E+00 0.  1.
          1   -1    0    0  502    0  0.00000000000E+00 -0.00000000000E+00 -0.51698917636E+03  0.51698917636E+03  0.00000000000E+00 0. -1.
         23    2    1    2    0    0  0.27290031279E+02 -0.57376472826E+02  0.10332956823E+03  0.16416489581E+03  0.11061784623E+03 0.  0.
        -24    2    1    2    0    0  0.23757537321E+01  0.23704879945E+02 -0.16898028369E+03  0.18858070270E+03  0.80254467885E+02 0.  0.
         11    1    4    4    0    0  0.30820446459E+02 -0.12930596325E+02 -0.43882217783E+02  0.55161121080E+02  0.00000000000E+00 0. -1.
        -12    1    4    4    0    0 -0.28444692727E+02  0.36635476270E+02 -0.12509806590E+03  0.13341958162E+03  0.00000000000E+00 0.  1.
        -11    1    3    3    0    0  0.44757942778E+02  0.18496824364E+02  0.28585714119E+02  0.56236545102E+02  0.00000000000E+00 0. -1.
         11    1    3    3    0    0 -0.17467911499E+02 -0.75873297191E+02  0.74743854115E+02  0.10792835071E+03  0.00000000000E+00 0.  1.
         21    1    1    2  502  501 -0.29665785011E+02  0.33671592881E+02 -0.30615530322E+03  0.30942673553E+03  0.00000000000E+00 0.  1.
<scales pt_clust_5="13000.00000" pt_clust_6="13000.00000" pt_clust_7="13000.00000" pt_clust_8="13000.00000" pt_clust_9="44.87577"></scales>
<clustering>
<clus scale="   44.876">  2  9  1 -1</clus>
<clus scale="   80.254">  5  6 -1 -1</clus>
<clus scale="   98.605">  2  5  1 -1</clus>
<clus scale="  110.618">  7  8 -1 -1</clus>
<clus scale="   44.876">  2  5  1 -1</clus>
</clustering>
</event>
<event>
 9    1  0.2951046E-005  0.1121118E+03  0.7546771E-02  0.1266583E+00
          1   -1    0    0  502    0  0.00000000000E+00  0.00000000000E+00  0.62544426206E+03  0.62544426206E+03  0.00000000000E+00 0. -1.
         -2   -1    0    0    0  501 -0.00000000000E+00 -0.00000000000E+00 -0.68830485484E+02  0.68830485484E+02  0.00000000000E+00 0.  1.
         23    2    1    2    0    0 -0.38439775022E+02 -0.24224223430E+02 -0.98738555005E+01  0.11301850102E+03  0.10301096663E+03 0.  0.
        -24    2    1    2    0    0  0.13643515515E+02  0.37884750689E+02  0.51104576637E+03  0.51900462033E+03  0.81096367060E+02 0.  0.
         11    1    4    4    0    0  0.22941177392E+02  0.56318260001E+02  0.25595913470E+03  0.26308387002E+03  0.00000000000E+00 0. -1.
        -12    1    4    4    0    0 -0.92976618776E+01 -0.18433509312E+02  0.25508663167E+03  0.25592075030E+03  0.00000000000E+00 0.  1.
        -13    1    3    3    0    0  0.80086129663E+01 -0.48449563010E+02  0.19641838611E+02  0.52889506157E+02  0.00000000000E+00 0. -1.
         13    1    3    3    0    0 -0.46448387988E+02  0.24225339580E+02 -0.29515694112E+02  0.60128994864E+02  0.00000000000E+00 0.  1.
         21    1    1    2  502  501  0.24796259507E+02 -0.13660527258E+02  0.55441865714E+02  0.62251626198E+02  0.00000000000E+00 0.  1.
<scales pt_clust_5="13000.00000" pt_clust_6="13000.00000" pt_clust_7="13000.00000" pt_clust_8="13000.00000" pt_clust_9="28.31015"></scales>
<clustering>
<clus scale="   28.310">  1  9  2 -1</clus>
<clus scale="   81.096">  5  6 -1 -1</clus>
<clus scale="   92.382">  1  5  2 -1</clus>
<clus scale="  103.011">  7  8 -1 -1</clus>
<clus scale="   28.310">  1  5  2 -1</clus>
</clustering>
</event>
<event>
 9    1  0.2951046E-005  0.1474747E+03  0.7546771E-02  0.1204633E+00
         -2   -1    0    0    0  501 -0.00000000000E+00  0.00000000000E+00  0.35141756792E+02  0.35141756792E+02  0.00000000000E+00 0.  1.
          1   -1    0    0  502    0  0.00000000000E+00 -0.00000000000E+00 -0.10734286103E+04  0.10734286103E+04  0.00000000000E+00 0. -1.
         23    2    1    2    0    0 -0.11558024770E+03  0.31242598656E+02 -0.17981976897E+03  0.23451562116E+03  0.91255321090E+02 0.  0.
        -24    2    1    2    0    0  0.92324050683E+02 -0.48665011790E+02 -0.71596576131E+03  0.72862084926E+03  0.85961368682E+02 0.  0.
         11    1    4    4    0    0  0.10802542612E+03 -0.45119075655E+02 -0.66323729454E+03  0.67349011317E+03  0.00000000000E+00 0. -1.
        -12    1    4    4    0    0 -0.15701375436E+02 -0.35459361345E+01 -0.52728466770E+02  0.55130736087E+02  0.00000000000E+00 0.  1.
        -11    1    3    3    0    0 -0.55680383277E+02 -0.27451844235E+02 -0.48842674837E+02  0.78990605258E+02  0.00000000000E+00 0.  1.
         11    1    3    3    0    0 -0.59899864419E+02  0.58694442891E+02 -0.13097709413E+03  0.15552501590E+03  0.00000000000E+00 0. -1.
         21    1    1    2  502  501  0.23256197013E+02  0.17422413134E+02 -0.14250132327E+03  0.14543389672E+03  0.00000000000E+00 0. -1.
<scales pt_clust_5="13000.00000" pt_clust_6="13000.00000" pt_clust_7="13000.00000" pt_clust_8="13000.00000" pt_clust_9="29.05841"></scales>
<clustering>
<clus scale="   29.058">  2  9  1 -1</clus>
<clus scale="   85.961">  5  6 -1 -1</clus>
<clus scale="   91.255">  7  8 -1 -1</clus>
<clus scale="  144.259">  2  5  1 -1</clus>
<clus scale="   29.058">  2  5  1 -1</clus>
</clustering>
</event>
<event>
 9    1  0.2951046E-005  0.1196178E+03  0.7546771E-02  0.1246623E+00
          1   -1    0    0  502    0  0.00000000000E+00  0.00000000000E+00  0.11535443667E+03  0.11535443667E+03  0.00000000000E+00 0. -1.
         -2   -1    0    0    0  501 -0.00000000000E+00 -0.00000000000E+00 -0.21836060960E+03  0.21836060960E+03  0.00000000000E+00 0.  1.
        -24    2    1    2    0    0 -0.84117743501E+02 -0.16367642907E+02 -0.14130248897E+03  0.18369824131E+03  0.80218177265E+02 0.  0.
         23    2    1    2    0    0  0.62764013463E+02 -0.49290533256E+01  0.12132007378E+02  0.11009059672E+03  0.89493781519E+02 0.  0.
         11    1    3    3    0    0 -0.43491667549E+02  0.31788651678E+02 -0.56668902361E+02  0.78188285673E+02  0.00000000000E+00 0. -1.
        -12    1    3    3    0    0 -0.40626075952E+02 -0.48156294584E+02 -0.84633586611E+02  0.10550995563E+03  0.00000000000E+00 0.  1.
        -13    1    4    4    0    0 -0.16844138086E+02 -0.17977579645E+02  0.15918784720E+02  0.29331315428E+02  0.00000000000E+00 0.  1.
         13    1    4    4    0    0  0.79608151550E+02  0.13048526320E+02 -0.37867773416E+01  0.80759281293E+02  0.00000000000E+00 0. -1.
         21    1    1    2  502  501  0.21353730038E+02  0.21296696232E+02  0.26164308660E+02  0.39926208242E+02  0.00000000000E+00 0. -1.
<scales pt_clust_5="13000.00000" pt_clust_6="13000.00000" pt_clust_7="13000.00000" pt_clust_8="13000.00000" pt_clust_9="30.15843"></scales>
<clustering>
<clus scale="   30.158">  1  9  2 -1</clus>
<clus scale="   80.218">  5  6 -1 -1</clus>
<clus scale="   89.494">  7  8 -1 -1</clus>
<clus scale="  112.846">  2  5  1 -1</clus>
<clus scale="   30.158">  1  5  2 -1</clus>
</clustering>
</event>
<event>
 9    1  0.2951046E-005  0.2110928E+03  0.7546771E-02  0.1144258E+00
         -2   -1    0    0    0  501 -0.00000000000E+00  0.00000000000E+00  0.74475515984E+02  0.74475515984E+02  0.00000000000E+00 0.  1.
          1   -1    0    0  502    0  0.00000000000E+00 -0.00000000000E+00 -0.98939000354E+03  0.98939000354E+03  0.00000000000E+00 0. -1.
         23    2    1    2    0    0  0.19288862794E+03  0.21440803785E+02 -0.18562770124E+03  0.29463738366E+03  0.12119328994E+03 0.  0.
        -24    2    1    2    0    0 -0.13760244707E+03 -0.22623619496E+02 -0.36102177621E+03  0.39683442147E+03  0.87718718479E+02 0.  0.
         11    1    4    4    0    0 -0.11277128759E+03 -0.53074842688E+02 -0.29043138669E+03  0.31604539643E+03  0.00000000000E+00 0. -1.
        -12    1    4    4    0    0 -0.24831159479E+02  0.30451223192E+02 -0.70590389515E+02  0.80789025040E+02  0.00000000000E+00 0.  1.
        -11    1    3    3    0    0  0.16970058737E+03 -0.29510575450E+02 -0.13081363014E+03  0.21629001189E+03  0.00000000000E+00 0. -1.
         11    1    3    3    0    0  0.23188040571E+02  0.50951379235E+02 -0.54814071102E+02  0.78347371764E+02  0.00000000000E+00 0.  1.
         21    1    1    2  502  501 -0.55286180872E+02  0.11828157109E+01 -0.36826501011E+03  0.37239371439E+03  0.00000000000E+00 0. -1.
<scales pt_clust_5="13000.00000" pt_clust_6="13000.00000" pt_clust_7="13000.00000" pt_clust_8="13000.00000" pt_clust_9="55.29883"></scales>
<clustering>
<clus scale="   55.299">  2  9  1 -1</clus>
<clus scale="   87.719">  5  6 -1 -1</clus>
<clus scale="  121.193">  7  8 -1 -1</clus>
<clus scale="  193.822">  2  5  1 -1</clus>
<clus scale="   55.299">  2  5  1 -1</clus>
</clustering>
</event>
<event>
 9    1  0.2951046E-005  0.1096792E+03  0.7546771E-02  0.1267106E+00
          1   -1    0    0  502    0  0.00000000000E+00  0.00000000000E+00  0.43728021675E+02  0.43728021675E+02  0.00000000000E+00 0. -1.
         -2   -1    0    0    0  501 -0.00000000000E+00 -0.00000000000E+00 -0.57384338335E+03  0.57384338335E+03  0.00000000000E+00 0.  1.
         23    2    1    2    0    0  0.17177215744E+02 -0.53677140612E+02 -0.44336155370E+03  0.45675645272E+03  0.94237453447E+02 0.  0.
        -24    2    1    2    0    0  0.11267073279E+02  0.59932532360E+02 -0.45608012111E+02  0.11040479439E+03  0.79939179884E+02 0.  0.
         11    1    4    4    0    0  0.22459399178E+02  0.48025379595E+02  0.86685184977E+01  0.53721549770E+02  0.00000000000E+00 0. -1.
        -12    1    4    4    0    0 -0.11192325898E+02  0.11907152764E+02 -0.54276530608E+02  0.56683244622E+02  0.00000000000E+00 0.  1.
        -11    1    3    3    0    0 -0.38554667076E+02 -0.22832772116E+02 -0.14950674542E+03  0.15607711158E+03  0.00000000000E+00 0. -1.
         11    1    3    3    0    0  0.55731882820E+02 -0.30844368496E+02 -0.29385480829E+03  0.30067934113E+03  0.00000000000E+00 0.  1.
         21    1    1    2  502  501 -0.28444289023E+02 -0.62553917473E+01 -0.41145795859E+02  0.50410157914E+02  0.00000000000E+00 0. -1.
<scales pt_clust_5="13000.00000" pt_clust_6="13000.00000" pt_clust_7="13000.00000" pt_clust_8="13000.00000" pt_clust_9="29.12400"></scales>
<clustering>
<clus scale="   29.124">  1  9  2 -1</clus>
<clus scale="   79.939">  5  6 -1 -1</clus>
<clus scale="   94.237">  7  8 -1 -1</clus>
<clus scale="   97.668">  1  5  2 -1</clus>
<clus scale="   29.124">  1  5  2 -1</clus>
</clustering>
</event>
<event>
 9    1  0.2951046E-005  0.1231687E+03  0.7546771E-02  0.1250969E+00
         -2   -1    0    0    0  501 -0.00000000000E+00  0.00000000000E+00  0.10694162117E+04  0.10694162117E+04  0.00000000000E+00 0.  1.
          1   -1    0    0  502    0  0.00000000000E+00 -0.00000000000E+00 -0.19150908921E+02  0.19150908921E+02  0.00000000000E+00 0. -1.
        -24    2    1    2    0    0 -0.48852918776E+02 -0.21739304848E+02  0.63759875686E+03  0.64503157965E+03  0.81696749928E+02 0.  0.
         23    2    1    2    0    0  0.25810602229E+02  0.26851988527E+02  0.39851696498E+03  0.41601648346E+03  0.11343159459E+03 0.  0.
         13    1    3    3    0    0 -0.15897595869E+02 -0.25622406591E+02  0.67046075561E+02  0.73514743569E+02  0.00000000000E+00 0. -1.
        -14    1    3    3    0    0 -0.32955322908E+02  0.38831017425E+01  0.57055268130E+03  0.57151683608E+03  0.00000000000E+00 0.  1.
        -11    1    4    4    0    0 -0.74974676407E+01 -0.42006196647E+02  0.15526489940E+03  0.16102149411E+03  0.00000000000E+00 0.  1.
         11    1    4    4    0    0  0.33308069870E+02  0.68858185174E+02  0.24325206558E+03  0.25499498935E+03  0.00000000000E+00 0. -1.
         21    1    1    2  502  501  0.23042316548E+02 -0.51126836790E+01  0.14149580952E+02  0.27519057531E+02  0.00000000000E+00 0.  1.
<scales pt_clust_5="13000.00000" pt_clust_6="13000.00000" pt_clust_7="13000.00000" pt_clust_8="13000.00000" pt_clust_9="23.60271"></scales>
<clustering>
<clus scale="   23.603">  2  9  1 -1</clus>
<clus scale="   81.697">  5  6 -1 -1</clus>
<clus scale="   94.753">  1  5  2 -1</clus>
<clus scale="  113.432">  7  8 -1 -1</clus>
<clus scale="   23.603">  2  5  1 -1</clus>
</clustering>
</event>
<event>
 9    1  0.2951046E-005  0.9636395E+02  0.7546771E-02  0.1295110E+00
         -2   -1    0    0    0  501 -0.00000000000E+00  0.00000000000E+00  0.10853242583E+03  0.10853242583E+03  0.00000000000E+00 0.  1.
          1   -1    0    0  502    0  0.00000000000E+00 -0.00000000000E+00 -0.23228752629E+03  0.23228752629E+03  0.00000000000E+00 0. -1.
         23    2    1    2    0    0 -0.21751668700E+02  0.10211958327E+02  0.50050350559E+02  0.10835455965E+03  0.93049738425E+02 0.  0.
        -24    2    1    2    0    0  0.33288424901E+02  0.20671679258E+02 -0.46812281972E+02  0.10126264556E+03  0.80791683272E+02 0.  0.
         13    1    4    4    0    0  0.23785449693E+02 -0.28555498335E+02 -0.31841425743E+02  0.48939150949E+02  0.00000000000E+00 0. -1.
        -14    1    4    4    0    0  0.95029752084E+01  0.49227177594E+02 -0.14970856229E+02  0.52323494607E+02  0.00000000000E+00 0.  1.
        -13    1    3    3    0    0 -0.48891240142E+02  0.74508944789E+01 -0.20998683233E+01  0.49500289274E+02  0.00000000000E+00 0. -1.
         13    1    3    3    0    0  0.27139571442E+02  0.27610638486E+01  0.52150218882E+02  0.58854270372E+02  0.00000000000E+00 0.  1.
         21    1    1    2  502  501 -0.11536756201E+02 -0.30883637586E+02 -0.12699316905E+03  0.13120274692E+03  0.00000000000E+00 0. -1.
<scales pt_clust_5="13000.00000" pt_clust_6="13000.00000" pt_clust_7="13000.00000" pt_clust_8="13000.00000" pt_clust_9="32.96810"></scales>
<clustering>
<clus scale="   32.968">  2  9  1 -1</clus>
<clus scale="   80.792">  5  6 -1 -1</clus>
<clus scale="   84.588">  2  5  1 -1</clus>
<clus scale="   93.050">  7  8 -1 -1</clus>
<clus scale="   32.968">  2  5  1 -1</clus>
</clustering>
</event>
<event>
 9    1  0.2951046E-005  0.8765369E+02  0.7546771E-02  0.1316002E+00
          1   -1    0    0  502    0  0.00000000000E+00  0.00000000000E+00  0.97576451179E+02  0.97576451179E+02  0.00000000000E+00 0. -1.
         -2   -1    0    0    0  501 -0.00000000000E+00 -0.00000000000E+00 -0.15255708942E+03  0.15255708942E+03  0.00000000000E+00 0.  1.
        -24    2    1    2    0    0 -0.43650147420E+02 -0.16488891470E+02 -0.82394133452E+02  0.12432794427E+03  0.80569383690E+02 0.  0.
         23    2    1    2    0    0  0.30083555619E+01 -0.57084179193E+01  0.37555762930E+02  0.78399463978E+02  0.68515723629E+02 0.  0.
         13    1    3    3    0    0 -0.60272130725E+02  0.21895302079E+01 -0.32480380247E+02  0.68501816659E+02  0.00000000000E+00 0. -1.
        -14    1    3    3    0    0  0.16621983305E+02 -0.18678421678E+02 -0.49913753205E+02  0.55826127614E+02  0.00000000000E+00 0.  1.
        -13    1    4    4    0    0  0.29462331588E+02  0.36484653811E+01 -0.21660386710E+01  0.29766289754E+02  0.00000000000E+00 0.  1.
         13    1    4    4    0    0 -0.26453976026E+02 -0.93568833004E+01  0.39721801601E+02  0.48633174224E+02  0.00000000000E+00 0. -1.
         21    1    1    2  502  501  0.40641791858E+02  0.22197309389E+02 -0.10142267718E+02  0.47406132346E+02  0.00000000000E+00 0.  1.
<scales pt_clust_5="13000.00000" pt_clust_6="13000.00000" pt_clust_7="13000.00000" pt_clust_8="13000.00000" pt_clust_9="46.30849"></scales>
<clustering>
<clus scale="   46.308">  1  9  2 -1</clus>
<clus scale="   68.516">  7  8 -1 -1</clus>
<clus scale="   76.721">  1  7  2 -1</clus>
<clus scale="   80.569">  5  6 -1 -1</clus>
<clus scale="   46.308">  1  5  2 -1</clus>
</clustering>
</event>
<event>
 9    1  0.2951046E-005  0.1345853E+03  0.7546771E-02  0.1229474E+00
          1   -1    0    0  502    0  0.00000000000E+00  0.00000000000E+00  0.73153158115E+03  0.73153158115E+03  0.00000000000E+00 0. -1.
         -2   -1    0    0    0  501 -0.00000000000E+00 -0.00000000000E+00 -0.53897890028E+02  0.53897890028E+02  0.00000000000E+00 0.  1.
        -24    2    1    2    0    0 -0.56661140716E+02  0.52694921298E+02  0.70440788386E+02  0.13261894390E+03  0.81477849836E+02 0.  0.
         23    2    1    2    0    0  0.13329208947E+02  0.51030957342E+02  0.37452853671E+03  0.39441273041E+03  0.11183894975E+03 0.  0.
         11    1    3    3    0    0 -0.17344465131E+02  0.59207867520E+02  0.69252664546E+02  0.92748765995E+02  0.00000000000E+00 0. -1.
        -12    1    3    3    0    0 -0.39316675586E+02 -0.65129462220E+01  0.11881238402E+01  0.39870177901E+02  0.00000000000E+00 0.  1.
        -13    1    4    4    0    0  0.51901194506E+02 -0.85242578441E+01  0.16733408848E+03  0.17540551339E+03  0.00000000000E+00 0.  1.
         13    1    4    4    0    0 -0.38571985559E+02  0.59555215186E+02  0.20719444824E+03  0.21900721702E+03  0.00000000000E+00 0. -1.
         21    1    1    2  502  501  0.43331931770E+02 -0.10372587864E+03  0.23266436603E+03  0.25839779687E+03  0.00000000000E+00 0.  1.
<scales pt_clust_5="13000.00000" pt_clust_6="13000.00000" pt_clust_7="13000.00000" pt_clust_8="13000.00000" pt_clust_9="74.86827"></scales>
<clustering>
<clus scale="   81.478">  5  6 -1 -1</clus>
<clus scale="  111.839">  7  8 -1 -1</clus>
<clus scale="  112.365">  2  5  1 -1</clus>
<clus scale="   74.868">  2  9  1 -1</clus>
<clus scale="  134.585">  1  5  2 -1</clus>
</clustering>
</event>
<event>
 9    1  0.2951046E-005  0.1581869E+03  0.7546771E-02  0.1192910E+00
         -2   -1    0    0    0  501 -0.00000000000E+00  0.00000000000E+00  0.42008358294E+03  0.42008358294E+03  0.00000000000E+00 0.  1.
          1   -1    0    0  502    0  0.00000000000E+00 -0.00000000000E+00 -0.12231037620E+03  0.12231037620E+03  0.00000000000E+00 0. -1.
         23    2    1    2    0    0 -0.41423350299E+01 -0.12479572452E+03  0.32226341511E+03  0.35819607997E+03  0.94125401403E+02 0.  0.
        -24    2    1    2    0    0 -0.11465026782E+02  0.13882662334E+03 -0.18127766732E+02  0.16226761405E+03  0.81227362735E+02 0.  0.
         13    1    4    4    0    0 -0.67464122320E+01  0.13493840321E+03  0.80874894142E+01  0.13534878730E+03  0.00000000000E+00 0. -1.
        -14    1    4    4    0    0 -0.47186145495E+01  0.38882201327E+01 -0.26215256146E+02  0.26918826755E+02  0.00000000000E+00 0.  1.
        -13    1    3    3    0    0 -0.21947721104E+02 -0.11389725956E+03  0.31566594754E+03  0.33630236192E+03  0.00000000000E+00 0.  1.
         13    1    3    3    0    0  0.17805386074E+02 -0.10898464959E+02  0.65974675717E+01  0.21893718050E+02  0.00000000000E+00 0. -1.
         21    1    1    2  502  501  0.15607361811E+02 -0.14030898824E+02 -0.63624416342E+01  0.21930265116E+02  0.00000000000E+00 0.  1.
<scales pt_clust_5="13000.00000" pt_clust_6="13000.00000" pt_clust_7="13000.00000" pt_clust_8="13000.00000" pt_clust_9="20.98704"></scales>
<clustering>
<clus scale="   20.987">  2  9  1 -1</clus>
<clus scale="   81.227">  5  6 -1 -1</clus>
<clus scale="   94.125">  7  8 -1 -1</clus>
<clus scale="  150.869">  2  5  1 -1</clus>
<clus scale="   20.987">  2  5  1 -1</clus>
</clustering>
</event>
<event>
 9    1  0.2951046E-005  0.9421345E+02  0.7546771E-02  0.1298269E+00
          1   -1    0    0  502    0  0.00000000000E+00  0.00000000000E+00  0.44811905869E+03  0.44811905869E+03  0.00000000000E+00 0. -1.
         -2   -1    0    0    0  501 -0.00000000000E+00 -0.00000000000E+00 -0.27027118433E+02  0.27027118433E+02  0.00000000000E+00 0.  1.
         23    2    1    2    0    0  0.99406191312E+01 -0.23975876508E+02  0.11648035623E+03  0.15093702481E+03  0.92415656183E+02 0.  0.
        -24    2    1    2    0    0 -0.13548876344E+02 -0.16930430013E+01  0.21793538483E+03  0.23373995062E+03  0.83379218679E+02 0.  0.
         11    1    4    4    0    0 -0.18853967691E+02  0.29241066919E+02  0.18500633559E+03  0.18824945233E+03  0.00000000000E+00 0. -1.
        -12    1    4    4    0    0  0.53050913465E+01 -0.30934109920E+02  0.32929049238E+02  0.45490498288E+02  0.00000000000E+00 0.  1.
        -11    1    3    3    0    0  0.51875431919E+01  0.35712868701E+02  0.42113379010E+02  0.55460402873E+02  0.00000000000E+00 0. -1.
         11    1    3    3    0    0  0.47530759393E+01 -0.59688745209E+02  0.74366977217E+02  0.95476621934E+02  0.00000000000E+00 0.  1.
         21    1    1    2  502  501  0.36082572128E+01  0.25668919509E+02  0.86676199201E+02  0.90469201703E+02  0.00000000000E+00 0. -1.
<scales pt_clust_5="13000.00000" pt_clust_6="13000.00000" pt_clust_7="13000.00000" pt_clust_8="13000.00000" pt_clust_9="25.92128"></scales>
<clustering>
<clus scale="   25.921">  1  9  2 -1</clus>
<clus scale="   83.379">  5  6 -1 -1</clus>
<clus scale="   85.368">  1  5  2 -1</clus>
<clus scale="   92.416">  7  8 -1 -1</clus>
<clus scale="   25.921">  1  5  2 -1</clus>
</clustering>
</event>
<event>
 9    1  0.2951046E-005  0.1498983E+03  0.7546771E-02  0.1202600E+00
          1   -1    0    0  502    0  0.00000000000E+00  0.00000000000E+00  0.84614814009E+03  0.84614814009E+03  0.00000000000E+00 0. -1.
         -2   -1    0    0    0  501 -0.00000000000E+00 -0.00000000000E+00 -0.19424000200E+03  0.19424000200E+03  0.00000000000E+00 0.  1.
         23    2    1    2    0    0  0.10904024610E+03 -0.56547162808E+02 -0.15414558796E+03  0.21725301527E+03  0.91381909951E+02 0.  0.
        -24    2    1    2    0    0 -0.57524536842E+02  0.32275321267E+02  0.40994518508E+03  0.42295395931E+03  0.80524705651E+02 0.  0.
         11    1    4    4    0    0 -0.77319373668E+02  0.33117379744E+02  0.34075710087E+03  0.35098496859E+03  0.00000000000E+00 0. -1.
        -12    1    4    4    0    0  0.19794836826E+02 -0.84205847692E+00  0.69188084213E+02  0.71968990715E+02  0.00000000000E+00 0.  1.
        -11    1    3    3    0    0  0.23954098396E+02 -0.53243324680E+01  0.90989552540E+01  0.26171326541E+02  0.00000000000E+00 0. -1.
         11    1    3    3    0    0  0.85086147700E+02 -0.51222830340E+02 -0.16324454322E+03  0.19108168873E+03  0.00000000000E+00 0.  1.
         21    1    1    2  502  501 -0.51515709255E+02  0.24271841541E+02  0.39610854098E+03  0.40018116750E+03  0.00000000000E+00 0. -1.
<scales pt_clust_5="13000.00000" pt_clust_6="13000.00000" pt_clust_7="13000.00000" pt_clust_8="13000.00000" pt_clust_9="56.94726"></scales>
<clustering>
<clus scale="   56.947">  1  9  2 -1</clus>
<clus scale="   80.525">  5  6 -1 -1</clus>
<clus scale="   91.382">  7  8 -1 -1</clus>
<clus scale="  143.538">  1  5  2 -1</clus>
<clus scale="   56.947">  1  5  2 -1</clus>
</clustering>
</event>
<event>
 9    1  0.2951046E-005  0.1003450E+03  0.7546771E-02  0.1284477E+00
          1   -1    0    0  502    0  0.00000000000E+00  0.00000000000E+00  0.17253053274E+03  0.17253053274E+03  0.00000000000E+00 0. -1.
         -2   -1    0    0    0  501 -0.00000000000E+00 -0.00000000000E+00 -0.93982843836E+02  0.93982843836E+02  0.00000000000E+00 0.  1.
        -24    2    1    2    0    0 -0.33955024849E+02 -0.20394493256E+02 -0.25155552623E+02  0.93562872990E+02  0.80946465684E+02 0.  0.
         23    2    1    2    0    0  0.30921715077E+02  0.42377621829E+02  0.52931333805E+02  0.11754070731E+03  0.90895965150E+02 0.  0.
         13    1    3    3    0    0  0.14070357172E+02 -0.35316237693E+02 -0.16528370572E+01  0.38051852334E+02  0.00000000000E+00 0. -1.
        -14    1    3    3    0    0 -0.48025382021E+02  0.14921744437E+02 -0.23502715565E+02  0.55511020656E+02  0.00000000000E+00 0.  1.
        -13    1    4    4    0    0  0.60482346433E+02  0.20172111234E+02  0.16999817444E+02  0.65985014168E+02  0.00000000000E+00 0.  1.
         13    1    4    4    0    0 -0.29560631356E+02  0.22205510594E+02  0.35931516361E+02  0.51555693138E+02  0.00000000000E+00 0. -1.
         21    1    1    2  502  501  0.30333097716E+01 -0.21983128573E+02  0.50771907726E+02  0.55409796283E+02  0.00000000000E+00 0. -1.
<scales pt_clust_5="13000.00000" pt_clust_6="13000.00000" pt_clust_7="13000.00000" pt_clust_8="13000.00000" pt_clust_9="22.19142"></scales>
<clustering>
<clus scale="   22.191">  1  9  2 -1</clus>
<clus scale="   80.946">  5  6 -1 -1</clus>
<clus scale="   90.896">  7  8 -1 -1</clus>
<clus scale="   91.430">  2  5  1 -1</clus>
<clus scale="   22.191">  1  5  2 -1</clus>
</clustering>
</event>
<event>
 9    1  0.2951046E-005  0.1358640E+03  0.7546771E-02  0.1223368E+00
         -2   -1    0    0    0  501 -0.00000000000E+00  0.00000000000E+00  0.10451457736E+03  0.10451457736E+03  0.00000000000E+00 0.  1.
          1   -1    0    0  502    0  0.00000000000E+00 -0.00000000000E+00 -0.50495091534E+03  0.50495091534E+03  0.00000000000E+00 0. -1.
        -24    2    1    2    0    0 -0.45136949209E+02 -0.35349414910E+02  0.81703208118E+01  0.93013325732E+02  0.72785982876E+02 0.  0.
         23    2    1    2    0    0  0.11085651116E+03  0.17304636164E+02 -0.42273497093E+03  0.44685127569E+03  0.91556487707E+02 0.  0.
         13    1    3    3    0    0 -0.18257650234E+02  0.21146418808E+02  0.11836899844E+02  0.30341803150E+02  0.00000000000E+00 0. -1.
        -14    1    3    3    0    0 -0.26879298975E+02 -0.56495833718E+02 -0.36665790321E+01  0.62671522582E+02  0.00000000000E+00 0.  1.
        -13    1    4    4    0    0 -0.40491985998E+01 -0.22165669915E+02 -0.50734387763E+02  0.55512980768E+02  0.00000000000E+00 0.  1.
         13    1    4    4    0    0  0.11490570976E+03  0.39470306079E+02 -0.37200058316E+03  0.39133829492E+03  0.00000000000E+00 0. -1.
         21    1    1    2  502  501 -0.65719561954E+02  0.18044778746E+02  0.14128312129E+02  0.69600891280E+02  0.00000000000E+00 0.  1.
<scales pt_clust_5="13000.00000" pt_clust_6="13000.00000" pt_clust_7="13000.00000" pt_clust_8="13000.00000" pt_clust_9="68.15185"></scales>
<clustering>
<clus scale="   68.152">  1  9  2 -1</clus>
<clus scale="   72.786">  5  6 -1 -1</clus>
<clus scale="   91.556">  7  8 -1 -1</clus>
<clus scale="  123.993">  1  5  2 -1</clus>
<clus scale="  135.864">  2  5  1 -1</clus>
</clustering>
</event>
<event>
 9    1  0.2951046E-005  0.2952150E+03  0.7546771E-02  0.1136679E+00
          1   -1    0    0  502    0  0.00000000000E+00  0.00000000000E+00  0.11766182684E+04  0.11766182684E+04  0.00000000000E+00 0. -1.
         -2   -1    0    0    0  501 -0.00000000000E+00 -0.00000000000E+00 -0.31476324994E+03  0.31476324994E+03  0.00000000000E+00 0.  1.
        -24    2    1    2    0    0  0.25550134517E+02  0.11944001566E+01  0.30968941707E+02  0.90523622769E+02  0.81124687754E+02 0.  0.
         23    2    1    2    0    0 -0.31534849072E+01 -0.28118985073E+03 -0.18377081876E+03  0.34803897578E+03  0.91004056047E+02 0.  0.
         11    1    3    3    0    0  0.32073010358E+02  0.18464144126E+02 -0.15802522538E+02  0.40240804295E+02  0.00000000000E+00 0. -1.
        -12    1    3    3    0    0 -0.65228758405E+01 -0.17269743970E+02  0.46771464245E+02  0.50282818474E+02  0.00000000000E+00 0.  1.
        -13    1    4    4    0    0 -0.27978429218E+02 -0.20701033503E+03 -0.16840388123E+03  0.26832058908E+03  0.00000000000E+00 0.  1.
         13    1    4    4    0    0  0.24824944311E+02 -0.74179515698E+02 -0.15366937524E+02  0.79718386700E+02  0.00000000000E+00 0. -1.
         21    1    1    2  502  501 -0.22396649610E+02  0.27999545057E+03  0.10146568956E+04  0.10528189198E+04  0.00000000000E+00 0. -1.
<scales pt_clust_5="13000.00000" pt_clust_6="13000.00000" pt_clust_7="13000.00000" pt_clust_8="13000.00000" pt_clust_9="280.83830"></scales>
<clustering>
<clus scale="   81.125">  5  6 -1 -1</clus>
<clus scale="   85.061">  2  5  1 -1</clus>
<clus scale="   91.004">  7  8 -1 -1</clus>
<clus scale="  280.838">  1  9  2 -1</clus>
<clus scale="  280.838">  1  5  2 -1</clus>
</clustering>
</event>
<event>
 9    1  0.2951046E-005  0.9138703E+02  0.7546771E-02  0.1304541E+00
         -4   -1    0    0    0  501 -0.00000000000E+00  0.00000000000E+00  0.29432438366E+03  0.29432438366E+03  0.00000000000E+00 0.  1.
          3   -1    0    0  502    0  0.00000000000E+00 -0.00000000000E+00 -0.45883159306E+02  0.45883159306E+02  0.00000000000E+00 0. -1.
        -24    2    1    2    0    0  0.81199760977E+01  0.25977905206E+02  0.19313745371E+03  0.21111582376E+03  0.80790033092E+02 0.  0.
         23    2    1    2    0    0  0.15501734312E+01 -0.26463154301E+00  0.44464927839E+02  0.99559283685E+02  0.89064291905E+02 0.  0.
         13    1    3    3    0    0  0.16862282126E+02  0.50982038779E+02  0.15952668433E+03  0.16832191732E+03  0.00000000000E+00 0. -1.
        -14    1    3    3    0    0 -0.87423060282E+01 -0.25004133572E+02  0.33610769374E+02  0.42793906439E+02  0.00000000000E+00 0.  1.
        -13    1    4    4    0    0 -0.37050287564E+02 -0.23585735773E+02  0.20123850473E+02  0.48311283344E+02  0.00000000000E+00 0.  1.
         13    1    4    4    0    0  0.38600460995E+02  0.23321104230E+02  0.24341077367E+02  0.51248000341E+02  0.00000000000E+00 0. -1.
         21    1    1    2  502  501 -0.96701495290E+01 -0.25713273663E+02  0.10838842809E+02  0.29532435521E+02  0.00000000000E+00 0.  1.
<scales pt_clust_5="13000.00000" pt_clust_6="13000.00000" pt_clust_7="13000.00000" pt_clust_8="13000.00000" pt_clust_9="27.47152"></scales>
<clustering>
<clus scale="   27.472">  2  9  1 -1</clus>
<clus scale="   80.790">  5  6 -1 -1</clus>
<clus scale="   83.344">  1  5  2 -1</clus>
<clus scale="   89.064">  7  8 -1 -1</clus>
<clus scale="   27.472">  2  5  1 -1</clus>
</clustering>
</event>
<event>
 9    1  0.2951046E-005  0.9355444E+02  0.7546771E-02  0.1301072E+00
          1   -1    0    0  502    0  0.00000000000E+00  0.00000000000E+00  0.46436743931E+03  0.46436743931E+03  0.00000000000E+00 0. -1.
         -2   -1    0    0    0  501 -0.00000000000E+00 -0.00000000000E+00 -0.37227163125E+02  0.37227163125E+02  0.00000000000E+00 0.  1.
        -24    2    1    2    0    0 -0.19191656472E+02 -0.27653073115E+02  0.59044349461E+02  0.10527624417E+03  0.80398011496E+02 0.  0.
         23    2    1    2    0    0 -0.16525736871E+02 -0.81274589206E+01  0.19808389916E+03  0.21894849562E+03  0.91444283903E+02 0.  0.
         11    1    3    3    0    0 -0.47527795950E+02 -0.24425712505E+02  0.54626025868E+02  0.76416683528E+02  0.00000000000E+00 0. -1.
        -12    1    3    3    0    0  0.28336139479E+02 -0.32273606100E+01  0.44183235925E+01  0.28859560642E+02  0.00000000000E+00 0.  1.
        -11    1    4    4    0    0 -0.40007302818E+01  0.30952408974E+02  0.15982163347E+03  0.16284044949E+03  0.00000000000E+00 0.  1.
         11    1    4    4    0    0 -0.12525006590E+02 -0.39079867894E+02  0.38262265690E+02  0.56108046129E+02  0.00000000000E+00 0. -1.
         21    1    1    2  502  501  0.35717393343E+02  0.35780532035E+02  0.17001202756E+03  0.17736986265E+03  0.00000000000E+00 0.  1.
<scales pt_clust_5="13000.00000" pt_clust_6="13000.00000" pt_clust_7="13000.00000" pt_clust_8="13000.00000" pt_clust_9="50.55669"></scales>
<clustering>
<clus scale="   50.557">  1  9  2 -1</clus>
<clus scale="   80.398">  5  6 -1 -1</clus>
<clus scale="   82.790">  2  5  1 -1</clus>
<clus scale="   91.444">  7  8 -1 -1</clus>
<clus scale="   50.557">  1  5  2 -1</clus>
</clustering>
</event>
<event>
 9    1  0.2951046E-005  0.9337536E+02  0.7546771E-02  0.1295577E+00
          1   -1    0    0  502    0  0.00000000000E+00  0.00000000000E+00  0.22306378727E+03  0.22306378727E+03  0.00000000000E+00 0. -1.
         -2   -1    0    0    0  501 -0.00000000000E+00 -0.00000000000E+00 -0.40232326236E+03  0.40232326236E+03  0.00000000000E+00 0.  1.
        -24    2    1    2    0    0  0.59927240951E+01 -0.43055401756E+02 -0.38327624220E+03  0.39426269048E+03  0.81564152074E+02 0.  0.
         23    2    1    2    0    0 -0.10802378225E+02  0.23058687378E+02  0.17753560013E+03  0.19759446854E+03  0.82923399876E+02 0.  0.
         13    1    3    3    0    0 -0.50126213257E+01 -0.65668186953E+02 -0.24388190072E+03  0.25261793018E+03  0.00000000000E+00 0. -1.
        -14    1    3    3    0    0  0.11005345421E+02  0.22612785197E+02 -0.13939434148E+03  0.14164476030E+03  0.00000000000E+00 0.  1.
        -13    1    4    4    0    0 -0.45954977124E+02  0.82507996495E+01  0.11784310692E+03  0.12675540803E+03  0.00000000000E+00 0. -1.
         13    1    4    4    0    0  0.35152598900E+02  0.14807887728E+02  0.59692493208E+02  0.70839060509E+02  0.00000000000E+00 0.  1.
         21    1    1    2  502  501  0.48096541295E+01  0.19996714378E+02  0.26481166997E+02  0.33529890609E+02  0.00000000000E+00 0. -1.
<scales pt_clust_5="13000.00000" pt_clust_6="13000.00000" pt_clust_7="13000.00000" pt_clust_8="13000.00000" pt_clust_9="20.56700"></scales>
<clustering>
<clus scale="   20.567">  1  9  2 -1</clus>
<clus scale="   81.564">  5  6 -1 -1</clus>
<clus scale="   82.923">  7  8 -1 -1</clus>
<clus scale="   92.170">  2  5  1 -1</clus>
<clus scale="   20.567">  1  5  2 -1</clus>
</clustering>
</event>
<event>
 9    1  0.2951046E-005  0.1182590E+03  0.7546771E-02  0.1250270E+00
          1   -1    0    0  502    0  0.00000000000E+00  0.00000000000E+00  0.72425862276E+03  0.72425862276E+03  0.00000000000E+00 0. -1.
         -2   -1    0    0    0  501 -0.00000000000E+00 -0.00000000000E+00 -0.50645810045E+02  0.50645810045E+02  0.00000000000E+00 0.  1.
        -24    2    1    2    0    0  0.20954412697E+02  0.91233082963E+02  0.60046809574E+02  0.13616486073E+03  0.78566450336E+02 0.  0.
         23    2    1    2    0    0 -0.17238812911E+02 -0.71781616023E+01  0.32768596176E+03  0.34073548897E+03  0.91508913431E+02 0.  0.
         13    1    3    3    0    0 -0.68477571179E+01  0.82785000393E+02  0.66490863577E+02  0.10640151788E+03  0.00000000000E+00 0. -1.
        -14    1    3    3    0    0  0.27802169815E+02  0.84480825695E+01 -0.64440540029E+01  0.29763342848E+02  0.00000000000E+00 0.  1.
        -11    1    4    4    0    0 -0.46008373643E+02  0.23063498759E+02  0.17009303976E+03  0.17770857491E+03  0.00000000000E+00 0. -1.
         11    1    4    4    0    0  0.28769560732E+02 -0.30241660361E+02  0.15759292199E+03  0.16302691406E+03  0.00000000000E+00 0.  1.
         21    1    1    2  502  501 -0.37155997854E+01 -0.84054921361E+02  0.28588004138E+03  0.29800408311E+03  0.00000000000E+00 0. -1.
<scales pt_clust_5="13000.00000" pt_clust_6="13000.00000" pt_clust_7="13000.00000" pt_clust_8="13000.00000" pt_clust_9="84.13700"></scales>
<clustering>
<clus scale="   78.566">  5  6 -1 -1</clus>
<clus scale="   84.137">  1  9  2 -1</clus>
<clus scale="   91.509">  7  8 -1 -1</clus>
<clus scale="  108.554">  2  5  1 -1</clus>
<clus scale="   84.137">  1  5  2 -1</clus>
</clustering>
</event>
<event>
 9    1  0.2951046E-005  0.1426142E+03  0.7546771E-02  0.1212085E+00
          1   -1    0    0  502    0  0.00000000000E+00  0.00000000000E+00  0.13471625113E+03  0.13471625113E+03  0.00000000000E+00 0. -1.
         -2   -1    0    0    0  501 -0.00000000000E+00 -0.00000000000E+00 -0.30505180164E+03  0.30505180164E+03  0.00000000000E+00 0.  1.
         23    2    1    2    0    0  0.10554562392E+03  0.58757329907E+02 -0.22240192552E+03  0.26896327298E+03  0.91029243594E+02 0.  0.
        -24    2    1    2    0    0 -0.70658168542E+02 -0.19144862351E+02  0.44873953762E+02  0.11753177489E+03  0.80255491062E+02 0.  0.
         11    1    4    4    0    0 -0.60697155800E+02 -0.36276962044E+02  0.25038094091E+01  0.70756142906E+02  0.00000000000E+00 0. -1.
        -12    1    4    4    0    0 -0.99610127426E+01  0.17132099693E+02  0.42370144353E+02  0.46775631981E+02  0.00000000000E+00 0.  1.
        -11    1    3    3    0    0  0.59717611315E+02 -0.49486502973E+00 -0.16225809072E+03  0.17289917870E+03  0.00000000000E+00 0.  1.
         11    1    3    3    0    0  0.45828012608E+02  0.59252194936E+02 -0.60143834801E+02  0.96064094276E+02  0.00000000000E+00 0. -1.
         21    1    1    2  502  501 -0.34887455381E+02 -0.39612467556E+02  0.71924212476E+01  0.53273004911E+02  0.00000000000E+00 0. -1.
<scales pt_clust_5="13000.00000" pt_clust_6="13000.00000" pt_clust_7="13000.00000" pt_clust_8="13000.00000" pt_clust_9="52.78525"></scales>
<clustering>
<clus scale="   52.785">  1  9  2 -1</clus>
<clus scale="   80.255">  5  6 -1 -1</clus>
<clus scale="   91.029">  7  8 -1 -1</clus>
<clus scale="  135.991">  1  5  2 -1</clus>
<clus scale="   52.785">  1  5  2 -1</clus>
</clustering>
</event>
<event>
 9    1  0.2951046E-005  0.1058643E+03  0.7546771E-02  0.1275769E+00
         -2   -1    0    0    0  501 -0.00000000000E+00  0.00000000000E+00  0.10475370170E+03  0.10475370170E+03  0.00000000000E+00 0.  1.
          1   -1    0    0  502    0  0.00000000000E+00 -0.00000000000E+00 -0.32611308523E+03  0.32611308523E+03  0.00000000000E+00 0. -1.
         23    2    1    2    0    0 -0.30410261392E+02  0.40882640820E+02  0.52122860099E+02  0.12035695951E+03  0.95774896704E+02 0.  0.
        -24    2    1    2    0    0 -0.12028737486E+02 -0.35785161245E+02 -0.10822481771E+03  0.13981398757E+03  0.80062923128E+02 0.  0.
         13    1    4    4    0    0 -0.37555268136E+02 -0.39111122543E+02 -0.41455610403E+02  0.68254272432E+02  0.00000000000E+00 0. -1.
        -14    1    4    4    0    0  0.25526530650E+02  0.33259612984E+01 -0.66769207309E+02  0.71559715135E+02  0.00000000000E+00 0.  1.
        -13    1    3    3    0    0 -0.53134889659E+02  0.17749768941E+02  0.64693578735E+02  0.85578209411E+02  0.00000000000E+00 0.  1.
         13    1    3    3    0    0  0.22724628267E+02  0.23132871879E+02 -0.12570718636E+02  0.34778750096E+02  0.00000000000E+00 0. -1.
         21    1    1    2  502  501  0.42438998878E+02 -0.50974795752E+01 -0.16525742592E+03  0.17069583986E+03  0.00000000000E+00 0. -1.
<scales pt_clust_5="13000.00000" pt_clust_6="13000.00000" pt_clust_7="13000.00000" pt_clust_8="13000.00000" pt_clust_9="42.74404"></scales>
<clustering>
<clus scale="   42.744">  2  9  1 -1</clus>
<clus scale="   80.063">  5  6 -1 -1</clus>
<clus scale="   91.894">  2  5  1 -1</clus>
<clus scale="   95.775">  7  8 -1 -1</clus>
<clus scale="   42.744">  2  5  1 -1</clus>
</clustering>
</event>
<event>
 9    1  0.2951046E-005  0.9337664E+02  0.7546771E-02  0.1302884E+00
          1   -1    0    0  502    0  0.00000000000E+00  0.00000000000E+00  0.11293691670E+03  0.11293691670E+03  0.00000000000E+00 0. -1.
         -2   -1    0    0    0  501 -0.00000000000E+00 -0.00000000000E+00 -0.13881307153E+03  0.13881307153E+03  0.00000000000E+00 0.  1.
        -24    2    1    2    0    0  0.83585582485E+01 -0.26610439057E+02 -0.87105495826E+02  0.11893038748E+03  0.76020317684E+02 0.  0.
         23    2    1    2    0    0 -0.24764747899E+02  0.11578659449E+02  0.58575137034E+02  0.11041062362E+03  0.89510340388E+02 0.  0.
         13    1    3    3    0    0 -0.42536262469E+01 -0.52223037507E+02 -0.54819833125E+02  0.75832401297E+02  0.00000000000E+00 0. -1.
        -14    1    3    3    0    0  0.12612184495E+02  0.25612598450E+02 -0.32285662701E+02  0.43097986184E+02  0.00000000000E+00 0.  1.
        -11    1    4    4    0    0  0.12808401475E+02  0.28456809990E+02 -0.79161325709E+01  0.32194880618E+02  0.00000000000E+00 0.  1.
         11    1    4    4    0    0 -0.37573149374E+02 -0.16878150541E+02  0.66491269605E+02  0.78215743001E+02  0.00000000000E+00 0. -1.
         21    1    1    2  502  501  0.16406189650E+02  0.15031779608E+02  0.26542039582E+01  0.22408977122E+02  0.00000000000E+00 0.  1.
<scales pt_clust_5="13000.00000" pt_clust_6="13000.00000" pt_clust_7="13000.00000" pt_clust_8="13000.00000" pt_clust_9="22.25123"></scales>
<clustering>
<clus scale="   22.251">  1  9  2 -1</clus>
<clus scale="   76.020">  5  6 -1 -1</clus>
<clus scale="   80.537">  2  5  1 -1</clus>
<clus scale="   89.510">  7  8 -1 -1</clus>
<clus scale="   22.251">  1  5  2 -1</clus>
</clustering>
</event>
<event>
 9    1  0.2951046E-005  0.1362311E+03  0.7546771E-02  0.1237673E+00
         -2   -1    0    0    0  501 -0.00000000000E+00  0.00000000000E+00  0.41702977711E+02  0.41702977711E+02  0.00000000000E+00 0.  1.
          1   -1    0    0  502    0  0.00000000000E+00 -0.00000000000E+00 -0.10437744796E+04  0.10437744796E+04  0.00000000000E+00 0. -1.
         23    2    1    2    0    0 -0.32890309709E+02 -0.74826364300E+02 -0.12082351533E+03  0.17870864940E+03  0.10323614796E+03 0.  0.
        -24    2    1    2    0    0 -0.45103470610E+02 -0.16140771246E+02 -0.31816777222E+03  0.33108019652E+03  0.78028954147E+02 0.  0.
         11    1    4    4    0    0  0.21228356969E+02  0.28357610210E+01 -0.55106137352E+02  0.59121663153E+02  0.00000000000E+00 0. -1.
        -12    1    4    4    0    0 -0.66331827579E+02 -0.18976532267E+02 -0.26306163487E+03  0.27195853336E+03  0.00000000000E+00 0.  1.
        -13    1    3    3    0    0 -0.12122878177E+02  0.18095502000E+02  0.35554811497E+01  0.22069273076E+02  0.00000000000E+00 0.  1.
         13    1    3    3    0    0 -0.20767431532E+02 -0.92921866300E+02 -0.12437899648E+03  0.15663937632E+03  0.00000000000E+00 0. -1.
         21    1    1    2  502  501  0.77993780318E+02  0.90967135546E+02 -0.56308021430E+03  0.57568861136E+03  0.00000000000E+00 0. -1.
<scales pt_clust_5="13000.00000" pt_clust_6="13000.00000" pt_clust_7="13000.00000" pt_clust_8="13000.00000" pt_clust_9="88.88870"></scales>
<clustering>
<clus scale="   78.029">  5  6 -1 -1</clus>
<clus scale="   91.561">  2  5  1 -1</clus>
<clus scale="   88.889">  2  9  1 -1</clus>
<clus scale="  103.236">  7  8 -1 -1</clus>
<clus scale="   91.561">  2  5  1 -1</clus>
</clustering>
</event>
<event>
 9    1  0.2951046E-005  0.1108855E+03  0.7546771E-02  0.1262906E+00
         -2   -1    0    0    0  501 -0.00000000000E+00  0.00000000000E+00  0.69058782998E+02  0.69058782998E+02  0.00000000000E+00 0.  1.
          1   -1    0    0  502    0  0.00000000000E+00 -0.00000000000E+00 -0.32822030211E+03  0.32822030211E+03  0.00000000000E+00 0. -1.
         23    2    1    2    0    0  0.21162881830E+02 -0.68945671860E+02 -0.11034973219E+02  0.11745492201E+03  0.92046264648E+02 0.  0.
        -24    2    1    2    0    0 -0.19905686934E+02  0.28694407023E+02 -0.16559855883E+03  0.18799490028E+03  0.81851050563E+02 0.  0.
         13    1    4    4    0    0  0.15137459399E+02  0.45927349432E+02 -0.10884747486E+03  0.11910599014E+03  0.00000000000E+00 0. -1.
        -14    1    4    4    0    0 -0.35043146333E+02 -0.17232942409E+02 -0.56751083961E+02  0.68888910137E+02  0.00000000000E+00 0.  1.
        -11    1    3    3    0    0 -0.81760980315E+01 -0.51737592434E+02 -0.45243903880E+02  0.69214434103E+02  0.00000000000E+00 0.  1.
         11    1    3    3    0    0  0.29338979861E+02 -0.17208079426E+02  0.34208930662E+02  0.48240487910E+02  0.00000000000E+00 0. -1.
         21    1    1    2  502  501 -0.12571948958E+01  0.40251264838E+02 -0.82527987064E+02  0.91829262814E+02  0.00000000000E+00 0.  1.
<scales pt_clust_5="13000.00000" pt_clust_6="13000.00000" pt_clust_7="13000.00000" pt_clust_8="13000.00000" pt_clust_9="40.27089"></scales>
<clustering>
<clus scale="   40.271">  2  9  1 -1</clus>
<clus scale="   81.851">  5  6 -1 -1</clus>
<clus scale="   92.046">  7  8 -1 -1</clus>
<clus scale="  102.580">  2  5  1 -1</clus>
<clus scale="   40.271">  2  5  1 -1</clus>
</clustering>
</event>
<event>
 9    1  0.2951046E-005  0.9836815E+02  0.7546771E-02  0.1288837E+00
          1   -1    0    0  502    0  0.00000000000E+00  0.00000000000E+00  0.21599710767E+03  0.21599710767E+03  0.00000000000E+00 0. -1.
         -2   -1    0    0    0  501 -0.00000000000E+00 -0.00000000000E+00 -0.86057311614E+02  0.86057311614E+02  0.00000000000E+00 0.  1.
        -24    2    1    2    0    0 -0.42755205904E+02 -0.13796800860E+02 -0.35293402606E+02  0.98274498145E+02  0.79961824468E+02 0.  0.
         23    2    1    2    0    0  0.18288611892E+02  0.11499473128E+01  0.12664941410E+03  0.15637458855E+03  0.89872922215E+02 0.  0.
         13    1    3    3    0    0 -0.45136579026E+02  0.68607812225E+01  0.11489320207E+02  0.47078504267E+02  0.00000000000E+00 0. -1.
        -14    1    3    3    0    0  0.23813731220E+01 -0.20657582082E+02 -0.46782722813E+02  0.51195993878E+02  0.00000000000E+00 0.  1.
        -13    1    4    4    0    0  0.31255800481E+02 -0.34388770112E+02  0.38135102398E+02  0.60114878428E+02  0.00000000000E+00 0.  1.
         13    1    4    4    0    0 -0.12967188589E+02  0.35538717424E+02  0.88514311701E+02  0.96259710118E+02  0.00000000000E+00 0. -1.
         21    1    1    2  502  501  0.24466594012E+02  0.12646853547E+02  0.38583784567E+02  0.47405332598E+02  0.00000000000E+00 0. -1.
<scales pt_clust_5="13000.00000" pt_clust_6="13000.00000" pt_clust_7="13000.00000" pt_clust_8="13000.00000" pt_clust_9="27.54192"></scales>
<clustering>
<clus scale="   27.542">  1  9  2 -1</clus>
<clus scale="   79.962">  5  6 -1 -1</clus>
<clus scale="   89.404">  2  5  1 -1</clus>
<clus scale="   89.873">  7  8 -1 -1</clus>
<clus scale="   27.542">  1  5  2 -1</clus>
</clustering>
</event>
<event>
 9    1  0.2951046E-005  0.9265220E+02  0.7546771E-02  0.1304227E+00
         -2   -1    0    0    0  501 -0.00000000000E+00  0.00000000000E+00  0.94720375933E+02  0.94720375933E+02  0.00000000000E+00 0.  1.
          1   -1    0    0  502    0  0.00000000000E+00 -0.00000000000E+00 -0.24468826577E+03  0.24468826577E+03  0.00000000000E+00 0. -1.
        -24    2    1    2    0    0  0.97615055929E+01 -0.13401362712E+02  0.48558254277E+02  0.93210087817E+02  0.77816019549E+02 0.  0.
         23    2    1    2    0    0 -0.10958064804E+02  0.39227983354E+02 -0.87591540736E+02  0.13229099350E+03  0.90386476251E+02 0.  0.
         11    1    3    3    0    0  0.17863732317E+02  0.29209862050E+02  0.31743414687E+02  0.46690184721E+02  0.00000000000E+00 0. -1.
        -12    1    3    3    0    0 -0.81022267244E+01 -0.42611224762E+02  0.16814839590E+02  0.46519903096E+02  0.00000000000E+00 0.  1.
        -13    1    4    4    0    0 -0.24672920330E+02 -0.23107851675E+02 -0.41689903849E+02  0.53672841267E+02  0.00000000000E+00 0. -1.
         13    1    4    4    0    0  0.13714855526E+02  0.62335835029E+02 -0.45901636887E+02  0.78618152229E+02  0.00000000000E+00 0.  1.
         21    1    1    2  502  501  0.11965592109E+01 -0.25826620642E+02 -0.11093460338E+03  0.11390756039E+03  0.00000000000E+00 0. -1.
<scales pt_clust_5="13000.00000" pt_clust_6="13000.00000" pt_clust_7="13000.00000" pt_clust_8="13000.00000" pt_clust_9="25.85432"></scales>
<clustering>
<clus scale="   25.854">  2  9  1 -1</clus>
<clus scale="   77.816">  5  6 -1 -1</clus>
<clus scale="   80.437">  1  5  2 -1</clus>
<clus scale="   90.386">  7  8 -1 -1</clus>
<clus scale="   25.854">  2  5  1 -1</clus>
</clustering>
</event>
<event>
 9    1  0.2951046E-005  0.1277212E+03  0.7546771E-02  0.1247374E+00
          1   -1    0    0  502    0  0.00000000000E+00  0.00000000000E+00  0.47563794823E+03  0.47563794823E+03  0.00000000000E+00 0. -1.
         -2   -1    0    0    0  501 -0.00000000000E+00 -0.00000000000E+00 -0.12224068328E+03  0.12224068328E+03  0.00000000000E+00 0.  1.
        -24    2    1    2    0    0 -0.33563504575E+02  0.28078883159E+02 -0.65955792442E+02  0.11264251560E+03  0.80145101199E+02 0.  0.
         23    2    1    2    0    0 -0.22015533395E+02  0.72653506387E+02  0.28303995563E+03  0.30686205534E+03  0.91046629964E+02 0.  0.
         13    1    3    3    0    0  0.17843659414E+02 -0.12883515038E+02 -0.31502515009E+02  0.38429020192E+02  0.00000000000E+00 0. -1.
        -14    1    3    3    0    0 -0.51407163989E+02  0.40962398197E+02 -0.34453277434E+02  0.74213495412E+02  0.00000000000E+00 0.  1.
        -13    1    4    4    0    0 -0.45603663742E+02  0.23133236219E+02  0.20624612547E+03  0.21249071753E+03  0.00000000000E+00 0. -1.
         13    1    4    4    0    0  0.23588130347E+02  0.49520270168E+02  0.76793830155E+02  0.94371337813E+02  0.00000000000E+00 0.  1.
         21    1    1    2  502  501  0.55579037970E+02 -0.10073238955E+03  0.13631310177E+03  0.17837406056E+03  0.00000000000E+00 0. -1.
<scales pt_clust_5="13000.00000" pt_clust_6="13000.00000" pt_clust_7="13000.00000" pt_clust_8="13000.00000" pt_clust_9="89.57237"></scales>
<clustering>
<clus scale="   80.145">  5  6 -1 -1</clus>
<clus scale="   91.047">  7  8 -1 -1</clus>
<clus scale="   91.314">  2  5  1 -1</clus>
<clus scale="   89.572">  2  9  1 -1</clus>
<clus scale="  127.721">  1  5  2 -1</clus>
</clustering>
</event>
<event>
 9    1  0.2951046E-005  0.1514503E+03  0.7546771E-02  0.1201252E+00
         -2   -1    0    0    0  501 -0.00000000000E+00  0.00000000000E+00  0.98886643669E+02  0.98886643669E+02  0.00000000000E+00 0.  1.
          1   -1    0    0  502    0  0.00000000000E+00 -0.00000000000E+00 -0.91239727025E+03  0.91239727025E+03  0.00000000000E+00 0. -1.
         23    2    1    2    0    0 -0.53402058619E+02 -0.11513263472E+03  0.22314903766E+02  0.15641873662E+03  0.88665454352E+02 0.  0.
        -24    2    1    2    0    0  0.74148566693E+02  0.60537459199E+02 -0.57686887791E+03  0.58940407162E+03  0.73869231941E+02 0.  0.
         11    1    4    4    0    0  0.33947948827E+02  0.66465618185E+02 -0.28036821819E+03  0.29013183107E+03  0.00000000000E+00 0. -1.
        -12    1    4    4    0    0  0.40200617865E+02 -0.59281589855E+01 -0.29650065972E+03  0.29927224055E+03  0.00000000000E+00 0.  1.
        -13    1    3    3    0    0 -0.53171820846E+02 -0.86017297323E+02  0.52954905263E+02  0.11415095252E+03  0.00000000000E+00 0.  1.
         13    1    3    3    0    0 -0.23023777356E+00 -0.29115337393E+02 -0.30640001497E+02  0.42267784099E+02  0.00000000000E+00 0. -1.
         21    1    1    2  502  501 -0.20746508073E+02  0.54595175517E+02 -0.25895665244E+03  0.26546110568E+03  0.00000000000E+00 0. -1.
<scales pt_clust_5="13000.00000" pt_clust_6="13000.00000" pt_clust_7="13000.00000" pt_clust_8="13000.00000" pt_clust_9="58.40420"></scales>
<clustering>
<clus scale="   58.404">  2  9  1 -1</clus>
<clus scale="   73.869">  5  6 -1 -1</clus>
<clus scale="   88.665">  7  8 -1 -1</clus>
<clus scale="  143.291">  2  5  1 -1</clus>
<clus scale="   58.404">  2  5  1 -1</clus>
</clustering>
</event>
<event>
 9    1  0.2951046E-005  0.1040797E+03  0.7546771E-02  0.1277545E+00
          1   -1    0    0  502    0  0.00000000000E+00  0.00000000000E+00  0.12695122573E+03  0.12695122573E+03  0.00000000000E+00 0. -1.
         -2   -1    0    0    0  501 -0.00000000000E+00 -0.00000000000E+00 -0.13843235356E+03  0.13843235356E+03  0.00000000000E+00 0.  1.
         23    2    1    2    0    0 -0.41521717212E+02  0.18153501401E+02 -0.69026523913E+02  0.12377661158E+03  0.92208383333E+02 0.  0.
        -24    2    1    2    0    0  0.60965804533E+02  0.29906131345E+01  0.45137781029E+02  0.11031647359E+03  0.80040814457E+02 0.  0.
         11    1    4    4    0    0  0.19844342840E+02 -0.36983824424E+02  0.10306214621E+02  0.43218274741E+02  0.00000000000E+00 0. -1.
        -12    1    4    4    0    0  0.41121461693E+02  0.39974437558E+02  0.34831566407E+02  0.67098198845E+02  0.00000000000E+00 0.  1.
        -13    1    3    3    0    0 -0.69929688920E+02  0.10666915814E+02 -0.35325863189E+02  0.79068711229E+02  0.00000000000E+00 0.  1.
         13    1    3    3    0    0  0.28407971709E+02  0.74865855876E+01 -0.33700660724E+02  0.44707900349E+02  0.00000000000E+00 0. -1.
         21    1    1    2  502  501 -0.19444087321E+02 -0.21144114536E+02  0.12407615060E+02  0.31290494128E+02  0.00000000000E+00 0. -1.
<scales pt_clust_5="13000.00000" pt_clust_6="13000.00000" pt_clust_7="13000.00000" pt_clust_8="13000.00000" pt_clust_9="28.72536"></scales>
<clustering>
<clus scale="   28.725">  1  9  2 -1</clus>
<clus scale="   80.041">  5  6 -1 -1</clus>
<clus scale="   92.208">  7  8 -1 -1</clus>
<clus scale="   93.470">  1  5  2 -1</clus>
<clus scale="   28.725">  1  5  2 -1</clus>
</clustering>
</event>
<event>
 9    1  0.2951046E-005  0.1866267E+03  0.7546771E-02  0.1162735E+00
         -2   -1    0    0    0  501 -0.00000000000E+00  0.00000000000E+00  0.22961476044E+03  0.22961476044E+03  0.00000000000E+00 0.  1.
          1   -1    0    0  502    0  0.00000000000E+00 -0.00000000000E+00 -0.26089163909E+03  0.26089163909E+03  0.00000000000E+00 0. -1.
        -24    2    1    2    0    0  0.22351906867E+02 -0.15708622351E+03  0.12695135523E+03  0.21877332382E+03  0.81052028112E+02 0.  0.
         23    2    1    2    0    0 -0.30175777933E+02  0.17553617082E+03 -0.13861882173E+03  0.24369484183E+03  0.91915577332E+02 0.  0.
         11    1    3    3    0    0 -0.24739221830E+02 -0.16497981025E+02  0.17716537560E+02  0.34613410375E+02  0.00000000000E+00 0. -1.
        -12    1    3    3    0    0  0.47091128697E+02 -0.14058824249E+03  0.10923481767E+03  0.18415991344E+03  0.00000000000E+00 0.  1.
        -13    1    4    4    0    0 -0.10016914150E+02  0.17228131128E+03 -0.98566174328E+02  0.19873721218E+03  0.00000000000E+00 0. -1.
         13    1    4    4    0    0 -0.20158863783E+02  0.32548595437E+01 -0.40052647398E+02  0.44957629645E+02  0.00000000000E+00 0.  1.
         21    1    1    2  502  501  0.78238710666E+01 -0.18449947309E+02 -0.19609412154E+02  0.28038233881E+02  0.00000000000E+00 0.  1.
<scales pt_clust_5="13000.00000" pt_clust_6="13000.00000" pt_clust_7="13000.00000" pt_clust_8="13000.00000" pt_clust_9="20.04030"></scales>
<clustering>
<clus scale="   20.040">  2  9  1 -1</clus>
<clus scale="   81.052">  5  6 -1 -1</clus>
<clus scale="   91.916">  7  8 -1 -1</clus>
<clus scale="  181.523">  1  5  2 -1</clus>
<clus scale="   20.040">  2  5  1 -1</clus>
</clustering>
</event>
<event>
 9    1  0.2951046E-005  0.9430512E+02  0.7546771E-02  0.1300013E+00
         -2   -1    0    0    0  501 -0.00000000000E+00  0.00000000000E+00  0.12205017860E+02  0.12205017860E+02  0.00000000000E+00 0.  1.
          1   -1    0    0  502    0  0.00000000000E+00 -0.00000000000E+00 -0.93751634159E+03  0.93751634159E+03  0.00000000000E+00 0. -1.
        -24    2    1    2    0    0 -0.48223401080E+01 -0.35050851493E+02 -0.32159066927E+03  0.33334849835E+03  0.80304704931E+02 0.  0.
         23    2    1    2    0    0 -0.37333657264E+01  0.64996025059E+01 -0.49624195247E+03  0.50483791007E+03  0.92461111815E+02 0.  0.
         13    1    3    3    0    0  0.29474698831E+02 -0.35483741743E+02 -0.24671730359E+03  0.25099259290E+03  0.00000000000E+00 0. -1.
        -14    1    3    3    0    0 -0.34297038939E+02  0.43289024940E+00 -0.74873365682E+02  0.82355905450E+02  0.00000000000E+00 0.  1.
        -13    1    4    4    0    0  0.12091401087E+02  0.47386216112E+02 -0.25673835238E+03  0.26135461932E+03  0.00000000000E+00 0. -1.
         13    1    4    4    0    0 -0.15824766813E+02 -0.40886613606E+02 -0.23950360009E+03  0.24348329075E+03  0.00000000000E+00 0.  1.
         21    1    1    2  502  501  0.85557058345E+01  0.28551248987E+02 -0.10747870199E+03  0.11153495104E+03  0.00000000000E+00 0. -1.
<scales pt_clust_5="13000.00000" pt_clust_6="13000.00000" pt_clust_7="13000.00000" pt_clust_8="13000.00000" pt_clust_9="29.80560"></scales>
<clustering>
<clus scale="   29.806">  1  9  2 -1</clus>
<clus scale="   80.305">  5  6 -1 -1</clus>
<clus scale="   82.421">  1  5  2 -1</clus>
<clus scale="   92.461">  7  8 -1 -1</clus>
<clus scale="   94.305">  2  5  1 -1</clus>
</clustering>
</event>
<event>
 9    1  0.2951046E-005  0.1335912E+03  0.7546771E-02  0.1225721E+00
         -2   -1    0    0    0  501 -0.00000000000E+00  0.00000000000E+00  0.61802454651E+03  0.61802454651E+03  0.00000000000E+00 0.  1.
          1   -1    0    0  502    0  0.00000000000E+00 -0.00000000000E+00 -0.66762936164E+02  0.66762936164E+02  0.00000000000E+00 0. -1.
        -24    2    1    2    0    0  0.40431109106E+02  0.88288617311E+02  0.47337553785E+03  0.48954162570E+03  0.78339319201E+02 0.  0.
         23    2    1    2    0    0 -0.56597754804E+02 -0.76289427674E+02  0.99443032601E+02  0.16574935694E+03  0.92523240154E+02 0.  0.
         13    1    3    3    0    0 -0.11708493878E+02  0.31802736862E+02  0.58523778337E+02  0.67627919764E+02  0.00000000000E+00 0. -1.
        -14    1    3    3    0    0  0.52139602985E+02  0.56485880449E+02  0.41485175951E+03  0.42191370594E+03  0.00000000000E+00 0.  1.
        -13    1    4    4    0    0 -0.81690496423E+02 -0.48075212664E+02  0.68859953328E+02  0.11715910742E+03  0.00000000000E+00 0.  1.
         13    1    4    4    0    0  0.25092741619E+02 -0.28214215010E+02  0.30583079273E+02  0.48590249520E+02  0.00000000000E+00 0. -1.
         21    1    1    2  502  501  0.16166645698E+02 -0.11999189637E+02 -0.21556960106E+02  0.29496500031E+02  0.00000000000E+00 0. -1.
<scales pt_clust_5="13000.00000" pt_clust_6="13000.00000" pt_clust_7="13000.00000" pt_clust_8="13000.00000" pt_clust_9="20.13308"></scales>
<clustering>
<clus scale="   20.133">  2  9  1 -1</clus>
<clus scale="   78.339">  5  6 -1 -1</clus>
<clus scale="   92.523">  7  8 -1 -1</clus>
<clus scale="  124.190">  1  5  2 -1</clus>
<clus scale="   20.133">  2  5  1 -1</clus>
</clustering>
</event>
<event>
 9    1  0.2951046E-005  0.1542825E+03  0.7546771E-02  0.1197277E+00
          1   -1    0    0  502    0  0.00000000000E+00  0.00000000000E+00  0.11859710632E+03  0.11859710632E+03  0.00000000000E+00 0. -1.
         -2   -1    0    0    0  501 -0.00000000000E+00 -0.00000000000E+00 -0.30962415461E+03  0.30962415461E+03  0.00000000000E+00 0.  1.
         23    2    1    2    0    0  0.10084933853E+03 -0.84299481278E+02 -0.18084615342E+03  0.24164986029E+03  0.91718766585E+02 0.  0.
        -24    2    1    2    0    0 -0.61468401110E+02  0.95732811221E+02 -0.27697061284E+02  0.14197997375E+03  0.80299752569E+02 0.  0.
         11    1    4    4    0    0 -0.67171605129E+02  0.38531807467E+02  0.16108789171E+01  0.77455275180E+02  0.00000000000E+00 0. -1.
        -12    1    4    4    0    0  0.57032040197E+01  0.57201003754E+02 -0.29307940201E+02  0.64524698569E+02  0.00000000000E+00 0.  1.
        -11    1    3    3    0    0  0.31269188844E+02 -0.23544846813E+02 -0.13092628500E+03  0.13665216458E+03  0.00000000000E+00 0.  1.
         11    1    3    3    0    0  0.69580149689E+02 -0.60754634465E+02 -0.49919868423E+02  0.10499769570E+03  0.00000000000E+00 0. -1.
         21    1    1    2  502  501 -0.39380937423E+02 -0.11433329942E+02  0.17516166413E+02  0.44591426886E+02  0.00000000000E+00 0. -1.
<scales pt_clust_5="13000.00000" pt_clust_6="13000.00000" pt_clust_7="13000.00000" pt_clust_8="13000.00000" pt_clust_9="41.00706"></scales>
<clustering>
<clus scale="   41.007">  1  9  2 -1</clus>
<clus scale="   80.300">  5  6 -1 -1</clus>
<clus scale="   91.719">  7  8 -1 -1</clus>
<clus scale="  147.780">  1  5  2 -1</clus>
<clus scale="   41.007">  1  5  2 -1</clus>
</clustering>
</event>
<event>
 9    1  0.2951046E-005  0.2919122E+03  0.7546771E-02  0.1089671E+00
         -2   -1    0    0    0  501 -0.00000000000E+00  0.00000000000E+00  0.21083409180E+03  0.21083409180E+03  0.00000000000E+00 0.  1.
          1   -1    0    0  502    0  0.00000000000E+00 -0.00000000000E+00 -0.10249665010E+04  0.10249665010E+04  0.00000000000E+00 0. -1.
        -24    2    1    2    0    0 -0.26787326420E+03  0.72255102377E+02  0.68321325008E+02  0.29759505018E+03  0.83175266445E+02 0.  0.
         23    2    1    2    0    0  0.27327456587E+03 -0.46058923248E+02 -0.81384673609E+03  0.86456904317E+03  0.91283666705E+02 0.  0.
         13    1    3    3    0    0 -0.18289864820E+03  0.80393257038E+02  0.71436378018E+02  0.21217480387E+03  0.00000000000E+00 0. -1.
        -14    1    3    3    0    0 -0.84974615991E+02 -0.81381546602E+01 -0.31150530099E+01  0.85420246308E+02  0.00000000000E+00 0.  1.
        -11    1    4    4    0    0  0.15630621845E+03 -0.28878517975E+02 -0.59459557498E+03  0.61547502022E+03  0.00000000000E+00 0. -1.
         11    1    4    4    0    0  0.11696834742E+03 -0.17180405273E+02 -0.21925116111E+03  0.24909402295E+03  0.00000000000E+00 0.  1.
         21    1    1    2  502  501 -0.54013016755E+01 -0.26196179130E+02 -0.68606998104E+02  0.73636499439E+02  0.00000000000E+00 0.  1.
<scales pt_clust_5="13000.00000" pt_clust_6="13000.00000" pt_clust_7="13000.00000" pt_clust_8="13000.00000" pt_clust_9="26.74722"></scales>
<clustering>
<clus scale="   26.747">  2  9  1 -1</clus>
<clus scale="   83.175">  5  6 -1 -1</clus>
<clus scale="   91.284">  7  8 -1 -1</clus>
<clus scale="  289.479">  1  5  2 -1</clus>
<clus scale="   26.747">  2  5  1 -1</clus>
</clustering>
</event>
<event>
 9    1  0.2951046E-005  0.1602304E+03  0.7546771E-02  0.1195391E+00
         -2   -1    0    0    0  501 -0.00000000000E+00  0.00000000000E+00  0.61961274504E+02  0.61961274504E+02  0.00000000000E+00 0.  1.
          1   -1    0    0  502    0  0.00000000000E+00 -0.00000000000E+00 -0.10819521969E+04  0.10819521969E+04  0.00000000000E+00 0. -1.
         23    2    1    2    0    0  0.56624942244E+02  0.93792864593E+02 -0.71405699663E+02  0.17475219659E+03  0.11591406617E+03 0.  0.
        -24    2    1    2    0    0 -0.10140000144E+03 -0.73424026628E+02 -0.71164918498E+03  0.72717288362E+03  0.81625928580E+02 0.  0.
         11    1    4    4    0    0 -0.11389609905E+03 -0.75205535445E+02 -0.63624543193E+03  0.65071994252E+03  0.00000000000E+00 0. -1.
        -12    1    4    4    0    0  0.12496097617E+02  0.17815088165E+01 -0.75403753049E+02  0.76452941103E+02  0.00000000000E+00 0.  1.
        -11    1    3    3    0    0  0.23736130632E+02  0.11675395526E+03 -0.49164932799E+02  0.12888786050E+03  0.00000000000E+00 0.  1.
         11    1    3    3    0    0  0.32888811611E+02 -0.22961090672E+02 -0.22240766864E+02  0.45864336088E+02  0.00000000000E+00 0. -1.
         21    1    1    2  502  501  0.44775059193E+02 -0.20368837965E+02 -0.23693603773E+03  0.24198839117E+03  0.00000000000E+00 0. -1.
<scales pt_clust_5="13000.00000" pt_clust_6="13000.00000" pt_clust_7="13000.00000" pt_clust_8="13000.00000" pt_clust_9="49.19040"></scales>
<clustering>
<clus scale="   49.190">  2  9  1 -1</clus>
<clus scale="   81.626">  5  6 -1 -1</clus>
<clus scale="  115.914">  7  8 -1 -1</clus>
<clus scale="  137.479">  2  5  1 -1</clus>
<clus scale="   49.190">  2  5  1 -1</clus>
</clustering>
</event>
<event>
 9    1  0.2951046E-005  0.1116668E+03  0.7546771E-02  0.1260310E+00
         -2   -1    0    0    0  501 -0.00000000000E+00  0.00000000000E+00  0.13453971834E+03  0.13453971834E+03  0.00000000000E+00 0.  1.
          1   -1    0    0  502    0  0.00000000000E+00 -0.00000000000E+00 -0.21519439761E+03  0.21519439761E+03  0.00000000000E+00 0. -1.
         23    2    1    2    0    0  0.68081663114E+02  0.51442412886E+01  0.83577937671E+02  0.13900078057E+03  0.87603477457E+02 0.  0.
        -24    2    1    2    0    0 -0.75501803280E+02  0.14537911135E+02 -0.13399963005E+03  0.17390292539E+03  0.79840174396E+02 0.  0.
         13    1    4    4    0    0 -0.59447301002E+02  0.37742898063E+02 -0.12638234322E+03  0.14467551496E+03  0.00000000000E+00 0. -1.
        -14    1    4    4    0    0 -0.16054502278E+02 -0.23204986928E+02 -0.76172868210E+01  0.29227410426E+02  0.00000000000E+00 0.  1.
        -13    1    3    3    0    0  0.79489044102E+02 -0.15745280656E+02  0.81786275159E+02  0.11513217100E+03  0.00000000000E+00 0.  1.
         13    1    3    3    0    0 -0.11407380989E+02  0.20889521944E+02  0.17916625122E+01  0.23868609567E+02  0.00000000000E+00 0. -1.
         21    1    1    2  502  501  0.74201401658E+01 -0.19682152424E+02 -0.30232986897E+02  0.36830410001E+02  0.00000000000E+00 0. -1.
<scales pt_clust_5="13000.00000" pt_clust_6="13000.00000" pt_clust_7="13000.00000" pt_clust_8="13000.00000" pt_clust_9="21.03439"></scales>
<clustering>
<clus scale="   21.034">  2  9  1 -1</clus>
<clus scale="   79.840">  5  6 -1 -1</clus>
<clus scale="   87.603">  7  8 -1 -1</clus>
<clus scale="  105.686">  2  5  1 -1</clus>
<clus scale="   21.034">  2  5  1 -1</clus>
</clustering>
</event>
<event>
 9    1  0.2951046E-005  0.9342904E+02  0.7546771E-02  0.1301147E+00
         -2   -1    0    0    0  501 -0.00000000000E+00  0.00000000000E+00  0.72483020438E+02  0.72483020438E+02  0.00000000000E+00 0.  1.
          1   -1    0    0  502    0  0.00000000000E+00 -0.00000000000E+00 -0.22839792587E+03  0.22839792587E+03  0.00000000000E+00 0. -1.
        -24    2    1    2    0    0  0.22274175907E+02 -0.14716686438E+01 -0.91000157936E+01  0.85554906799E+02  0.82088531897E+02 0.  0.
         23    2    1    2    0    0  0.27150169919E+02  0.29134656016E+02 -0.91039463835E+02  0.13583449937E+03  0.92611378000E+02 0.  0.
         11    1    3    3    0    0  0.20969890395E+02  0.38139892063E+02  0.42555028998E+01  0.43732104623E+02  0.00000000000E+00 0. -1.
        -12    1    3    3    0    0  0.13042855114E+01 -0.39611560707E+02 -0.13355518693E+02  0.41822802177E+02  0.00000000000E+00 0.  1.
        -11    1    4    4    0    0 -0.33071691912E+02  0.19695068148E+02 -0.46358347087E+02  0.60255529704E+02  0.00000000000E+00 0.  1.
         11    1    4    4    0    0  0.60221861830E+02  0.94395878676E+01 -0.44681116748E+02  0.75578969663E+02  0.00000000000E+00 0. -1.
         21    1    1    2  502  501 -0.49424345825E+02 -0.27662987372E+02 -0.55775425806E+02  0.79491540144E+02  0.00000000000E+00 0.  1.
<scales pt_clust_5="13000.00000" pt_clust_6="13000.00000" pt_clust_7="13000.00000" pt_clust_8="13000.00000" pt_clust_9="56.63927"></scales>
<clustering>
<clus scale="   56.639">  2  9  1 -1</clus>
<clus scale="   82.089">  5  6 -1 -1</clus>
<clus scale="   83.010">  1  5  2 -1</clus>
<clus scale="   92.611">  7  8 -1 -1</clus>
<clus scale="   56.639">  2  5  1 -1</clus>
</clustering>
</event>
<event>
 9    1  0.2951046E-005  0.9890109E+02  0.7546771E-02  0.1287428E+00
         -2   -1    0    0    0  501 -0.00000000000E+00  0.00000000000E+00  0.62474837526E+02  0.62474837526E+02  0.00000000000E+00 0.  1.
          1   -1    0    0  502    0  0.00000000000E+00 -0.00000000000E+00 -0.48088085721E+03  0.48088085721E+03  0.00000000000E+00 0. -1.
         23    2    1    2    0    0 -0.30298746415E+01  0.45010929550E+02  0.10406231014E+02  0.10037317942E+03  0.89057967551E+02 0.  0.
        -24    2    1    2    0    0 -0.13378293417E+02 -0.29672536500E+02 -0.29260928910E+03  0.30493998191E+03  0.79427692539E+02 0.  0.
         13    1    4    4    0    0 -0.88622677786E+00 -0.53895567629E+02 -0.23645558378E+03  0.24252167060E+03  0.00000000000E+00 0. -1.
        -14    1    4    4    0    0 -0.12492066639E+02  0.24223031129E+02 -0.56153705317E+02  0.62418311310E+02  0.00000000000E+00 0.  1.
        -13    1    3    3    0    0  0.13857643471E+02  0.64904889275E+02  0.24463130331E+02  0.70732762423E+02  0.00000000000E+00 0.  1.
         13    1    3    3    0    0 -0.16887518112E+02 -0.19893959725E+02 -0.14056899317E+02  0.29640417000E+02  0.00000000000E+00 0. -1.
         21    1    1    2  502  501  0.16408168058E+02 -0.15338393050E+02 -0.13620296160E+03  0.13804253341E+03  0.00000000000E+00 0. -1.
<scales pt_clust_5="13000.00000" pt_clust_6="13000.00000" pt_clust_7="13000.00000" pt_clust_8="13000.00000" pt_clust_9="22.46095"></scales>
<clustering>
<clus scale="   22.461">  2  9  1 -1</clus>
<clus scale="   79.428">  5  6 -1 -1</clus>
<clus scale="   89.058">  7  8 -1 -1</clus>
<clus scale="   90.326">  2  5  1 -1</clus>
<clus scale="   22.461">  2  5  1 -1</clus>
</clustering>
</event>
<event>
 9    1  0.2951046E-005  0.2120320E+03  0.7546771E-02  0.1140928E+00
         -4   -1    0    0    0  501 -0.00000000000E+00  0.00000000000E+00  0.46993473711E+03  0.46993473711E+03  0.00000000000E+00 0.  1.
          3   -1    0    0  502    0  0.00000000000E+00 -0.00000000000E+00 -0.18816984871E+03  0.18816984871E+03  0.00000000000E+00 0. -1.
         23    2    1    2    0    0  0.10238767853E+03 -0.16112135262E+03  0.19244341359E+03  0.28619902498E+03  0.91826398612E+02 0.  0.
        -24    2    1    2    0    0 -0.14377790786E+03  0.13143118958E+03  0.17394742478E+03  0.27313204073E+03  0.79982252439E+02 0.  0.
         11    1    4    4    0    0 -0.71169121809E+02  0.28876598981E+02  0.31045324847E+02  0.82841499640E+02  0.00000000000E+00 0. -1.
        -12    1    4    4    0    0 -0.72608786049E+02  0.10255459059E+03  0.14290209993E+03  0.19029054109E+03  0.00000000000E+00 0.  1.
        -11    1    3    3    0    0  0.65786455324E+02 -0.74224700353E+02  0.15651665622E+03  0.18529605372E+03  0.00000000000E+00 0.  1.
         11    1    3    3    0    0  0.36601223202E+02 -0.86896652271E+02  0.35926757362E+02  0.10090297127E+03  0.00000000000E+00 0. -1.
         21    1    1    2  502  501  0.41390229332E+02  0.29690163049E+02 -0.84625949966E+02  0.98773520103E+02  0.00000000000E+00 0.  1.
<scales pt_clust_5="13000.00000" pt_clust_6="13000.00000" pt_clust_7="13000.00000" pt_clust_8="13000.00000" pt_clust_9="50.93777"></scales>
<clustering>
<clus scale="   50.938">  2  9  1 -1</clus>
<clus scale="   79.982">  5  6 -1 -1</clus>
<clus scale="   91.826">  7  8 -1 -1</clus>
<clus scale="  207.178">  2  5  1 -1</clus>
<clus scale="   50.938">  2  5  1 -1</clus>
</clustering>
</event>
<event>
 9    1  0.2951046E-005  0.9599564E+02  0.7546771E-02  0.1296608E+00
         -2   -1    0    0    0  501 -0.00000000000E+00  0.00000000000E+00  0.26114225055E+03  0.26114225055E+03  0.00000000000E+00 0.  1.
          1   -1    0    0  502    0  0.00000000000E+00 -0.00000000000E+00 -0.61375042229E+02  0.61375042229E+02  0.00000000000E+00 0. -1.
         23    2    1    2    0    0 -0.56075185869E+02 -0.14523637925E+02  0.10278020108E+03  0.15074460549E+03  0.93833916148E+02 0.  0.
        -24    2    1    2    0    0  0.19900960273E+01 -0.61331108194E+01  0.39165468646E+02  0.89948311113E+02  0.80716721981E+02 0.  0.
         13    1    4    4    0    0 -0.47807583945E+01  0.35502108877E+02  0.60713302714E+01  0.36333406623E+02  0.00000000000E+00 0. -1.
        -14    1    4    4    0    0  0.67708544218E+01 -0.41635219696E+02  0.33094138375E+02  0.53614904491E+02  0.00000000000E+00 0.  1.
        -11    1    3    3    0    0  0.12834038182E+02 -0.35543599754E+02  0.29099719496E+02  0.47695426345E+02  0.00000000000E+00 0.  1.
         11    1    3    3    0    0 -0.68909224052E+02  0.21019961829E+02  0.73680481587E+02  0.10304917914E+03  0.00000000000E+00 0. -1.
         21    1    1    2  502  501  0.54085089842E+02  0.20656748744E+02  0.57821538589E+02  0.81824376176E+02  0.00000000000E+00 0.  1.
<scales pt_clust_5="13000.00000" pt_clust_6="13000.00000" pt_clust_7="13000.00000" pt_clust_8="13000.00000" pt_clust_9="57.89558"></scales>
<clustering>
<clus scale="   57.896">  1  9  2 -1</clus>
<clus scale="   80.717">  5  6 -1 -1</clus>
<clus scale="   83.220">  2  5  1 -1</clus>
<clus scale="   93.834">  7  8 -1 -1</clus>
<clus scale="   83.220">  2  5  1 -1</clus>
</clustering>
</event>
<event>
 9    1  0.2951046E-005  0.1348506E+03  0.7546771E-02  0.1223534E+00
         -2   -1    0    0    0  501 -0.00000000000E+00  0.00000000000E+00  0.57569131169E+03  0.57569131169E+03  0.00000000000E+00 0.  1.
          1   -1    0    0  502    0  0.00000000000E+00 -0.00000000000E+00 -0.54828164826E+02  0.54828164826E+02  0.00000000000E+00 0. -1.
        -24    2    1    2    0    0 -0.81085586840E+02 -0.61899990850E+02  0.38819956773E+03  0.40902017088E+03  0.78689990059E+02 0.  0.
         23    2    1    2    0    0  0.54438723682E+02  0.83013959732E+02  0.74986105432E+02  0.15454748736E+03  0.91690335892E+02 0.  0.
         13    1    3    3    0    0 -0.47314735803E+02 -0.36407845186E+02  0.91078008283E+02  0.10890095963E+03  0.00000000000E+00 0. -1.
        -14    1    3    3    0    0 -0.33770851037E+02 -0.25492145664E+02  0.29712155945E+03  0.30011921125E+03  0.00000000000E+00 0.  1.
        -11    1    4    4    0    0 -0.93086704461E+01  0.59401007681E+02  0.10868558481E+02  0.61100381524E+02  0.00000000000E+00 0.  1.
         11    1    4    4    0    0  0.63747394128E+02  0.23612952051E+02  0.64117546951E+02  0.93447105839E+02  0.00000000000E+00 0. -1.
         21    1    1    2  502  501  0.26646863158E+02 -0.21113968881E+02  0.57677473699E+02  0.66951818275E+02  0.00000000000E+00 0.  1.
<scales pt_clust_5="13000.00000" pt_clust_6="13000.00000" pt_clust_7="13000.00000" pt_clust_8="13000.00000" pt_clust_9="33.99787"></scales>
<clustering>
<clus scale="   33.998">  1  9  2 -1</clus>
<clus scale="   78.690">  5  6 -1 -1</clus>
<clus scale="   91.690">  7  8 -1 -1</clus>
<clus scale="  126.371">  1  5  2 -1</clus>
<clus scale="  134.851">  2  5  1 -1</clus>
</clustering>
</event>
<event>
 9    1  0.2951046E-005  0.1566078E+03  0.7546771E-02  0.1194852E+00
         -2   -1    0    0    0  501 -0.00000000000E+00  0.00000000000E+00  0.17687730354E+03  0.17687730354E+03  0.00000000000E+00 0.  1.
          1   -1    0    0  502    0  0.00000000000E+00 -0.00000000000E+00 -0.19972287755E+03  0.19972287755E+03  0.00000000000E+00 0. -1.
         23    2    1    2    0    0  0.89798788886E+02  0.80284889719E+02  0.69926931747E+02  0.16790512099E+03  0.93770293106E+02 0.  0.
        -24    2    1    2    0    0 -0.11466777330E+03 -0.80033556076E+02 -0.86558677045E+02  0.18306029422E+03  0.80402726439E+02 0.  0.
         11    1    4    4    0    0 -0.75668098224E+02 -0.39904301903E+01 -0.43354853616E+02  0.87299644638E+02  0.00000000000E+00 0. -1.
        -12    1    4    4    0    0 -0.38999675072E+02 -0.76043125886E+02 -0.43203823429E+02  0.95760649586E+02  0.00000000000E+00 0.  1.
        -11    1    3    3    0    0  0.54305776328E+02  0.98363785132E+02  0.57255032297E+02  0.12610586938E+03  0.00000000000E+00 0.  1.
         11    1    3    3    0    0  0.35493012558E+02 -0.18078895414E+02  0.12671899450E+02  0.41799251614E+02  0.00000000000E+00 0. -1.
         21    1    1    2  502  501  0.24868984410E+02 -0.25133364238E+00 -0.62138287162E+01  0.25634765875E+02  0.00000000000E+00 0. -1.
<scales pt_clust_5="13000.00000" pt_clust_6="13000.00000" pt_clust_7="13000.00000" pt_clust_8="13000.00000" pt_clust_9="24.87025"></scales>
<clustering>
<clus scale="   24.870">  2  9  1 -1</clus>
<clus scale="   80.403">  5  6 -1 -1</clus>
<clus scale="   93.770">  7  8 -1 -1</clus>
<clus scale="  148.989">  2  5  1 -1</clus>
<clus scale="   24.870">  2  5  1 -1</clus>
</clustering>
</event>
<event>
 9    1  0.2951046E-005  0.1277052E+03  0.7546771E-02  0.1233032E+00
         -2   -1    0    0    0  501 -0.00000000000E+00  0.00000000000E+00  0.96274498612E+02  0.96274498612E+02  0.00000000000E+00 0.  1.
          1   -1    0    0  502    0  0.00000000000E+00 -0.00000000000E+00 -0.50878719264E+03  0.50878719264E+03  0.00000000000E+00 0. -1.
        -24    2    1    2    0    0 -0.27098939808E+02 -0.88324289000E+02  0.37299329148E+02  0.12873744342E+03  0.81526417906E+02 0.  0.
         23    2    1    2    0    0  0.41719389881E+02  0.69113566777E+02 -0.42474705859E+03  0.44152393378E+03  0.89532830374E+02 0.  0.
         13    1    3    3    0    0 -0.12471497202E+02 -0.20732270546E+02 -0.25622189604E+02  0.35240060791E+02  0.00000000000E+00 0. -1.
        -14    1    3    3    0    0 -0.14627442606E+02 -0.67592018453E+02  0.62921518752E+02  0.93497382626E+02  0.00000000000E+00 0.  1.
        -13    1    4    4    0    0 -0.12821380747E+02  0.57957691548E+02 -0.28461138738E+03  0.29073548741E+03  0.00000000000E+00 0.  1.
         13    1    4    4    0    0  0.54540770628E+02  0.11155875229E+02 -0.14013567121E+03  0.15078844637E+03  0.00000000000E+00 0. -1.
         21    1    1    2  502  501 -0.14620450072E+02  0.19210722222E+02 -0.25064964588E+02  0.34800314057E+02  0.00000000000E+00 0. -1.
<scales pt_clust_5="13000.00000" pt_clust_6="13000.00000" pt_clust_7="13000.00000" pt_clust_8="13000.00000" pt_clust_9="24.14145"></scales>
<clustering>
<clus scale="   24.141">  2  9  1 -1</clus>
<clus scale="   81.526">  5  6 -1 -1</clus>
<clus scale="   89.533">  7  8 -1 -1</clus>
<clus scale="  122.225">  1  5  2 -1</clus>
<clus scale="   24.141">  2  5  1 -1</clus>
</clustering>
</event>
<event>
 9    1  0.2951046E-005  0.1098896E+03  0.7546771E-02  0.1267369E+00
          1   -1    0    0  502    0  0.00000000000E+00  0.00000000000E+00  0.55241082325E+02  0.55241082325E+02  0.00000000000E+00 0. -1.
         -2   -1    0    0    0  501 -0.00000000000E+00 -0.00000000000E+00 -0.53004647466E+03  0.53004647466E+03  0.00000000000E+00 0.  1.
        -24    2    1    2    0    0  0.40170997971E+02 -0.23128487686E+02 -0.42172367217E+03  0.43023487289E+03  0.71432164781E+02 0.  0.
         23    2    1    2    0    0 -0.52834468142E+02  0.42838846283E+02 -0.18367932079E+02  0.11317298977E+03  0.88566906409E+02 0.  0.
         13    1    3    3    0    0 -0.19507875562E+02 -0.13413021004E+02 -0.90978032554E+02  0.94007812169E+02  0.00000000000E+00 0. -1.
        -14    1    3    3    0    0  0.59678873534E+02 -0.97154666819E+01 -0.33074563961E+03  0.33622706072E+03  0.00000000000E+00 0.  1.
        -11    1    4    4    0    0 -0.64268523747E+02  0.11711842457E+02  0.14026030593E+02  0.66815716209E+02  0.00000000000E+00 0. -1.
         11    1    4    4    0    0  0.11434055605E+02  0.31127003827E+02 -0.32393962672E+02  0.46357273565E+02  0.00000000000E+00 0.  1.
         21    1    1    2  502  501  0.12663470171E+02 -0.19710358598E+02 -0.34713788087E+02  0.41879694318E+02  0.00000000000E+00 0. -1.
<scales pt_clust_5="13000.00000" pt_clust_6="13000.00000" pt_clust_7="13000.00000" pt_clust_8="13000.00000" pt_clust_9="23.42780"></scales>
<clustering>
<clus scale="   23.428">  2  9  1 -1</clus>
<clus scale="   71.432">  5  6 -1 -1</clus>
<clus scale="   88.567">  7  8 -1 -1</clus>
<clus scale="   96.614">  2  5  1 -1</clus>
<clus scale="  109.890">  1  5  2 -1</clus>
</clustering>
</event>
<event>
 9    1  0.2951046E-005  0.9619324E+02  0.7546771E-02  0.1297564E+00
          1   -1    0    0  502    0  0.00000000000E+00  0.00000000000E+00  0.37774536406E+03  0.37774536406E+03  0.00000000000E+00 0. -1.
         -2   -1    0    0    0  501 -0.00000000000E+00 -0.00000000000E+00 -0.37507563825E+02  0.37507563825E+02  0.00000000000E+00 0.  1.
        -24    2    1    2    0    0  0.22552917251E+02  0.22551596810E+02  0.75390885413E+02  0.11425286009E+03  0.79703963762E+02 0.  0.
         23    2    1    2    0    0  0.99992082239E+01  0.64959638748E+01  0.14733210709E+03  0.17564803673E+03  0.94885727685E+02 0.  0.
         11    1    3    3    0    0  0.21873399589E+02  0.44056837746E+02  0.78374355352E+02  0.92531022575E+02  0.00000000000E+00 0. -1.
        -12    1    3    3    0    0  0.67951766152E+00 -0.21505240936E+02 -0.29834699400E+01  0.21721837511E+02  0.00000000000E+00 0.  1.
        -13    1    4    4    0    0  0.11905366478E+02 -0.28469513430E+02  0.78553913628E+01  0.31842709046E+02  0.00000000000E+00 0.  1.
         13    1    4    4    0    0 -0.19061582545E+01  0.34965477305E+02  0.13947671572E+03  0.14380532769E+03  0.00000000000E+00 0. -1.
         21    1    1    2  502  501 -0.32552125475E+02 -0.29047560685E+02  0.11751480774E+03  0.12535203106E+03  0.00000000000E+00 0. -1.
<scales pt_clust_5="13000.00000" pt_clust_6="13000.00000" pt_clust_7="13000.00000" pt_clust_8="13000.00000" pt_clust_9="43.62799"></scales>
<clustering>
<clus scale="   43.628">  1  9  2 -1</clus>
<clus scale="   79.704">  5  6 -1 -1</clus>
<clus scale="   81.256">  2  5  1 -1</clus>
<clus scale="   94.886">  7  8 -1 -1</clus>
<clus scale="   43.628">  1  5  2 -1</clus>
</clustering>
</event>
<event>
 9    1  0.2951046E-005  0.1266170E+03  0.7546771E-02  0.1242277E+00
         -4   -1    0    0    0  501 -0.00000000000E+00  0.00000000000E+00  0.91351548403E+02  0.91351548403E+02  0.00000000000E+00 0.  1.
          3   -1    0    0  502    0  0.00000000000E+00 -0.00000000000E+00 -0.39279019410E+03  0.39279019410E+03  0.00000000000E+00 0. -1.
        -24    2    1    2    0    0  0.20820087907E+02  0.65180019131E+02  0.32256638781E+02  0.10960044809E+03  0.79308615689E+02 0.  0.
         23    2    1    2    0    0  0.48397934285E+01 -0.63740620432E+02 -0.18261119334E+03  0.22128691772E+03  0.10740000805E+03 0.  0.
         11    1    3    3    0    0 -0.25068902188E+02  0.44442994075E-01  0.77987075928E+01  0.26253983930E+02  0.00000000000E+00 0. -1.
        -12    1    3    3    0    0  0.45888990094E+02  0.65135576137E+02  0.24457931188E+02  0.83346464163E+02  0.00000000000E+00 0.  1.
        -11    1    4    4    0    0  0.32284396108E+02  0.15600472898E+01 -0.86529637071E+01  0.33460271375E+02  0.00000000000E+00 0.  1.
         11    1    4    4    0    0 -0.27444602680E+02 -0.65300667722E+02 -0.17395822963E+03  0.18782664635E+03  0.00000000000E+00 0. -1.
         21    1    1    2  502  501 -0.25659881335E+02 -0.14393986986E+01 -0.15108409114E+03  0.15325437669E+03  0.00000000000E+00 0. -1.
<scales pt_clust_5="13000.00000" pt_clust_6="13000.00000" pt_clust_7="13000.00000" pt_clust_8="13000.00000" pt_clust_9="25.70022"></scales>
<clustering>
<clus scale="   25.700">  2  9  1 -1</clus>
<clus scale="   79.309">  5  6 -1 -1</clus>
<clus scale="  103.860">  1  5  2 -1</clus>
<clus scale="  107.400">  7  8 -1 -1</clus>
<clus scale="   25.700">  2  5  1 -1</clus>
</clustering>
</event>
<event>
 9    1  0.2951046E-005  0.1396528E+03  0.7546771E-02  0.1223076E+00
         -2   -1    0    0    0  501 -0.00000000000E+00  0.00000000000E+00  0.62945465077E+02  0.62945465077E+02  0.00000000000E+00 0.  1.
          1   -1    0    0  502    0  0.00000000000E+00 -0.00000000000E+00 -0.83538591751E+03  0.83538591751E+03  0.00000000000E+00 0. -1.
        -24    2    1    2    0    0  0.96291763150E+02  0.10054796004E+01 -0.85484147918E+02  0.15168899703E+03  0.80180406807E+02 0.  0.
         23    2    1    2    0    0  0.61028749495E+02 -0.27990511073E+02 -0.42168681316E+03  0.43705259459E+03  0.93205284588E+02 0.  0.
         11    1    3    3    0    0  0.85986765502E+02  0.32645239829E+02 -0.64773513235E+02  0.11249463784E+03  0.00000000000E+00 0. -1.
        -12    1    3    3    0    0  0.10304997648E+02 -0.31639760229E+02 -0.20710634683E+02  0.39194359196E+02  0.00000000000E+00 0.  1.
        -13    1    4    4    0    0  0.79581048138E+02 -0.43495594398E+02 -0.33266789686E+03  0.34480855493E+03  0.00000000000E+00 0. -1.
         13    1    4    4    0    0 -0.18552298644E+02  0.15505083325E+02 -0.89018916300E+02  0.92244039662E+02  0.00000000000E+00 0.  1.
         21    1    1    2  502  501 -0.15732051264E+03  0.26985031473E+02 -0.26526949136E+03  0.30958979096E+03  0.00000000000E+00 0.  1.
<scales pt_clust_5="13000.00000" pt_clust_6="13000.00000" pt_clust_7="13000.00000" pt_clust_8="13000.00000" pt_clust_9="114.34166"></scales>
<clustering>
<clus scale="   80.180">  5  6 -1 -1</clus>
<clus scale="   93.205">  7  8 -1 -1</clus>
<clus scale="  114.870">  2  7  1 -1</clus>
<clus scale="  114.342">  2  9  1 -1</clus>
<clus scale="  114.870">  2  5  1 -1</clus>
</clustering>
</event>
<event>
 9    1  0.2951046E-005  0.1520613E+03  0.7546771E-02  0.1199885E+00
          1   -1    0    0  502    0  0.00000000000E+00  0.00000000000E+00  0.31231767710E+02  0.31231767710E+02  0.00000000000E+00 0. -1.
         -2   -1    0    0    0  501 -0.00000000000E+00 -0.00000000000E+00 -0.13331160013E+04  0.13331160013E+04  0.00000000000E+00 0.  1.
         23    2    1    2    0    0 -0.52585025594E+02  0.10404228732E+03 -0.70576933945E+03  0.72141267821E+03  0.93466086423E+02 0.  0.
        -24    2    1    2    0    0  0.80633806979E+02 -0.96442105434E+02 -0.59509415717E+03  0.61385694084E+03  0.82948160914E+02 0.  0.
         13    1    4    4    0    0  0.40638814809E+02 -0.99394491127E+02 -0.48334839504E+03  0.49513275908E+03  0.00000000000E+00 0. -1.
        -14    1    4    4    0    0  0.39994992170E+02  0.29523856934E+01 -0.11174576213E+03  0.11872418176E+03  0.00000000000E+00 0.  1.
        -11    1    3    3    0    0  0.11691499806E+02  0.79834558518E+02 -0.39037636997E+03  0.39862759329E+03  0.00000000000E+00 0.  1.
         11    1    3    3    0    0 -0.64276525400E+02  0.24207728804E+02 -0.31539296948E+03  0.32278508492E+03  0.00000000000E+00 0. -1.
         21    1    1    2  502  501 -0.28048781385E+02 -0.76001818883E+01 -0.10207369938E+01  0.29078149975E+02  0.00000000000E+00 0. -1.
<scales pt_clust_5="13000.00000" pt_clust_6="13000.00000" pt_clust_7="13000.00000" pt_clust_8="13000.00000" pt_clust_9="29.06023"></scales>
<clustering>
<clus scale="   29.060">  1  9  2 -1</clus>
<clus scale="   82.948">  5  6 -1 -1</clus>
<clus scale="   93.466">  7  8 -1 -1</clus>
<clus scale="  145.833">  1  5  2 -1</clus>
<clus scale="   29.060">  1  5  2 -1</clus>
</clustering>
</event>
<event>
 9    1  0.2951046E-005  0.1531838E+03  0.7546771E-02  0.1199110E+00
         -2   -1    0    0    0  501 -0.00000000000E+00  0.00000000000E+00  0.35998627506E+03  0.35998627506E+03  0.00000000000E+00 0.  1.
          1   -1    0    0  502    0  0.00000000000E+00 -0.00000000000E+00 -0.78606489974E+02  0.78606489974E+02  0.00000000000E+00 0. -1.
         23    2    1    2    0    0  0.12438452318E+03 -0.18991071076E+02  0.18071048184E+03  0.23929241785E+03  0.93661158476E+02 0.  0.
        -24    2    1    2    0    0 -0.11667226592E+03 -0.61923826364E+01  0.99512162824E+02  0.17293703505E+03  0.79710628551E+02 0.  0.
         13    1    4    4    0    0 -0.77303644744E+02  0.32829076616E+02  0.45392554854E+02  0.95467721238E+02  0.00000000000E+00 0. -1.
        -14    1    4    4    0    0 -0.39368621172E+02 -0.39021459252E+02  0.54119607970E+02  0.77469313808E+02  0.00000000000E+00 0.  1.
        -11    1    3    3    0    0  0.46936154793E+02 -0.53999280409E+02  0.90220845517E+02  0.11514654088E+03  0.00000000000E+00 0. -1.
         11    1    3    3    0    0  0.77448368387E+02  0.35008209333E+02  0.90489636326E+02  0.12414587697E+03  0.00000000000E+00 0.  1.
         21    1    1    2  502  501 -0.77122572638E+01  0.25183453712E+02  0.11571404234E+01  0.26363312139E+02  0.00000000000E+00 0.  1.
<scales pt_clust_5="13000.00000" pt_clust_6="13000.00000" pt_clust_7="13000.00000" pt_clust_8="13000.00000" pt_clust_9="26.33791"></scales>
<clustering>
<clus scale="   26.338">  2  9  1 -1</clus>
<clus scale="   79.711">  5  6 -1 -1</clus>
<clus scale="   93.661">  7  8 -1 -1</clus>
<clus scale="  145.075">  2  5  1 -1</clus>
<clus scale="   26.338">  2  5  1 -1</clus>
</clustering>
</event>
<event>
 9    1  0.2951046E-005  0.1050259E+03  0.7546771E-02  0.1275975E+00
         -2   -1    0    0    0  501 -0.00000000000E+00  0.00000000000E+00  0.34515661062E+03  0.34515661062E+03  0.00000000000E+00 0.  1.
          1   -1    0    0  502    0  0.00000000000E+00 -0.00000000000E+00 -0.84535002567E+02  0.84535002567E+02  0.00000000000E+00 0. -1.
         23    2    1    2    0    0 -0.40355333267E+02 -0.23632045402E+02  0.27560937190E+03  0.29494760670E+03  0.94056038218E+02 0.  0.
        -24    2    1    2    0    0  0.54174034813E+02 -0.29239595185E+01 -0.28672768679E+02  0.10182809442E+03  0.81261661090E+02 0.  0.
         13    1    4    4    0    0  0.54475930353E+02 -0.30485483483E+02 -0.37576167204E+02  0.72862610664E+02  0.00000000000E+00 0. -1.
        -14    1    4    4    0    0 -0.30189553980E+00  0.27561523965E+02  0.89033985242E+01  0.28965483760E+02  0.00000000000E+00 0.  1.
        -11    1    3    3    0    0 -0.67016521697E+02 -0.35177000155E+02  0.18883805442E+03  0.20344150589E+03  0.00000000000E+00 0.  1.
         11    1    3    3    0    0  0.26661188429E+02  0.11544954753E+02  0.86771317477E+02  0.91506100809E+02  0.00000000000E+00 0. -1.
         21    1    1    2  502  501 -0.13818701546E+02  0.26556004920E+02  0.13685004832E+02  0.32915912064E+02  0.00000000000E+00 0. -1.
<scales pt_clust_5="13000.00000" pt_clust_6="13000.00000" pt_clust_7="13000.00000" pt_clust_8="13000.00000" pt_clust_9="29.93623"></scales>
<clustering>
<clus scale="   29.936">  2  9  1 -1</clus>
<clus scale="   81.262">  5  6 -1 -1</clus>
<clus scale="   93.741">  2  5  1 -1</clus>
<clus scale="   94.056">  7  8 -1 -1</clus>
<clus scale="   29.936">  2  5  1 -1</clus>
</clustering>
</event>
<event>
 9    1  0.2951046E-005  0.1303530E+03  0.7546771E-02  0.1233720E+00
         -2   -1    0    0    0  501 -0.00000000000E+00  0.00000000000E+00  0.49446572446E+02  0.49446572446E+02  0.00000000000E+00 0.  1.
          1   -1    0    0  502    0  0.00000000000E+00 -0.00000000000E+00 -0.83265606015E+03  0.83265606015E+03  0.00000000000E+00 0. -1.
         23    2    1    2    0    0 -0.99979544110E+02 -0.24539440857E+02 -0.12494921262E+03  0.19216861657E+03  0.10352959994E+03 0.  0.
        -24    2    1    2    0    0  0.35985387847E+02  0.48375093944E+02 -0.17649428165E+03  0.20335220089E+03  0.81035722347E+02 0.  0.
         13    1    4    4    0    0  0.22559808125E+02 -0.41646072321E+01 -0.12973723749E+03  0.13174991343E+03  0.00000000000E+00 0. -1.
        -14    1    4    4    0    0  0.13425579722E+02  0.52539701177E+02 -0.46757044161E+02  0.71602287458E+02  0.00000000000E+00 0.  1.
        -13    1    3    3    0    0 -0.74868685571E+01  0.19834485175E+02 -0.75246531932E+02  0.78176086950E+02  0.00000000000E+00 0. -1.
         13    1    3    3    0    0 -0.92492675553E+02 -0.44373926032E+02 -0.49702680684E+02  0.11399252962E+03  0.00000000000E+00 0.  1.
         21    1    1    2  502  501  0.63994156264E+02 -0.23835653088E+02 -0.48176599343E+03  0.48658181514E+03  0.00000000000E+00 0. -1.
<scales pt_clust_5="13000.00000" pt_clust_6="13000.00000" pt_clust_7="13000.00000" pt_clust_8="13000.00000" pt_clust_9="68.28902"></scales>
<clustering>
<clus scale="   68.289">  2  9  1 -1</clus>
<clus scale="   81.036">  5  6 -1 -1</clus>
<clus scale="  103.530">  7  8 -1 -1</clus>
<clus scale="  113.315">  2  5  1 -1</clus>
<clus scale="   68.289">  2  5  1 -1</clus>
</clustering>
</event>
<event>
 9    1  0.2951046E-005  0.1239326E+03  0.7546771E-02  0.1237083E+00
          1   -1    0    0  502    0  0.00000000000E+00  0.00000000000E+00  0.18201944627E+03  0.18201944627E+03  0.00000000000E+00 0. -1.
         -2   -1    0    0    0  501 -0.00000000000E+00 -0.00000000000E+00 -0.21098341958E+03  0.21098341958E+03  0.00000000000E+00 0.  1.
         23    2    1    2    0    0 -0.37877988474E+02  0.80272180426E+02 -0.60604689131E+02  0.14148429085E+03  0.92013647090E+02 0.  0.
        -24    2    1    2    0    0  0.90840227253E+02 -0.25066515820E+02 -0.49539642335E+02  0.13997076152E+03  0.90870021550E+02 0.  0.
         13    1    4    4    0    0  0.62885992196E+02  0.24904296576E+02 -0.57398022475E+01  0.67880905506E+02  0.00000000000E+00 0. -1.
        -14    1    4    4    0    0  0.27954235057E+02 -0.49970812396E+02 -0.43799840087E+02  0.72089856019E+02  0.00000000000E+00 0.  1.
        -13    1    3    3    0    0 -0.40054998265E+02 -0.52323377340E+00  0.66083335425E+00  0.40063866018E+02  0.00000000000E+00 0. -1.
         13    1    3    3    0    0  0.21770097908E+01  0.80795414199E+02 -0.61265522485E+02  0.10142042483E+03  0.00000000000E+00 0.  1.
         21    1    1    2  502  501 -0.52962238779E+02 -0.55205664606E+02  0.81180358155E+02  0.11154781348E+03  0.00000000000E+00 0.  1.
<scales pt_clust_5="13000.00000" pt_clust_6="13000.00000" pt_clust_7="13000.00000" pt_clust_8="13000.00000" pt_clust_9="76.50271"></scales>
<clustering>
<clus scale="   76.503">  1  9  2 -1</clus>
<clus scale="   90.870">  5  6 -1 -1</clus>
<clus scale="   92.014">  7  8 -1 -1</clus>
<clus scale="  123.086">  1  5  2 -1</clus>
<clus scale="   76.503">  1  5  2 -1</clus>
</clustering>
</event>
<event>
 9    1  0.2951046E-005  0.1320548E+03  0.7546771E-02  0.1226380E+00
         -4   -1    0    0    0  501 -0.00000000000E+00  0.00000000000E+00  0.22340088625E+03  0.22340088625E+03  0.00000000000E+00 0.  1.
          3   -1    0    0  502    0  0.00000000000E+00 -0.00000000000E+00 -0.96842152218E+02  0.96842152218E+02  0.00000000000E+00 0. -1.
        -24    2    1    2    0    0  0.28093924939E+02 -0.97383603535E+02  0.95919894675E+02  0.16270188950E+03  0.83656702043E+02 0.  0.
         23    2    1    2    0    0 -0.21278322870E+01  0.87878384659E+02  0.27068500741E+02  0.12966043034E+03  0.91389196862E+02 0.  0.
         13    1    3    3    0    0 -0.18644339649E+02 -0.14834508882E+02 -0.48409234137E+01  0.24312724944E+02  0.00000000000E+00 0. -1.
        -14    1    3    3    0    0  0.46738264588E+02 -0.82549094653E+02  0.10076081809E+03  0.13838916456E+03  0.00000000000E+00 0.  1.
        -13    1    4    4    0    0 -0.44703942030E+02  0.54349995035E+02  0.32048544913E+01  0.70445975653E+02  0.00000000000E+00 0. -1.
         13    1    4    4    0    0  0.42576109743E+02  0.33528389624E+02  0.23863646250E+02  0.59214454688E+02  0.00000000000E+00 0.  1.
         21    1    1    2  502  501 -0.25966092652E+02  0.95052188756E+01  0.35703386192E+01  0.27880718630E+02  0.00000000000E+00 0. -1.
<scales pt_clust_5="13000.00000" pt_clust_6="13000.00000" pt_clust_7="13000.00000" pt_clust_8="13000.00000" pt_clust_9="27.65117"></scales>
<clustering>
<clus scale="   27.651">  2  9  1 -1</clus>
<clus scale="   83.657">  5  6 -1 -1</clus>
<clus scale="   91.389">  7  8 -1 -1</clus>
<clus scale="  126.826">  1  5  2 -1</clus>
<clus scale="   27.651">  2  5  1 -1</clus>
</clustering>
</event>
<event>
 9    1  0.2951046E-005  0.1904501E+03  0.7546771E-02  0.1160472E+00
          1   -1    0    0  502    0  0.00000000000E+00  0.00000000000E+00  0.14098226862E+04  0.14098226862E+04  0.00000000000E+00 0. -1.
         -2   -1    0    0    0  501 -0.00000000000E+00 -0.00000000000E+00 -0.29144368808E+02  0.29144368808E+02  0.00000000000E+00 0.  1.
        -24    2    1    2    0    0  0.15372725328E+03 -0.44286388041E+01  0.57913540415E+03  0.60490197813E+03  0.82806434296E+02 0.  0.
         23    2    1    2    0    0 -0.16459299696E+03  0.30138335982E+02  0.62251794882E+03  0.65287735433E+03  0.10354259632E+03 0.  0.
         11    1    3    3    0    0  0.11953930553E+03 -0.44010845578E+01  0.53930200125E+03  0.55240896414E+03  0.00000000000E+00 0. -1.
        -12    1    3    3    0    0  0.34187947757E+02 -0.27554246296E-01  0.39833402905E+02  0.52493013993E+02  0.00000000000E+00 0.  1.
        -11    1    4    4    0    0 -0.60135394725E+02  0.51739345073E+02  0.37590082746E+03  0.38418050134E+03  0.00000000000E+00 0. -1.
         11    1    4    4    0    0 -0.10445760224E+03 -0.21601009091E+02  0.24661712136E+03  0.26869685299E+03  0.00000000000E+00 0.  1.
         21    1    1    2  502  501  0.10865743679E+02 -0.25709697178E+02  0.17902496445E+03  0.18118772257E+03  0.00000000000E+00 0.  1.
<scales pt_clust_5="13000.00000" pt_clust_6="13000.00000" pt_clust_7="13000.00000" pt_clust_8="13000.00000" pt_clust_9="27.91152"></scales>
<clustering>
<clus scale="   27.912">  1  9  2 -1</clus>
<clus scale="   82.806">  5  6 -1 -1</clus>
<clus scale="  103.543">  7  8 -1 -1</clus>
<clus scale="  180.020">  2  5  1 -1</clus>
<clus scale="   27.912">  1  5  2 -1</clus>
</clustering>
</event>
<event>
 9    1  0.2951046E-005  0.1115619E+03  0.7546771E-02  0.1265981E+00
         -2   -1    0    0    0  501 -0.00000000000E+00  0.00000000000E+00  0.96777340254E+02  0.96777340254E+02  0.00000000000E+00 0.  1.
          1   -1    0    0  502    0  0.00000000000E+00 -0.00000000000E+00 -0.24527131550E+03  0.24527131550E+03  0.00000000000E+00 0. -1.
         23    2    1    2    0    0  0.29346846616E+02 -0.45929061399E+02 -0.96900588086E+01  0.10226456343E+03  0.85985042920E+02 0.  0.
        -24    2    1    2    0    0  0.30131390730E+02 -0.35233744584E+02 -0.64853696936E+02  0.11490936808E+03  0.82757739218E+02 0.  0.
         13    1    4    4    0    0 -0.24527439100E+02  0.54377707352E+01 -0.85927578744E+01  0.26551838114E+02  0.00000000000E+00 0. -1.
        -14    1    4    4    0    0  0.54658829830E+02 -0.40671515319E+02 -0.56260939062E+02  0.88357529961E+02  0.00000000000E+00 0.  1.
        -11    1    3    3    0    0  0.32395367015E+02  0.48825291399E+01 -0.32802179182E+02  0.46360347863E+02  0.00000000000E+00 0.  1.
         11    1    3    3    0    0 -0.30485203997E+01 -0.50811590539E+02  0.23112120373E+02  0.55904215564E+02  0.00000000000E+00 0. -1.
         21    1    1    2  502  501 -0.59478237346E+02  0.81162805983E+02 -0.73950219505E+02  0.12487472425E+03  0.00000000000E+00 0. -1.
<scales pt_clust_5="13000.00000" pt_clust_6="13000.00000" pt_clust_7="13000.00000" pt_clust_8="13000.00000" pt_clust_9="71.08191"></scales>
<clustering>
<clus scale="   82.758">  5  6 -1 -1</clus>
<clus scale="   85.985">  7  8 -1 -1</clus>
<clus scale="   94.859">  2  5  1 -1</clus>
<clus scale="   71.082">  2  9  1 -1</clus>
<clus scale="   94.859">  2  5  1 -1</clus>
</clustering>
</event>
<event>
 9    1  0.2951046E-005  0.9969888E+02  0.7546771E-02  0.1286446E+00
         -2   -1    0    0    0  501 -0.00000000000E+00  0.00000000000E+00  0.14355809594E+03  0.14355809594E+03  0.00000000000E+00 0.  1.
          1   -1    0    0  502    0  0.00000000000E+00 -0.00000000000E+00 -0.67149852889E+03  0.67149852889E+03  0.00000000000E+00 0. -1.
         23    2    1    2    0    0  0.22537106412E+02  0.77090981436E+02  0.94338981625E+02  0.15419001563E+03  0.91781135767E+02 0.  0.
        -24    2    1    2    0    0 -0.25773433354E+02 -0.27984913880E+02 -0.60037377260E+03  0.60699883744E+03  0.80941315537E+02 0.  0.
         13    1    4    4    0    0 -0.49476650903E+02 -0.38793199307E+01 -0.24215100049E+03  0.24718433434E+03  0.00000000000E+00 0. -1.
        -14    1    4    4    0    0  0.23703217548E+02 -0.24105593950E+02 -0.35822277211E+03  0.35981450310E+03  0.00000000000E+00 0.  1.
        -11    1    3    3    0    0 -0.18554435622E+02  0.78642044584E+02  0.60646066289E+02  0.10102862769E+03  0.00000000000E+00 0.  1.
         11    1    3    3    0    0  0.41091542034E+02 -0.15510631480E+01  0.33692915336E+02  0.53161387938E+02  0.00000000000E+00 0. -1.
         21    1    1    2  502  501  0.32363269424E+01 -0.49106067555E+02 -0.21905641984E+02  0.53867771752E+02  0.00000000000E+00 0. -1.
<scales pt_clust_5="13000.00000" pt_clust_6="13000.00000" pt_clust_7="13000.00000" pt_clust_8="13000.00000" pt_clust_9="49.21260"></scales>
<clustering>
<clus scale="   49.213">  1  9  2 -1</clus>
<clus scale="   80.941">  5  6 -1 -1</clus>
<clus scale="   89.820">  2  5  1 -1</clus>
<clus scale="   91.781">  7  8 -1 -1</clus>
<clus scale="   89.820">  2  5  1 -1</clus>
</clustering>
</event>
<event>
 9    1  0.2951046E-005  0.9032045E+02  0.7546771E-02  0.1306675E+00
         -2   -1    0    0    0  501 -0.00000000000E+00  0.00000000000E+00  0.20558330706E+03  0.20558330706E+03  0.00000000000E+00 0.  1.
          1   -1    0    0  502    0  0.00000000000E+00 -0.00000000000E+00 -0.99815045884E+02  0.99815045884E+02  0.00000000000E+00 0. -1.
        -24    2    1    2    0    0 -0.18719493033E+02  0.67205422576E+01  0.15056788986E+03  0.17228116600E+03  0.81329733768E+02 0.  0.
         23    2    1    2    0    0 -0.86634782709E+01 -0.45512124935E+01 -0.53749141125E+02  0.10422727725E+03  0.88761397920E+02 0.  0.
         13    1    3    3    0    0 -0.21137175504E+02  0.33380204551E+02  0.32331558690E+02  0.51052403778E+02  0.00000000000E+00 0. -1.
        -14    1    3    3    0    0  0.24176824716E+01 -0.26659662294E+02  0.11823633117E+03  0.12122876222E+03  0.00000000000E+00 0.  1.
        -11    1    4    4    0    0 -0.40754461760E+02 -0.81173248011E+00 -0.58778853735E+02  0.71529984687E+02  0.00000000000E+00 0. -1.
         11    1    4    4    0    0  0.32090983489E+02 -0.37394800134E+01  0.50297126100E+01  0.32697292564E+02  0.00000000000E+00 0.  1.
         21    1    1    2  502  501  0.27382971303E+02 -0.21693297641E+01  0.89495124441E+01  0.28889909692E+02  0.00000000000E+00 0. -1.
<scales pt_clust_5="13000.00000" pt_clust_6="13000.00000" pt_clust_7="13000.00000" pt_clust_8="13000.00000" pt_clust_9="27.46877"></scales>
<clustering>
<clus scale="   27.469">  2  9  1 -1</clus>
<clus scale="   81.330">  5  6 -1 -1</clus>
<clus scale="   83.028">  1  5  2 -1</clus>
<clus scale="   88.761">  7  8 -1 -1</clus>
<clus scale="   27.469">  2  5  1 -1</clus>
</clustering>
</event>
<event>
 9    1  0.2951046E-005  0.2258814E+03  0.7546771E-02  0.1129618E+00
          1   -1    0    0  502    0  0.00000000000E+00  0.00000000000E+00  0.33481842832E+03  0.33481842832E+03  0.00000000000E+00 0. -1.
         -2   -1    0    0    0  501 -0.00000000000E+00 -0.00000000000E+00 -0.21080883858E+03  0.21080883858E+03  0.00000000000E+00 0.  1.
        -24    2    1    2    0    0 -0.13004627700E+03  0.14888542819E+03 -0.40559506925E+02  0.22117645097E+03  0.90526482178E+02 0.  0.
         23    2    1    2    0    0  0.14283258685E+03 -0.17880837506E+03  0.15263873644E+03  0.28979239754E+03  0.91145306793E+02 0.  0.
         13    1    3    3    0    0 -0.32825368185E+02 -0.14732803952E+01  0.11330311321E+02  0.34757032471E+02  0.00000000000E+00 0. -1.
        -14    1    3    3    0    0 -0.97220908814E+02  0.15035870858E+03 -0.51889818245E+02  0.18641941850E+03  0.00000000000E+00 0.  1.
        -13    1    4    4    0    0  0.11600582393E+03 -0.15003339605E+03  0.77296936649E+02  0.20479791876E+03  0.00000000000E+00 0.  1.
         13    1    4    4    0    0  0.26826762921E+02 -0.28774979016E+02  0.75341799795E+02  0.84994478777E+02  0.00000000000E+00 0. -1.
         21    1    1    2  502  501 -0.12786309853E+02  0.29922946877E+02  0.11930360221E+02  0.34658418377E+02  0.00000000000E+00 0.  1.
<scales pt_clust_5="13000.00000" pt_clust_6="13000.00000" pt_clust_7="13000.00000" pt_clust_8="13000.00000" pt_clust_9="32.54032"></scales>
<clustering>
<clus scale="   32.540">  1  9  2 -1</clus>
<clus scale="   90.526">  5  6 -1 -1</clus>
<clus scale="   91.145">  7  8 -1 -1</clus>
<clus scale="  225.632">  2  5  1 -1</clus>
<clus scale="   32.540">  1  5  2 -1</clus>
</clustering>
</event>
<event>
 9    1  0.2951046E-005  0.2490411E+03  0.7546771E-02  0.1114613E+00
         -2   -1    0    0    0  501 -0.00000000000E+00  0.00000000000E+00  0.20264320675E+03  0.20264320675E+03  0.00000000000E+00 0.  1.
          1   -1    0    0  502    0  0.00000000000E+00 -0.00000000000E+00 -0.79449818082E+03  0.79449818082E+03  0.00000000000E+00 0. -1.
        -24    2    1    2    0    0  0.17075051319E+03 -0.15169522490E+03  0.81323925695E+02  0.25511385292E+03  0.79387140327E+02 0.  0.
         23    2    1    2    0    0 -0.17021722474E+03  0.19031202664E+03 -0.61472772747E+03  0.67196983474E+03  0.91982111297E+02 0.  0.
         11    1    3    3    0    0  0.89233236100E+02 -0.12511194370E+03  0.34807202724E+02  0.15756620908E+03  0.00000000000E+00 0. -1.
        -12    1    3    3    0    0  0.81517277085E+02 -0.26583281199E+02  0.46516722971E+02  0.97547643840E+02  0.00000000000E+00 0.  1.
        -11    1    4    4    0    0 -0.63365638989E+02  0.48888326250E+02 -0.10316257121E+03  0.13056718097E+03  0.00000000000E+00 0.  1.
         11    1    4    4    0    0 -0.10685158575E+03  0.14142370040E+03 -0.51156515626E+03  0.54140265377E+03  0.00000000000E+00 0. -1.
         21    1    1    2  502  501 -0.53328844995E+00 -0.38616801744E+02 -0.58451172295E+02  0.70057699906E+02  0.00000000000E+00 0.  1.
<scales pt_clust_5="13000.00000" pt_clust_6="13000.00000" pt_clust_7="13000.00000" pt_clust_8="13000.00000" pt_clust_9="38.62048"></scales>
<clustering>
<clus scale="   38.620">  2  9  1 -1</clus>
<clus scale="   79.387">  5  6 -1 -1</clus>
<clus scale="   91.982">  7  8 -1 -1</clus>
<clus scale="  244.669">  1  5  2 -1</clus>
<clus scale="   38.620">  2  5  1 -1</clus>
</clustering>
</event>
<event>
 9    1  0.2951046E-005  0.1425871E+03  0.7546771E-02  0.1230995E+00
         -2   -1    0    0    0  501 -0.00000000000E+00  0.00000000000E+00  0.39102071419E+03  0.39102071419E+03  0.00000000000E+00 0.  1.
          1   -1    0    0  502    0  0.00000000000E+00 -0.00000000000E+00 -0.29753514920E+03  0.29753514920E+03  0.00000000000E+00 0. -1.
        -24    2    1    2    0    0  0.96544508106E+02 -0.71502363182E+02  0.34618502768E+03  0.37527672632E+03  0.80963682858E+02 0.  0.
         23    2    1    2    0    0 -0.19463766033E+02  0.19790466633E+02 -0.13983567339E+03  0.16714975613E+03  0.87261243766E+02 0.  0.
         11    1    3    3    0    0  0.56545948146E+02  0.65244938969E+01  0.12518976813E+03  0.13752269382E+03  0.00000000000E+00 0. -1.
        -12    1    3    3    0    0  0.39998559960E+02 -0.78026857079E+02  0.22099525955E+03  0.23775403249E+03  0.00000000000E+00 0.  1.
        -11    1    4    4    0    0  0.87494696433E+01 -0.27658277962E+02 -0.82976139683E+02  0.87900928980E+02  0.00000000000E+00 0.  1.
         11    1    4    4    0    0 -0.28213235677E+02  0.47448744595E+02 -0.56859533704E+02  0.79248827146E+02  0.00000000000E+00 0. -1.
         21    1    1    2  502  501 -0.77080742072E+02  0.51711896549E+02 -0.11286378930E+03  0.14612938095E+03  0.00000000000E+00 0. -1.
<scales pt_clust_5="13000.00000" pt_clust_6="13000.00000" pt_clust_7="13000.00000" pt_clust_8="13000.00000" pt_clust_9="117.37109"></scales>
<clustering>
<clus scale="   80.964">  5  6 -1 -1</clus>
<clus scale="   87.261">  7  8 -1 -1</clus>
<clus scale="   91.570">  2  7  1 -1</clus>
<clus scale="  117.371">  2  9  1 -1</clus>
<clus scale="   91.570">  2  5  1 -1</clus>
</clustering>
</event>
<event>
 9    1  0.2951046E-005  0.9799143E+02  0.7546771E-02  0.1292518E+00
          1   -1    0    0  502    0  0.00000000000E+00  0.00000000000E+00  0.22924833382E+03  0.22924833382E+03  0.00000000000E+00 0. -1.
         -2   -1    0    0    0  501 -0.00000000000E+00 -0.00000000000E+00 -0.54822372330E+02  0.54822372330E+02  0.00000000000E+00 0.  1.
        -24    2    1    2    0    0  0.39302870766E+00  0.41225631163E+02  0.21995328355E+02  0.85495842899E+02  0.71596351494E+02 0.  0.
         23    2    1    2    0    0 -0.20198234950E+02 -0.52001873560E+02  0.11368863670E+03  0.15374946998E+03  0.87187326225E+02 0.  0.
         11    1    3    3    0    0  0.88570455367E+01 -0.19332065851E+02  0.30517351017E+01  0.21482297662E+02  0.00000000000E+00 0. -1.
        -12    1    3    3    0    0 -0.84640168290E+01  0.60557697014E+02  0.18943593253E+02  0.64013545237E+02  0.00000000000E+00 0.  1.
        -13    1    4    4    0    0 -0.31813119749E+02 -0.17259194532E+02  0.20467856513E+01  0.36251120197E+02  0.00000000000E+00 0.  1.
         13    1    4    4    0    0  0.11614884799E+02 -0.34742679028E+02  0.11164185105E+03  0.11749834978E+03  0.00000000000E+00 0. -1.
         21    1    1    2  502  501  0.19805206242E+02  0.10776242397E+02  0.38741996429E+02  0.44825393270E+02  0.00000000000E+00 0. -1.
<scales pt_clust_5="13000.00000" pt_clust_6="13000.00000" pt_clust_7="13000.00000" pt_clust_8="13000.00000" pt_clust_9="22.54714"></scales>
<clustering>
<clus scale="   22.547">  1  9  2 -1</clus>
<clus scale="   71.596">  5  6 -1 -1</clus>
<clus scale="   84.420">  2  5  1 -1</clus>
<clus scale="   87.187">  7  8 -1 -1</clus>
<clus scale="   22.547">  1  5  2 -1</clus>
</clustering>
</event>
<event>
 9    1  0.2951046E-005  0.1486196E+03  0.7546771E-02  0.1204695E+00
          1   -1    0    0  502    0  0.00000000000E+00  0.00000000000E+00  0.19080109512E+03  0.19080109512E+03  0.00000000000E+00 0. -1.
         -2   -1    0    0    0  501 -0.00000000000E+00 -0.00000000000E+00 -0.26147050742E+03  0.26147050742E+03  0.00000000000E+00 0.  1.
        -24    2    1    2    0    0 -0.12923103317E+03  0.37984859333E+02 -0.15474464506E+03  0.22033522162E+03  0.80362897150E+02 0.  0.
         23    2    1    2    0    0  0.78178649133E+02  0.31899776384E+02  0.28635263291E+02  0.12915604018E+03  0.93444141059E+02 0.  0.
         11    1    3    3    0    0 -0.82585574428E+02  0.60394839079E+02 -0.82299648761E+02  0.13130554397E+03  0.00000000000E+00 0. -1.
        -12    1    3    3    0    0 -0.46645458744E+02 -0.22409979746E+02 -0.72444996303E+02  0.89029677653E+02  0.00000000000E+00 0.  1.
        -11    1    4    4    0    0  0.72506526348E+02  0.11060159669E+02 -0.19930062329E+02  0.76004808265E+02  0.00000000000E+00 0.  1.
         11    1    4    4    0    0  0.56721227848E+01  0.20839616716E+02  0.48565325620E+02  0.53151231917E+02  0.00000000000E+00 0. -1.
         21    1    1    2  502  501  0.51052384039E+02 -0.69884635717E+02  0.55439969478E+02  0.10278034073E+03  0.00000000000E+00 0.  1.
<scales pt_clust_5="13000.00000" pt_clust_6="13000.00000" pt_clust_7="13000.00000" pt_clust_8="13000.00000" pt_clust_9="86.54599"></scales>
<clustering>
<clus scale="   80.363">  5  6 -1 -1</clus>
<clus scale="   86.546">  1  9  2 -1</clus>
<clus scale="   93.444">  7  8 -1 -1</clus>
<clus scale="  140.763">  2  5  1 -1</clus>
<clus scale="   86.546">  1  5  2 -1</clus>
</clustering>
</event>
<event>
 9    1  0.2951046E-005  0.1212271E+03  0.7546771E-02  0.1248986E+00
         -2   -1    0    0    0  501 -0.00000000000E+00  0.00000000000E+00  0.32186812307E+03  0.32186812307E+03  0.00000000000E+00 0.  1.
          1   -1    0    0  502    0  0.00000000000E+00 -0.00000000000E+00 -0.31684875102E+03  0.31684875102E+03  0.00000000000E+00 0. -1.
         23    2    1    2    0    0 -0.67335307418E+02 -0.36736326959E+02  0.27945310323E+03  0.30458288623E+03  0.93771511327E+02 0.  0.
        -24    2    1    2    0    0  0.55433397998E+02  0.59836578301E+02 -0.69496660103E+02  0.12755596347E+03  0.69191475878E+02 0.  0.
         11    1    4    4    0    0  0.60481667127E+02  0.16750676135E+02 -0.33232398576E+02  0.71014150171E+02  0.00000000000E+00 0. -1.
        -12    1    4    4    0    0 -0.50482691292E+01  0.43085902166E+02 -0.36264261527E+02  0.56541813296E+02  0.00000000000E+00 0.  1.
        -11    1    3    3    0    0 -0.84990394183E+02 -0.19652981601E+02  0.25662779185E+03  0.27104876007E+03  0.00000000000E+00 0.  1.
         11    1    3    3    0    0  0.17655086765E+02 -0.17083345359E+02  0.22825311378E+02  0.33534126153E+02  0.00000000000E+00 0. -1.
         21    1    1    2  502  501  0.11901909420E+02 -0.23100251342E+02 -0.20493707107E+03  0.20657802439E+03  0.00000000000E+00 0. -1.
<scales pt_clust_5="13000.00000" pt_clust_6="13000.00000" pt_clust_7="13000.00000" pt_clust_8="13000.00000" pt_clust_9="25.98609"></scales>
<clustering>
<clus scale="   25.986">  2  9  1 -1</clus>
<clus scale="   69.191">  5  6 -1 -1</clus>
<clus scale="   93.772">  7  8 -1 -1</clus>
<clus scale="  103.394">  2  5  1 -1</clus>
<clus scale="   25.986">  2  5  1 -1</clus>
</clustering>
</event>
<event>
 9    1  0.2951046E-005  0.8289293E+02  0.7546771E-02  0.1321846E+00
          3   -1    0    0  502    0  0.00000000000E+00  0.00000000000E+00  0.62020973386E+02  0.62020973386E+02  0.00000000000E+00 0. -1.
         -4   -1    0    0    0  501 -0.00000000000E+00 -0.00000000000E+00 -0.66433481590E+03  0.66433481590E+03  0.00000000000E+00 0.  1.
        -24    2    1    2    0    0 -0.33564507203E+01 -0.67901105610E+01 -0.59259529715E+03  0.59821002079E+03  0.81416653128E+02 0.  0.
         23    2    1    2    0    0 -0.17962821479E+02  0.61138829926E+01 -0.37863060675E+02  0.92831714742E+02  0.82607949844E+02 0.  0.
         11    1    3    3    0    0  0.30298089908E+02  0.10126266135E+02 -0.12211632551E+03  0.12622564111E+03  0.00000000000E+00 0. -1.
        -12    1    3    3    0    0 -0.33654540628E+02 -0.16916376696E+02 -0.47047897164E+03  0.47198437967E+03  0.00000000000E+00 0.  1.
        -11    1    4    4    0    0 -0.35134973496E+02 -0.28839800853E+02 -0.24638095715E+02  0.51703348405E+02  0.00000000000E+00 0.  1.
         11    1    4    4    0    0  0.17172152018E+02  0.34953683846E+02 -0.13224964960E+02  0.41128366336E+02  0.00000000000E+00 0. -1.
         21    1    1    2  502  501  0.21319272199E+02  0.67622756838E+00  0.28144515308E+02  0.35314053757E+02  0.00000000000E+00 0. -1.
<scales pt_clust_5="13000.00000" pt_clust_6="13000.00000" pt_clust_7="13000.00000" pt_clust_8="13000.00000" pt_clust_9="21.32999"></scales>
<clustering>
<clus scale="   21.330">  1  9  2 -1</clus>
<clus scale="   81.417">  5  6 -1 -1</clus>
<clus scale="   81.706">  2  5  1 -1</clus>
<clus scale="   82.608">  7  8 -1 -1</clus>
<clus scale="   21.330">  1  5  2 -1</clus>
</clustering>
</event>
<event>
 9    1  0.2951046E-005  0.1217858E+03  0.7546771E-02  0.1253270E+00
          1   -1    0    0  502    0  0.00000000000E+00  0.00000000000E+00  0.12029582270E+03  0.12029582270E+03  0.00000000000E+00 0. -1.
         -2   -1    0    0    0  501 -0.00000000000E+00 -0.00000000000E+00 -0.19649935969E+03  0.19649935969E+03  0.00000000000E+00 0.  1.
         23    2    1    2    0    0  0.19171490585E+02 -0.25190486225E+02 -0.13255916674E+03  0.17566629343E+03  0.11083594775E+03 0.  0.
        -24    2    1    2    0    0 -0.35652050273E+02  0.39891750008E+02  0.67119401975E+02  0.11656072262E+03  0.78860430693E+02 0.  0.
         11    1    4    4    0    0 -0.11675934176E+02  0.22891720548E+02  0.80327583608E+02  0.84337885893E+02  0.00000000000E+00 0. -1.
        -12    1    4    4    0    0 -0.23976116097E+02  0.17000029460E+02 -0.13208181633E+02  0.32222836728E+02  0.00000000000E+00 0.  1.
        -13    1    3    3    0    0 -0.40436322824E+02 -0.36350892115E+02 -0.68465090393E+02  0.87429698407E+02  0.00000000000E+00 0. -1.
         13    1    3    3    0    0  0.59607813409E+02  0.11160405889E+02 -0.64094076345E+02  0.88236595024E+02  0.00000000000E+00 0.  1.
         21    1    1    2  502  501  0.16480559688E+02 -0.14701263783E+02 -0.10763772224E+02  0.24568166332E+02  0.00000000000E+00 0.  1.
<scales pt_clust_5="13000.00000" pt_clust_6="13000.00000" pt_clust_7="13000.00000" pt_clust_8="13000.00000" pt_clust_9="22.08475"></scales>
<clustering>
<clus scale="   22.085">  2  9  1 -1</clus>
<clus scale="   78.860">  5  6 -1 -1</clus>
<clus scale="   93.628">  1  5  2 -1</clus>
<clus scale="  110.836">  7  8 -1 -1</clus>
<clus scale="   93.628">  1  5  2 -1</clus>
</clustering>
</event>
<event>
 9    1  0.2951046E-005  0.2813655E+03  0.7546771E-02  0.1095329E+00
          3   -1    0    0  502    0  0.00000000000E+00  0.00000000000E+00  0.10849497667E+04  0.10849497667E+04  0.00000000000E+00 0. -1.
         -4   -1    0    0    0  501 -0.00000000000E+00 -0.00000000000E+00 -0.83664939861E+02  0.83664939861E+02  0.00000000000E+00 0.  1.
         23    2    1    2    0    0 -0.26347251524E+03 -0.69829552609E+02  0.42946344201E+03  0.51679568201E+03  0.91350950823E+02 0.  0.
        -24    2    1    2    0    0  0.24640290426E+03  0.82790308088E+02  0.43540545266E+03  0.51372970798E+03  0.82290207894E+02 0.  0.
         11    1    4    4    0    0  0.10548348886E+03  0.78505228373E+02  0.21942286816E+03  0.25580506714E+03  0.00000000000E+00 0. -1.
        -12    1    4    4    0    0  0.14091941540E+03  0.42850797154E+01  0.21598258450E+03  0.25792464084E+03  0.00000000000E+00 0.  1.
        -11    1    3    3    0    0 -0.17424203811E+03 -0.28327020953E+01  0.28804316291E+03  0.33665587139E+03  0.00000000000E+00 0.  1.
         11    1    3    3    0    0 -0.89230477135E+02 -0.66996850514E+02  0.14142027911E+03  0.18013981062E+03  0.00000000000E+00 0. -1.
         21    1    1    2  502  501  0.17069610985E+02 -0.12960755479E+02  0.13641593217E+03  0.13808931657E+03  0.00000000000E+00 0. -1.
<scales pt_clust_5="13000.00000" pt_clust_6="13000.00000" pt_clust_7="13000.00000" pt_clust_8="13000.00000" pt_clust_9="21.43252"></scales>
<clustering>
<clus scale="   21.433">  1  9  2 -1</clus>
<clus scale="   82.290">  5  6 -1 -1</clus>
<clus scale="   91.351">  7  8 -1 -1</clus>
<clus scale="  278.556">  1  5  2 -1</clus>
<clus scale="   21.433">  1  5  2 -1</clus>
</clustering>
</event>
<event>
 9    1  0.2951046E-005  0.1830639E+03  0.7546771E-02  0.1165826E+00
          1   -1    0    0  502    0  0.00000000000E+00  0.00000000000E+00  0.11357851069E+04  0.11357851069E+04  0.00000000000E+00 0. -1.
         -2   -1    0    0    0  501 -0.00000000000E+00 -0.00000000000E+00 -0.22242915758E+03  0.22242915758E+03  0.00000000000E+00 0.  1.
         23    2    1    2    0    0  0.15654018739E+03 -0.28263315158E+02 -0.17142569005E+03  0.25086864391E+03  0.90800132368E+02 0.  0.
        -24    2    1    2    0    0 -0.16081362437E+03 -0.12067898466E+02  0.91865514207E+03  0.93634011726E+03  0.82455376969E+02 0.  0.
         11    1    4    4    0    0 -0.91288749149E+02  0.25815590608E+02  0.36845616988E+03  0.38047342820E+03  0.00000000000E+00 0. -1.
        -12    1    4    4    0    0 -0.69524875224E+02 -0.37883489073E+02  0.55019897218E+03  0.55586668907E+03  0.00000000000E+00 0.  1.
        -13    1    3    3    0    0  0.61151635298E+02 -0.43256895837E+02 -0.32427541176E+02  0.81622466048E+02  0.00000000000E+00 0.  1.
         13    1    3    3    0    0  0.95388552097E+02  0.14993580680E+02 -0.13899814887E+03  0.16924617787E+03  0.00000000000E+00 0. -1.
         21    1    1    2  502  501  0.42734369786E+01  0.40331213623E+02  0.16612649731E+03  0.17100550332E+03  0.00000000000E+00 0.  1.
<scales pt_clust_5="13000.00000" pt_clust_6="13000.00000" pt_clust_7="13000.00000" pt_clust_8="13000.00000" pt_clust_9="40.55699"></scales>
<clustering>
<clus scale="   40.557">  1  9  2 -1</clus>
<clus scale="   82.455">  5  6 -1 -1</clus>
<clus scale="   90.800">  7  8 -1 -1</clus>
<clus scale="  179.072">  1  5  2 -1</clus>
<clus scale="   40.557">  1  5  2 -1</clus>
</clustering>
</event>
<event>
 9    1  0.2951046E-005  0.1354263E+03  0.7546771E-02  0.1230725E+00
          1   -1    0    0  502    0  0.00000000000E+00  0.00000000000E+00  0.35128222250E+03  0.35128222250E+03  0.00000000000E+00 0. -1.
         -2   -1    0    0    0  501 -0.00000000000E+00 -0.00000000000E+00 -0.35810812078E+03  0.35810812078E+03  0.00000000000E+00 0.  1.
        -24    2    1    2    0    0  0.53567825891E+01 -0.10594609173E+03 -0.28443922037E+03  0.31429045477E+03  0.81360619480E+02 0.  0.
         23    2    1    2    0    0  0.11392071296E+02 -0.39714772147E+02  0.37627930789E+02  0.11386937912E+03  0.99213567173E+02 0.  0.
         13    1    3    3    0    0 -0.12562674139E+02 -0.35542364849E+02 -0.25897481601E+02  0.45735763182E+02  0.00000000000E+00 0. -1.
        -14    1    3    3    0    0  0.17919456728E+02 -0.70403726878E+02 -0.25854173877E+03  0.26855469159E+03  0.00000000000E+00 0.  1.
        -13    1    4    4    0    0  0.53698077353E+02 -0.18947854732E+02  0.63264370767E+01  0.57293354906E+02  0.00000000000E+00 0.  1.
         13    1    4    4    0    0 -0.42306006057E+02 -0.20766917414E+02  0.31301493713E+02  0.56576024216E+02  0.00000000000E+00 0. -1.
         21    1    1    2  502  501 -0.16748853885E+02  0.14566086387E+03  0.23998539131E+03  0.28123050939E+03  0.00000000000E+00 0. -1.
<scales pt_clust_5="13000.00000" pt_clust_6="13000.00000" pt_clust_7="13000.00000" pt_clust_8="13000.00000" pt_clust_9="108.26238"></scales>
<clustering>
<clus scale="   81.361">  5  6 -1 -1</clus>
<clus scale="   99.214">  7  8 -1 -1</clus>
<clus scale="  107.473">  1  7  2 -1</clus>
<clus scale="  108.262">  1  9  2 -1</clus>
<clus scale="  107.473">  1  5  2 -1</clus>
</clustering>
</event>
<event>
 9    1  0.2951046E-005  0.1052850E+03  0.7546771E-02  0.1272902E+00
         -2   -1    0    0    0  501 -0.00000000000E+00  0.00000000000E+00  0.16961417040E+03  0.16961417040E+03  0.00000000000E+00 0.  1.
          1   -1    0    0  502    0  0.00000000000E+00 -0.00000000000E+00 -0.24250175965E+03  0.24250175965E+03  0.00000000000E+00 0. -1.
        -24    2    1    2    0    0  0.49718134021E+02  0.33810516104E+02  0.13144108490E+03  0.16568036370E+03  0.80982592379E+02 0.  0.
         23    2    1    2    0    0 -0.72681398579E+01 -0.32365210382E+02 -0.13197037567E+03  0.16253196527E+03  0.88882658499E+02 0.  0.
         13    1    3    3    0    0  0.65354897158E+02  0.33575775439E+02  0.13080552082E+03  0.15002892906E+03  0.00000000000E+00 0. -1.
        -14    1    3    3    0    0 -0.15636763137E+02  0.23474066549E+00  0.63556407529E+00  0.15651434639E+02  0.00000000000E+00 0.  1.
        -11    1    4    4    0    0  0.23265134237E+02  0.15519270696E+02 -0.82858460447E+02  0.87450778736E+02  0.00000000000E+00 0. -1.
         11    1    4    4    0    0 -0.30533274095E+02 -0.47884481078E+02 -0.49111915219E+02  0.75081186536E+02  0.00000000000E+00 0.  1.
         21    1    1    2  502  501 -0.42449994163E+02 -0.14453057226E+01 -0.72358298479E+02  0.83903601066E+02  0.00000000000E+00 0.  1.
<scales pt_clust_5="13000.00000" pt_clust_6="13000.00000" pt_clust_7="13000.00000" pt_clust_8="13000.00000" pt_clust_9="42.47459"></scales>
<clustering>
<clus scale="   42.475">  2  9  1 -1</clus>
<clus scale="   80.983">  5  6 -1 -1</clus>
<clus scale="   88.883">  7  8 -1 -1</clus>
<clus scale="   98.707">  1  5  2 -1</clus>
<clus scale="   42.475">  2  5  1 -1</clus>
</clustering>
</event>
<event>
 9    1  0.2951046E-005  0.9438315E+02  0.7546771E-02  0.1294135E+00
         -2   -1    0    0    0  501 -0.00000000000E+00  0.00000000000E+00  0.24599626234E+03  0.24599626234E+03  0.00000000000E+00 0.  1.
          1   -1    0    0  502    0  0.00000000000E+00 -0.00000000000E+00 -0.74772935209E+02  0.74772935209E+02  0.00000000000E+00 0. -1.
        -24    2    1    2    0    0 -0.34568231947E+02  0.30335983157E+02  0.15135701736E+03  0.17772054922E+03  0.80996372619E+02 0.  0.
         23    2    1    2    0    0 -0.19356247269E+01 -0.48011324307E+02  0.29787338299E+02  0.10129489348E+03  0.84050794271E+02 0.  0.
         11    1    3    3    0    0 -0.29584677833E+02 -0.10427208860E+02  0.13990808950E+02  0.34347089864E+02  0.00000000000E+00 0. -1.
        -12    1    3    3    0    0 -0.49835541145E+01  0.40763192017E+02  0.13736620841E+03  0.14337345936E+03  0.00000000000E+00 0.  1.
        -11    1    4    4    0    0 -0.26310058111E+02 -0.62743392081E+02  0.24590928306E+02  0.72344081739E+02  0.00000000000E+00 0.  1.
         11    1    4    4    0    0  0.24374433384E+02  0.14732067774E+02  0.51964099933E+01  0.28950811742E+02  0.00000000000E+00 0. -1.
         21    1    1    2  502  501  0.36503856674E+02  0.17675341150E+02 -0.99210285273E+01  0.41753754848E+02  0.00000000000E+00 0. -1.
<scales pt_clust_5="13000.00000" pt_clust_6="13000.00000" pt_clust_7="13000.00000" pt_clust_8="13000.00000" pt_clust_9="40.55797"></scales>
<clustering>
<clus scale="   40.558">  2  9  1 -1</clus>
<clus scale="   80.996">  5  6 -1 -1</clus>
<clus scale="   84.051">  7  8 -1 -1</clus>
<clus scale="   91.674">  1  5  2 -1</clus>
<clus scale="   40.558">  2  5  1 -1</clus>
</clustering>
</event>
<event>
 9    1  0.2951046E-005  0.8971853E+02  0.7546771E-02  0.1307864E+00
         -2   -1    0    0    0  501 -0.00000000000E+00  0.00000000000E+00  0.45364547592E+02  0.45364547592E+02  0.00000000000E+00 0.  1.
          1   -1    0    0  502    0  0.00000000000E+00 -0.00000000000E+00 -0.57367227859E+03  0.57367227859E+03  0.00000000000E+00 0. -1.
        -24    2    1    2    0    0  0.16030620644E+02 -0.14039062687E+02 -0.20806261969E+02  0.87138955152E+02  0.81891519027E+02 0.  0.
         23    2    1    2    0    0  0.34461543345E+02 -0.15726934096E+01 -0.22243951367E+03  0.24197804773E+03  0.88791705717E+02 0.  0.
         11    1    3    3    0    0  0.28009900979E+02 -0.18140917406E+02 -0.47234634039E+02  0.57833883581E+02  0.00000000000E+00 0. -1.
        -12    1    3    3    0    0 -0.11979280336E+02  0.41018547182E+01  0.26428372071E+02  0.29305071571E+02  0.00000000000E+00 0.  1.
        -13    1    4    4    0    0  0.50815264445E+02  0.22990071787E+02 -0.19048527324E+03  0.19848267890E+03  0.00000000000E+00 0. -1.
         13    1    4    4    0    0 -0.16353721100E+02 -0.24562765196E+02 -0.31954240435E+02  0.43495368830E+02  0.00000000000E+00 0.  1.
         21    1    1    2  502  501 -0.50492163989E+02  0.15611756097E+02 -0.28506195535E+03  0.28991982330E+03  0.00000000000E+00 0. -1.
<scales pt_clust_5="13000.00000" pt_clust_6="13000.00000" pt_clust_7="13000.00000" pt_clust_8="13000.00000" pt_clust_9="52.85060"></scales>
<clustering>
<clus scale="   52.851">  2  9  1 -1</clus>
<clus scale="   81.892">  5  6 -1 -1</clus>
<clus scale="   82.896">  1  5  2 -1</clus>
<clus scale="   88.792">  7  8 -1 -1</clus>
<clus scale="   52.851">  2  5  1 -1</clus>
</clustering>
</event>
<event>
 9    1  0.2951046E-005  0.1620948E+03  0.7546771E-02  0.1188079E+00
          1   -1    0    0  502    0  0.00000000000E+00  0.00000000000E+00  0.11430026825E+03  0.11430026825E+03  0.00000000000E+00 0. -1.
         -2   -1    0    0    0  501 -0.00000000000E+00 -0.00000000000E+00 -0.45106649174E+03  0.45106649174E+03  0.00000000000E+00 0.  1.
         23    2    1    2    0    0  0.13583434596E+03 -0.16609987474E+02 -0.26703879468E+03  0.31415475962E+03  0.93041033417E+02 0.  0.
        -24    2    1    2    0    0 -0.12231321020E+03  0.35796151782E+02 -0.12159637230E+03  0.19427943227E+03  0.81956904371E+02 0.  0.
         13    1    4    4    0    0 -0.80567462697E+02  0.58711157008E+02 -0.10246506860E+03  0.14295875729E+03  0.00000000000E+00 0. -1.
        -14    1    4    4    0    0 -0.41745747499E+02 -0.22915005227E+02 -0.19131303703E+02  0.51320674978E+02  0.00000000000E+00 0.  1.
        -11    1    3    3    0    0  0.14249468835E+03  0.44188262433E+01 -0.24119476656E+03  0.28017704698E+03  0.00000000000E+00 0.  1.
         11    1    3    3    0    0 -0.66603423912E+01 -0.21028813717E+02 -0.25844028119E+02  0.33977712644E+02  0.00000000000E+00 0. -1.
         21    1    1    2  502  501 -0.13521135767E+02 -0.19186164308E+02  0.51868943489E+02  0.56932568113E+02  0.00000000000E+00 0. -1.
<scales pt_clust_5="13000.00000" pt_clust_6="13000.00000" pt_clust_7="13000.00000" pt_clust_8="13000.00000" pt_clust_9="23.47190"></scales>
<clustering>
<clus scale="   23.472">  1  9  2 -1</clus>
<clus scale="   81.957">  5  6 -1 -1</clus>
<clus scale="   93.041">  7  8 -1 -1</clus>
<clus scale="  155.997">  1  5  2 -1</clus>
<clus scale="   23.472">  1  5  2 -1</clus>
</clustering>
</event>
<event>
 9    1  0.2951046E-005  0.1041110E+03  0.7546771E-02  0.1273539E+00
         -2   -1    0    0    0  501 -0.00000000000E+00  0.00000000000E+00  0.70458985830E+02  0.70458985830E+02  0.00000000000E+00 0.  1.
          1   -1    0    0  502    0  0.00000000000E+00 -0.00000000000E+00 -0.54565924547E+03  0.54565924547E+03  0.00000000000E+00 0. -1.
        -24    2    1    2    0    0 -0.37139840120E+02 -0.59984633058E+02  0.16683484849E+02  0.10764061216E+03  0.79565311494E+02 0.  0.
         23    2    1    2    0    0  0.24622337580E+02  0.26385679102E+02 -0.41928829122E+03  0.42751048128E+03  0.75233482453E+02 0.  0.
         13    1    3    3    0    0 -0.41001491113E+02 -0.41974561760E+02 -0.23678416548E+02  0.63274430212E+02  0.00000000000E+00 0. -1.
        -14    1    3    3    0    0  0.38616509933E+01 -0.18010071298E+02  0.40361901397E+02  0.44366181952E+02  0.00000000000E+00 0.  1.
        -11    1    4    4    0    0  0.39541113198E+02  0.44218412029E+02 -0.32711742231E+03  0.33245236587E+03  0.00000000000E+00 0. -1.
         11    1    4    4    0    0 -0.14918775618E+02 -0.17832732928E+02 -0.92170868912E+02  0.95058115412E+02  0.00000000000E+00 0.  1.
         21    1    1    2  502  501  0.12517502540E+02  0.33598953956E+02 -0.72595453265E+02  0.80967137850E+02  0.00000000000E+00 0.  1.
<scales pt_clust_5="13000.00000" pt_clust_6="13000.00000" pt_clust_7="13000.00000" pt_clust_8="13000.00000" pt_clust_9="35.85495"></scales>
<clustering>
<clus scale="   35.855">  2  9  1 -1</clus>
<clus scale="   75.233">  7  8 -1 -1</clus>
<clus scale="   79.565">  5  6 -1 -1</clus>
<clus scale="  100.839">  2  7  1 -1</clus>
<clus scale="   35.855">  2  5  1 -1</clus>
</clustering>
</event>
<event>
 9    1  0.2951046E-005  0.1514178E+03  0.7546771E-02  0.1205844E+00
          1   -1    0    0  502    0  0.00000000000E+00  0.00000000000E+00  0.99462214400E+03  0.99462214400E+03  0.00000000000E+00 0. -1.
         -2   -1    0    0    0  501 -0.00000000000E+00 -0.00000000000E+00 -0.57856388650E+02  0.57856388650E+02  0.00000000000E+00 0.  1.
        -24    2    1    2    0    0 -0.83268596172E+02 -0.62739010865E+02  0.15111082690E+03  0.19923794876E+03  0.77404364392E+02 0.  0.
         23    2    1    2    0    0 -0.46823214807E+02  0.90219655944E+02  0.14780677043E+03  0.20168142477E+03  0.92176764697E+02 0.  0.
         11    1    3    3    0    0 -0.19769922790E+02  0.74542090543E+01  0.23563059962E+00  0.21129850958E+02  0.00000000000E+00 0. -1.
        -12    1    3    3    0    0 -0.63498673382E+02 -0.70193219919E+02  0.15087519630E+03  0.17810809780E+03  0.00000000000E+00 0.  1.
        -13    1    4    4    0    0  0.24261226914E+02  0.30723607849E+01  0.21490967968E+02  0.32556231913E+02  0.00000000000E+00 0.  1.
         13    1    4    4    0    0 -0.71084441721E+02  0.87147295159E+02  0.12631580246E+03  0.16912519286E+03  0.00000000000E+00 0. -1.
         21    1    1    2  502  501  0.13009181098E+03 -0.27480645079E+02  0.63784815802E+03  0.65155915912E+03  0.00000000000E+00 0. -1.
<scales pt_clust_5="13000.00000" pt_clust_6="13000.00000" pt_clust_7="13000.00000" pt_clust_8="13000.00000" pt_clust_9="120.12820"></scales>
<clustering>
<clus scale="   77.404">  5  6 -1 -1</clus>
<clus scale="   92.177">  7  8 -1 -1</clus>
<clus scale="  129.851">  2  5  1 -1</clus>
<clus scale="  120.128">  1  9  2 -1</clus>
<clus scale="  120.128">  1  5  2 -1</clus>
</clustering>
</event>
<event>
 9    1  0.2951046E-005  0.1416071E+03  0.7546771E-02  0.1213188E+00
         -2   -1    0    0    0  501 -0.00000000000E+00  0.00000000000E+00  0.20153363366E+03  0.20153363366E+03  0.00000000000E+00 0.  1.
          1   -1    0    0  502    0  0.00000000000E+00 -0.00000000000E+00 -0.33863448553E+03  0.33863448553E+03  0.00000000000E+00 0. -1.
        -24    2    1    2    0    0 -0.84065057275E+02 -0.63480099124E+02  0.14705035026E+03  0.19940947432E+03  0.83926611372E+02 0.  0.
         23    2    1    2    0    0  0.79337142855E+02  0.88970987498E+02 -0.18881520627E+03  0.24196041276E+03  0.93184979310E+02 0.  0.
         11    1    3    3    0    0 -0.60856559267E+01 -0.22318080515E+02 -0.49761269259E+01  0.23662074404E+02  0.00000000000E+00 0. -1.
        -12    1    3    3    0    0 -0.77979401348E+02 -0.41162018609E+02  0.15202647718E+03  0.17574739991E+03  0.00000000000E+00 0.  1.
        -13    1    4    4    0    0 -0.13457325543E+02  0.46726953329E+02 -0.50238759861E+02  0.69917385324E+02  0.00000000000E+00 0.  1.
         13    1    4    4    0    0  0.92794468398E+02  0.42244034169E+02 -0.13857644641E+03  0.17204302743E+03  0.00000000000E+00 0. -1.
         21    1    1    2  502  501  0.47279144200E+01 -0.25490888374E+02 -0.95335995852E+02  0.98798232120E+02  0.00000000000E+00 0.  1.
<scales pt_clust_5="13000.00000" pt_clust_6="13000.00000" pt_clust_7="13000.00000" pt_clust_8="13000.00000" pt_clust_9="25.92564"></scales>
<clustering>
<clus scale="   25.926">  2  9  1 -1</clus>
<clus scale="   83.927">  5  6 -1 -1</clus>
<clus scale="   93.185">  7  8 -1 -1</clus>
<clus scale="  135.694">  1  5  2 -1</clus>
<clus scale="   25.926">  2  5  1 -1</clus>
</clustering>
</event>
<event>
 9    1  0.2951046E-005  0.1508770E+03  0.7546771E-02  0.1201669E+00
         -2   -1    0    0    0  501 -0.00000000000E+00  0.00000000000E+00  0.68124805723E+03  0.68124805723E+03  0.00000000000E+00 0.  1.
          1   -1    0    0  502    0  0.00000000000E+00 -0.00000000000E+00 -0.19162169549E+03  0.19162169549E+03  0.00000000000E+00 0. -1.
        -24    2    1    2    0    0  0.10846187083E+03  0.58944284999E+02  0.59043346357E+03  0.60858071463E+03  0.80749025692E+02 0.  0.
         23    2    1    2    0    0 -0.10438982804E+02 -0.81857891518E+02 -0.10611967089E+03  0.16348356538E+03  0.93036577926E+02 0.  0.
         11    1    3    3    0    0  0.30260092677E+02  0.94179823865E+01  0.43224686295E+02  0.53597995358E+02  0.00000000000E+00 0. -1.
        -12    1    3    3    0    0  0.78201778152E+02  0.49526302613E+02  0.54720877728E+03  0.55498271927E+03  0.00000000000E+00 0.  1.
        -13    1    4    4    0    0 -0.43100563770E+02 -0.60895284848E+02 -0.99101233920E+02  0.12404414085E+03  0.00000000000E+00 0.  1.
         13    1    4    4    0    0  0.32661580966E+02 -0.20962606670E+02 -0.70184369700E+01  0.39439424528E+02  0.00000000000E+00 0. -1.
         21    1    1    2  502  501 -0.98022888026E+02  0.22913606518E+02  0.53125690565E+01  0.10080547272E+03  0.00000000000E+00 0. -1.
<scales pt_clust_5="13000.00000" pt_clust_6="13000.00000" pt_clust_7="13000.00000" pt_clust_8="13000.00000" pt_clust_9="100.66539"></scales>
<clustering>
<clus scale="   80.749">  5  6 -1 -1</clus>
<clus scale="   93.037">  7  8 -1 -1</clus>
<clus scale="  100.665">  2  9  1 -1</clus>
<clus scale="  143.626">  1  5  2 -1</clus>
<clus scale="  100.665">  2  5  1 -1</clus>
</clustering>
</event>
<event>
 9    1  0.2951046E-005  0.9307235E+02  0.7546771E-02  0.1301925E+00
         -2   -1    0    0    0  501 -0.00000000000E+00  0.00000000000E+00  0.19114054197E+03  0.19114054197E+03  0.00000000000E+00 0.  1.
          1   -1    0    0  502    0  0.00000000000E+00 -0.00000000000E+00 -0.28850753959E+03  0.28850753959E+03  0.00000000000E+00 0. -1.
        -24    2    1    2    0    0 -0.12554538509E+02  0.13349157549E+02  0.15440048666E+03  0.17504170077E+03  0.80400685839E+02 0.  0.
         23    2    1    2    0    0  0.19100765371E+02 -0.53495013688E+02 -0.23902330445E+03  0.26198060255E+03  0.90967798226E+02 0.  0.
         11    1    3    3    0    0 -0.40970429360E+02 -0.39841952634E+01  0.12132253137E+03  0.12811559824E+03  0.00000000000E+00 0. -1.
        -12    1    3    3    0    0  0.28415890852E+02  0.17333352812E+02  0.33077955283E+02  0.46926102526E+02  0.00000000000E+00 0.  1.
        -11    1    4    4    0    0  0.24716620557E+02  0.16232348347E+02 -0.12296533088E+03  0.12647083879E+03  0.00000000000E+00 0.  1.
         11    1    4    4    0    0 -0.56158551865E+01 -0.69727362034E+02 -0.11605797357E+03  0.13550976376E+03  0.00000000000E+00 0. -1.
         21    1    1    2  502  501 -0.65462268621E+01  0.40145856139E+02 -0.12744179833E+02  0.42625778244E+02  0.00000000000E+00 0.  1.
<scales pt_clust_5="13000.00000" pt_clust_6="13000.00000" pt_clust_7="13000.00000" pt_clust_8="13000.00000" pt_clust_9="40.67607"></scales>
<clustering>
<clus scale="   40.676">  2  9  1 -1</clus>
<clus scale="   80.401">  5  6 -1 -1</clus>
<clus scale="   82.774">  1  5  2 -1</clus>
<clus scale="   90.968">  7  8 -1 -1</clus>
<clus scale="   40.676">  2  5  1 -1</clus>
</clustering>
</event>
<event>
 9    1  0.2951046E-005  0.1064116E+03  0.7546771E-02  0.1271480E+00
          1   -1    0    0  502    0  0.00000000000E+00  0.00000000000E+00  0.45825962859E+03  0.45825962859E+03  0.00000000000E+00 0. -1.
         -2   -1    0    0    0  501 -0.00000000000E+00 -0.00000000000E+00 -0.67684635000E+02  0.67684635000E+02  0.00000000000E+00 0.  1.
         23    2    1    2    0    0  0.29034643611E+01  0.68403620368E+01  0.17044362051E+01  0.90520542405E+02  0.90198907069E+02 0.  0.
        -24    2    1    2    0    0  0.54066173602E+02 -0.38218351531E+02  0.33546745917E+03  0.35126904946E+03  0.80422232145E+02 0.  0.
         13    1    4    4    0    0  0.69071167009E+02 -0.38867961942E+02  0.32015941634E+03  0.32982358383E+03  0.00000000000E+00 0. -1.
        -14    1    4    4    0    0 -0.15004993406E+02  0.64961041052E+00  0.15308042828E+02  0.21445465629E+02  0.00000000000E+00 0.  1.
        -11    1    3    3    0    0 -0.35699542113E+02  0.53555273316E+01 -0.24688485713E+02  0.43733972000E+02  0.00000000000E+00 0.  1.
         11    1    3    3    0    0  0.38603006474E+02  0.14848347052E+01  0.26392921918E+02  0.46786570405E+02  0.00000000000E+00 0. -1.
         21    1    1    2  502  501 -0.56969637964E+02  0.31377989494E+02  0.53403098212E+02  0.84154671724E+02  0.00000000000E+00 0.  1.
<scales pt_clust_5="13000.00000" pt_clust_6="13000.00000" pt_clust_7="13000.00000" pt_clust_8="13000.00000" pt_clust_9="65.03936"></scales>
<clustering>
<clus scale="   65.039">  2  9  1 -1</clus>
<clus scale="   80.422">  5  6 -1 -1</clus>
<clus scale="   90.199">  7  8 -1 -1</clus>
<clus scale="   98.261">  1  5  2 -1</clus>
<clus scale="   98.261">  1  5  2 -1</clus>
</clustering>
</event>
<event>
 9    1  0.2951046E-005  0.1010968E+03  0.7546771E-02  0.1284899E+00
          1   -1    0    0  502    0  0.00000000000E+00  0.00000000000E+00  0.20031871155E+03  0.20031871155E+03  0.00000000000E+00 0. -1.
         -2   -1    0    0    0  501 -0.00000000000E+00 -0.00000000000E+00 -0.35366771249E+03  0.35366771249E+03  0.00000000000E+00 0.  1.
        -24    2    1    2    0    0 -0.35152235130E+02  0.11604048804E+02 -0.32698000163E+03  0.33880666166E+03  0.80645514085E+02 0.  0.
         23    2    1    2    0    0  0.24880585491E+02 -0.32875231930E+02  0.14956827939E+03  0.18146056052E+03  0.94113975666E+02 0.  0.
         13    1    3    3    0    0 -0.15285886940E+01  0.40173979716E+02 -0.20931794955E+03  0.21314382288E+03  0.00000000000E+00 0. -1.
        -14    1    3    3    0    0 -0.33623646436E+02 -0.28569930912E+02 -0.11766205208E+03  0.12566283878E+03  0.00000000000E+00 0.  1.
        -11    1    4    4    0    0  0.14002914810E+02  0.26084123291E+02  0.98017528518E+02  0.10239091272E+03  0.00000000000E+00 0. -1.
         11    1    4    4    0    0  0.10877670681E+02 -0.58959355221E+02  0.51550750873E+02  0.79069647799E+02  0.00000000000E+00 0.  1.
         21    1    1    2  502  501  0.10271649639E+02  0.21271183126E+02  0.24062721289E+02  0.33719201855E+02  0.00000000000E+00 0. -1.
<scales pt_clust_5="13000.00000" pt_clust_6="13000.00000" pt_clust_7="13000.00000" pt_clust_8="13000.00000" pt_clust_9="23.62139"></scales>
<clustering>
<clus scale="   23.621">  1  9  2 -1</clus>
<clus scale="   80.646">  5  6 -1 -1</clus>
<clus scale="   88.695">  2  5  1 -1</clus>
<clus scale="   94.114">  7  8 -1 -1</clus>
<clus scale="   23.621">  1  5  2 -1</clus>
</clustering>
</event>
<event>
 9    1  0.2951046E-005  0.3867867E+03  0.7546771E-02  0.1096400E+00
         -2   -1    0    0    0  501 -0.00000000000E+00  0.00000000000E+00  0.58385288596E+03  0.58385288596E+03  0.00000000000E+00 0.  1.
          1   -1    0    0  502    0  0.00000000000E+00 -0.00000000000E+00 -0.35889713771E+03  0.35889713771E+03  0.00000000000E+00 0. -1.
         23    2    1    2    0    0 -0.85466145543E+02  0.38389633330E+03  0.27632509427E+03  0.48933332850E+03  0.91709824420E+02 0.  0.
        -24    2    1    2    0    0  0.54256773065E+02 -0.41067402065E+02  0.59262429866E+01  0.10443462466E+03  0.79000895792E+02 0.  0.
         13    1    4    4    0    0  0.70996019546E+02 -0.46722095037E+02  0.11821042550E+02  0.85808659254E+02  0.00000000000E+00 0. -1.
        -14    1    4    4    0    0 -0.16739246481E+02  0.56546929728E+01 -0.58947995639E+01  0.18625965405E+02  0.00000000000E+00 0.  1.
        -13    1    3    3    0    0 -0.20956737877E+02  0.27918316310E+03  0.17680660172E+03  0.33112384063E+03  0.00000000000E+00 0.  1.
         13    1    3    3    0    0 -0.64509407666E+02  0.10471317020E+03  0.99518492552E+02  0.15820948787E+03  0.00000000000E+00 0. -1.
         21    1    1    2  502  501  0.31209372478E+02 -0.34282893124E+03 -0.57295589008E+02  0.34898207052E+03  0.00000000000E+00 0. -1.
<scales pt_clust_5="13000.00000" pt_clust_6="13000.00000" pt_clust_7="13000.00000" pt_clust_8="13000.00000" pt_clust_9="375.75696"></scales>
<clustering>
<clus scale="   79.001">  5  6 -1 -1</clus>
<clus scale="   91.710">  7  8 -1 -1</clus>
<clus scale="  104.266">  2  5  1 -1</clus>
<clus scale="  375.757">  2  9  1 -1</clus>
<clus scale="  104.266">  2  5  1 -1</clus>
</clustering>
</event>
<event>
 9    1  0.2951046E-005  0.3588274E+03  0.7546771E-02  0.1108917E+00
         -2   -1    0    0    0  501 -0.00000000000E+00  0.00000000000E+00  0.15544438527E+03  0.15544438527E+03  0.00000000000E+00 0.  1.
          1   -1    0    0  502    0  0.00000000000E+00 -0.00000000000E+00 -0.13155998038E+04  0.13155998038E+04  0.00000000000E+00 0. -1.
        -24    2    1    2    0    0 -0.31525699104E+03 -0.13126368312E+03 -0.20196240994E+03  0.40565209988E+03  0.84543989747E+02 0.  0.
         23    2    1    2    0    0 -0.17440319700E+02 -0.22562125438E+02 -0.26333365220E+03  0.27978442304E+03  0.90119347187E+02 0.  0.
         11    1    3    3    0    0 -0.42420939597E+02  0.10968206719E+02 -0.30865789742E+02  0.53596032048E+02  0.00000000000E+00 0. -1.
        -12    1    3    3    0    0 -0.27283605145E+03 -0.14223188984E+03 -0.17109662020E+03  0.35205606783E+03  0.00000000000E+00 0.  1.
        -13    1    4    4    0    0 -0.53361760892E+02 -0.37022783643E+01 -0.16325986250E+03  0.17179920574E+03  0.00000000000E+00 0.  1.
         13    1    4    4    0    0  0.35921441192E+02 -0.18859847074E+02 -0.10007378970E+03  0.10798521730E+03  0.00000000000E+00 0. -1.
         21    1    1    2  502  501  0.33269731074E+03  0.15382580855E+03 -0.69485935634E+03  0.78560766611E+03  0.00000000000E+00 0. -1.
<scales pt_clust_5="13000.00000" pt_clust_6="13000.00000" pt_clust_7="13000.00000" pt_clust_8="13000.00000" pt_clust_9="348.72544"></scales>
<clustering>
<clus scale="   84.544">  5  6 -1 -1</clus>
<clus scale="   90.119">  7  8 -1 -1</clus>
<clus scale="   94.524">  2  7  1 -1</clus>
<clus scale="  348.725">  2  9  1 -1</clus>
<clus scale="   94.524">  2  5  1 -1</clus>
</clustering>
</event>
<event>
 9    1  0.2951046E-005  0.2737816E+03  0.7546771E-02  0.1099581E+00
          1   -1    0    0  502    0  0.00000000000E+00  0.00000000000E+00  0.88387719761E+03  0.88387719761E+03  0.00000000000E+00 0. -1.
         -2   -1    0    0    0  501 -0.00000000000E+00 -0.00000000000E+00 -0.17924855973E+03  0.17924855973E+03  0.00000000000E+00 0.  1.
        -24    2    1    2    0    0  0.13437194153E+03  0.21575810067E+03 -0.20730666858E+02  0.26736777521E+03  0.80301867949E+02 0.  0.
         23    2    1    2    0    0 -0.14919901332E+03 -0.24045952588E+03  0.67953895904E+03  0.74163306602E+03  0.90361931124E+02 0.  0.
         13    1    3    3    0    0  0.10231552496E+03  0.14157805815E+03  0.21824737480E+02  0.17603730390E+03  0.00000000000E+00 0. -1.
        -14    1    3    3    0    0  0.32056416572E+02  0.74180042523E+02 -0.42555404338E+02  0.91330471314E+02  0.00000000000E+00 0.  1.
        -13    1    4    4    0    0 -0.38944425509E+02 -0.10197494510E+03  0.16815005026E+03  0.20047443007E+03  0.00000000000E+00 0.  1.
         13    1    4    4    0    0 -0.11025458781E+03 -0.13848458078E+03  0.51138890878E+03  0.54115863595E+03  0.00000000000E+00 0. -1.
         21    1    1    2  502  501  0.14827071783E+02  0.24701425203E+02  0.45820345691E+02  0.54124916111E+02  0.00000000000E+00 0. -1.
<scales pt_clust_5="13000.00000" pt_clust_6="13000.00000" pt_clust_7="13000.00000" pt_clust_8="13000.00000" pt_clust_9="28.80976"></scales>
<clustering>
<clus scale="   28.810">  1  9  2 -1</clus>
<clus scale="   80.302">  5  6 -1 -1</clus>
<clus scale="   90.362">  7  8 -1 -1</clus>
<clus scale="  270.628">  2  5  1 -1</clus>
<clus scale="   28.810">  1  5  2 -1</clus>
</clustering>
</event>
<event>
 9    1  0.2951046E-005  0.9530032E+02  0.7546771E-02  0.1297094E+00
         -2   -1    0    0    0  501 -0.00000000000E+00  0.00000000000E+00  0.60393348518E+02  0.60393348518E+02  0.00000000000E+00 0.  1.
          1   -1    0    0  502    0  0.00000000000E+00 -0.00000000000E+00 -0.35272351056E+03  0.35272351056E+03  0.00000000000E+00 0. -1.
        -24    2    1    2    0    0  0.17551098660E+02 -0.21441826515E+02  0.80940873649E+01  0.85803328028E+02  0.80801632792E+02 0.  0.
         23    2    1    2    0    0 -0.17881913709E+02 -0.92878043387E+01 -0.18274994891E+03  0.20569255980E+03  0.92227214974E+02 0.  0.
         13    1    3    3    0    0 -0.94998568312E+01  0.25685848517E+02 -0.90185375807E+01  0.28833038583E+02  0.00000000000E+00 0. -1.
        -14    1    3    3    0    0  0.27050955492E+02 -0.47127675032E+02  0.17112624946E+02  0.56970289445E+02  0.00000000000E+00 0.  1.
        -11    1    4    4    0    0 -0.19267548922E+02 -0.48023762364E+02 -0.74455880057E+02  0.90670823687E+02  0.00000000000E+00 0.  1.
         11    1    4    4    0    0  0.13856352126E+01  0.38735958025E+02 -0.10829406885E+03  0.11502173611E+03  0.00000000000E+00 0. -1.
         21    1    1    2  502  501  0.33081504870E+00  0.30729630854E+02 -0.11767430049E+03  0.12162097125E+03  0.00000000000E+00 0. -1.
<scales pt_clust_5="13000.00000" pt_clust_6="13000.00000" pt_clust_7="13000.00000" pt_clust_8="13000.00000" pt_clust_9="30.73141"></scales>
<clustering>
<clus scale="   30.731">  2  9  1 -1</clus>
<clus scale="   80.802">  5  6 -1 -1</clus>
<clus scale="   84.292">  1  5  2 -1</clus>
<clus scale="   92.227">  7  8 -1 -1</clus>
<clus scale="   30.731">  2  5  1 -1</clus>
</clustering>
</event>
<event>
 9    1  0.2951046E-005  0.9818672E+02  0.7546771E-02  0.1289859E+00
          1   -1    0    0  502    0  0.00000000000E+00  0.00000000000E+00  0.42461491471E+03  0.42461491471E+03  0.00000000000E+00 0. -1.
         -2   -1    0    0    0  501 -0.00000000000E+00 -0.00000000000E+00 -0.14720485319E+03  0.14720485319E+03  0.00000000000E+00 0.  1.
         23    2    1    2    0    0 -0.32759600181E+02  0.22751809495E+02 -0.11599931143E+03  0.15286652516E+03  0.91222245231E+02 0.  0.
        -24    2    1    2    0    0 -0.15705946915E+02  0.91228013912E+01  0.27533725887E+03  0.28740125987E+03  0.80367753358E+02 0.  0.
         11    1    4    4    0    0  0.31902659772E+02 -0.55872608279E+01  0.99387534727E+02  0.10453171405E+03  0.00000000000E+00 0. -1.
        -12    1    4    4    0    0 -0.47608606687E+02  0.14710062219E+02  0.17594972415E+03  0.18286954582E+03  0.00000000000E+00 0.  1.
        -11    1    3    3    0    0  0.26329263354E+02  0.90197058627E+01 -0.79369358956E+01  0.28940977074E+02  0.00000000000E+00 0. -1.
         11    1    3    3    0    0 -0.59088863535E+02  0.13732103633E+02 -0.10806237553E+03  0.12392554809E+03  0.00000000000E+00 0.  1.
         21    1    1    2  502  501  0.48465547096E+02 -0.31874610886E+02  0.11807211407E+03  0.13155198286E+03  0.00000000000E+00 0. -1.
<scales pt_clust_5="13000.00000" pt_clust_6="13000.00000" pt_clust_7="13000.00000" pt_clust_8="13000.00000" pt_clust_9="58.00776"></scales>
<clustering>
<clus scale="   58.008">  1  9  2 -1</clus>
<clus scale="   80.368">  5  6 -1 -1</clus>
<clus scale="   88.194">  1  5  2 -1</clus>
<clus scale="   91.222">  7  8 -1 -1</clus>
<clus scale="   58.008">  1  5  2 -1</clus>
</clustering>
</event>
<event>
 9    1  0.2951046E-005  0.9714634E+02  0.7546771E-02  0.1292800E+00
          1   -1    0    0  502    0  0.00000000000E+00  0.00000000000E+00  0.56927225888E+03  0.56927225888E+03  0.00000000000E+00 0. -1.
         -2   -1    0    0    0  501 -0.00000000000E+00 -0.00000000000E+00 -0.52110724943E+02  0.52110724943E+02  0.00000000000E+00 0.  1.
        -24    2    1    2    0    0  0.15414453590E+02  0.24779028720E+02  0.30329865236E+01  0.84809183290E+02  0.79572563860E+02 0.  0.
         23    2    1    2    0    0 -0.18496324273E+02 -0.61363674536E+02  0.31715230140E+03  0.33620520087E+03  0.91327653239E+02 0.  0.
         11    1    3    3    0    0 -0.32664753767E+02  0.13021702579E+02  0.32323647274E+01  0.35312873834E+02  0.00000000000E+00 0. -1.
        -12    1    3    3    0    0  0.48079207357E+02  0.11757326141E+02 -0.19937820385E+00  0.49496309455E+02  0.00000000000E+00 0.  1.
        -13    1    4    4    0    0 -0.53302419749E+02 -0.25369316477E+02  0.20609201009E+03  0.21437972570E+03  0.00000000000E+00 0.  1.
         13    1    4    4    0    0  0.34806095476E+02 -0.35994358059E+02  0.11106029131E+03  0.12182547517E+03  0.00000000000E+00 0. -1.
         21    1    1    2  502  501  0.30818706827E+01  0.36584645816E+02  0.19697624601E+03  0.20036859966E+03  0.00000000000E+00 0.  1.
<scales pt_clust_5="13000.00000" pt_clust_6="13000.00000" pt_clust_7="13000.00000" pt_clust_8="13000.00000" pt_clust_9="36.71422"></scales>
<clustering>
<clus scale="   36.714">  1  9  2 -1</clus>
<clus scale="   79.573">  5  6 -1 -1</clus>
<clus scale="   86.189">  2  5  1 -1</clus>
<clus scale="   91.328">  7  8 -1 -1</clus>
<clus scale="   36.714">  1  5  2 -1</clus>
</clustering>
</event>
<event>
 9    1  0.2951046E-005  0.1037487E+03  0.7546771E-02  0.1279822E+00
         -4   -1    0    0    0  501 -0.00000000000E+00  0.00000000000E+00  0.19194448588E+02  0.19194448588E+02  0.00000000000E+00 0.  1.
          3   -1    0    0  502    0  0.00000000000E+00 -0.00000000000E+00 -0.64498963139E+03  0.64498963139E+03  0.00000000000E+00 0. -1.
        -24    2    1    2    0    0 -0.38867696484E+02  0.48593691534E+02 -0.24454448887E+03  0.26347913763E+03  0.75810317508E+02 0.  0.
         23    2    1    2    0    0  0.25482684804E+02 -0.29397169409E+02 -0.32336633943E+03  0.33826886708E+03  0.91359050806E+02 0.  0.
         11    1    3    3    0    0  0.13694589505E+02  0.42341853595E+02 -0.96818341340E+02  0.10655592695E+03  0.00000000000E+00 0. -1.
        -12    1    3    3    0    0 -0.52562285989E+02  0.62518379388E+01 -0.14772614753E+03  0.15692321068E+03  0.00000000000E+00 0.  1.
        -11    1    4    4    0    0  0.42946852595E+02  0.12868830267E+02 -0.22970094823E+03  0.23403539168E+03  0.00000000000E+00 0. -1.
         11    1    4    4    0    0 -0.17464167791E+02 -0.42265999676E+02 -0.93665391195E+02  0.10423347540E+03  0.00000000000E+00 0.  1.
         21    1    1    2  502  501  0.13385011680E+02 -0.19196522125E+02 -0.57884354508E+02  0.62436075278E+02  0.00000000000E+00 0.  1.
<scales pt_clust_5="13000.00000" pt_clust_6="13000.00000" pt_clust_7="13000.00000" pt_clust_8="13000.00000" pt_clust_9="23.40224"></scales>
<clustering>
<clus scale="   23.402">  1  9  2 -1</clus>
<clus scale="   75.810">  5  6 -1 -1</clus>
<clus scale="   90.358">  1  5  2 -1</clus>
<clus scale="   91.359">  7  8 -1 -1</clus>
<clus scale="  103.749">  2  5  1 -1</clus>
</clustering>
</event>
<event>
 9    1  0.2951046E-005  0.1171973E+03  0.7546771E-02  0.1250334E+00
         -2   -1    0    0    0  501 -0.00000000000E+00  0.00000000000E+00  0.42888466735E+03  0.42888466735E+03  0.00000000000E+00 0.  1.
          1   -1    0    0  502    0  0.00000000000E+00 -0.00000000000E+00 -0.11143135261E+03  0.11143135261E+03  0.00000000000E+00 0. -1.
        -24    2    1    2    0    0 -0.67607979137E+02  0.36567870006E+02  0.36288102500E+03  0.38005718327E+03  0.82781497259E+02 0.  0.
         23    2    1    2    0    0  0.61118535128E+02 -0.10928557628E+02 -0.23754596852E+01  0.10973177956E+03  0.90446182503E+02 0.  0.
         13    1    3    3    0    0 -0.76349364104E+02  0.36064098544E+02  0.20199902673E+03  0.21893709462E+03  0.00000000000E+00 0. -1.
        -14    1    3    3    0    0  0.87413849672E+01  0.50377146180E+00  0.16088199827E+03  0.16112008864E+03  0.00000000000E+00 0.  1.
        -13    1    4    4    0    0 -0.57772735580E+01 -0.35443684159E+02  0.10316224262E+02  0.37363834380E+02  0.00000000000E+00 0.  1.
         13    1    4    4    0    0  0.66895808686E+02  0.24515126532E+02 -0.12691683948E+02  0.72367945183E+02  0.00000000000E+00 0. -1.
         21    1    1    2  502  501  0.64894440090E+01 -0.25639312378E+02 -0.43052250572E+02  0.50527057129E+02  0.00000000000E+00 0.  1.
<scales pt_clust_5="13000.00000" pt_clust_6="13000.00000" pt_clust_7="13000.00000" pt_clust_8="13000.00000" pt_clust_9="26.44782"></scales>
<clustering>
<clus scale="   26.448">  2  9  1 -1</clus>
<clus scale="   82.781">  5  6 -1 -1</clus>
<clus scale="   90.446">  7  8 -1 -1</clus>
<clus scale="  111.389">  1  5  2 -1</clus>
<clus scale="   26.448">  2  5  1 -1</clus>
</clustering>
</event>
<event>
 9    1  0.2951046E-005  0.1303344E+03  0.7546771E-02  0.1229783E+00
          1   -1    0    0  502    0  0.00000000000E+00  0.00000000000E+00  0.70682667620E+03  0.70682667620E+03  0.00000000000E+00 0. -1.
         -2   -1    0    0    0  501 -0.00000000000E+00 -0.00000000000E+00 -0.68246700111E+02  0.68246700111E+02  0.00000000000E+00 0.  1.
        -24    2    1    2    0    0  0.61486345396E+02 -0.75593056569E+02  0.70088415302E+01  0.12635917818E+03  0.80141357485E+02 0.  0.
         23    2    1    2    0    0 -0.49024502601E+02  0.43786530492E+02  0.43937871816E+03  0.45350949135E+03  0.91085337276E+02 0.  0.
         13    1    3    3    0    0  0.16442998957E+02  0.11885531825E+02 -0.15368555822E+02  0.25452516369E+02  0.00000000000E+00 0. -1.
        -14    1    3    3    0    0  0.45043346438E+02 -0.87478588395E+02  0.22377397352E+02  0.10090666181E+03  0.00000000000E+00 0.  1.
        -13    1    4    4    0    0  0.19785527277E+02  0.25107855258E+02  0.65397645609E+02  0.72792331577E+02  0.00000000000E+00 0.  1.
         13    1    4    4    0    0 -0.68810029878E+02  0.18678675234E+02  0.37398107255E+03  0.38071715978E+03  0.00000000000E+00 0. -1.
         21    1    1    2  502  501 -0.12461842795E+02  0.31806526077E+02  0.19219241640E+03  0.19520470678E+03  0.00000000000E+00 0. -1.
<scales pt_clust_5="13000.00000" pt_clust_6="13000.00000" pt_clust_7="13000.00000" pt_clust_8="13000.00000" pt_clust_9="34.16069"></scales>
<clustering>
<clus scale="   34.161">  1  9  2 -1</clus>
<clus scale="   80.141">  5  6 -1 -1</clus>
<clus scale="   91.085">  7  8 -1 -1</clus>
<clus scale="  122.936">  2  5  1 -1</clus>
<clus scale="   34.161">  1  5  2 -1</clus>
</clustering>
</event>
<event>
 9    1  0.2951046E-005  0.1324369E+03  0.7546771E-02  0.1225538E+00
          1   -1    0    0  502    0  0.00000000000E+00  0.00000000000E+00  0.46175299989E+03  0.46175299989E+03  0.00000000000E+00 0. -1.
         -2   -1    0    0    0  501 -0.00000000000E+00 -0.00000000000E+00 -0.61157998878E+03  0.61157998878E+03  0.00000000000E+00 0.  1.
        -24    2    1    2    0    0  0.90093087240E+02 -0.35734924912E+02 -0.59171321802E+03  0.60548138552E+03  0.84198732755E+02 0.  0.
         23    2    1    2    0    0 -0.56901516458E+02  0.46191079234E+02  0.30408487202E+03  0.32572410561E+03  0.90869055283E+02 0.  0.
         13    1    3    3    0    0 -0.68132752472E+01 -0.30562718830E+02 -0.13883681136E+03  0.14232413952E+03  0.00000000000E+00 0. -1.
        -14    1    3    3    0    0  0.96906362487E+02 -0.51722060817E+01 -0.45287640666E+03  0.46315724600E+03  0.00000000000E+00 0.  1.
        -11    1    4    4    0    0 -0.54632414261E+02  0.15167288955E+02  0.28182850969E+03  0.28747531410E+03  0.00000000000E+00 0. -1.
         11    1    4    4    0    0 -0.22691021961E+01  0.31023790279E+02  0.22256362335E+02  0.38248791516E+02  0.00000000000E+00 0.  1.
         21    1    1    2  502  501 -0.33191570782E+02 -0.10456154321E+02  0.13780135711E+03  0.14212749754E+03  0.00000000000E+00 0. -1.
<scales pt_clust_5="13000.00000" pt_clust_6="13000.00000" pt_clust_7="13000.00000" pt_clust_8="13000.00000" pt_clust_9="34.79959"></scales>
<clustering>
<clus scale="   34.800">  1  9  2 -1</clus>
<clus scale="   84.199">  5  6 -1 -1</clus>
<clus scale="   90.869">  7  8 -1 -1</clus>
<clus scale="  127.952">  2  5  1 -1</clus>
<clus scale="   34.800">  1  5  2 -1</clus>
</clustering>
</event>
<event>
 9    1  0.2951046E-005  0.1349737E+03  0.7546771E-02  0.1223122E+00
         -2   -1    0    0    0  501 -0.00000000000E+00  0.00000000000E+00  0.59345507281E+03  0.59345507281E+03  0.00000000000E+00 0.  1.
          1   -1    0    0  502    0  0.00000000000E+00 -0.00000000000E+00 -0.35958148584E+02  0.35958148584E+02  0.00000000000E+00 0. -1.
         23    2    1    2    0    0 -0.83529965566E+02 -0.64590907716E+02  0.34961170722E+03  0.37660604864E+03  0.91948515703E+02 0.  0.
        -24    2    1    2    0    0  0.78974399394E+02  0.44417984045E+02  0.19140086167E+03  0.22636035814E+03  0.79967548556E+02 0.  0.
         11    1    4    4    0    0  0.33669192361E+02 -0.22027497830E+02  0.69976919848E+02  0.80719232443E+02  0.00000000000E+00 0. -1.
        -12    1    4    4    0    0  0.45305207033E+02  0.66445481875E+02  0.12142394182E+03  0.14564112569E+03  0.00000000000E+00 0.  1.
        -13    1    3    3    0    0  0.16229224150E+02 -0.30063304022E+02  0.96152660145E+02  0.10204177585E+03  0.00000000000E+00 0. -1.
         13    1    3    3    0    0 -0.99759189716E+02 -0.34527603694E+02  0.25345904707E+03  0.27456427279E+03  0.00000000000E+00 0.  1.
         21    1    1    2  502  501  0.45555661720E+01  0.20172923672E+02  0.16484355342E+02  0.26446814622E+02  0.00000000000E+00 0.  1.
<scales pt_clust_5="13000.00000" pt_clust_6="13000.00000" pt_clust_7="13000.00000" pt_clust_8="13000.00000" pt_clust_9="20.68091"></scales>
<clustering>
<clus scale="   20.681">  2  9  1 -1</clus>
<clus scale="   79.968">  5  6 -1 -1</clus>
<clus scale="   91.949">  7  8 -1 -1</clus>
<clus scale="  127.115">  2  5  1 -1</clus>
<clus scale="   20.681">  2  5  1 -1</clus>
</clustering>
</event>
<event>
 9    1  0.2951046E-005  0.1829963E+03  0.7546771E-02  0.1193490E+00
          1   -1    0    0  502    0  0.00000000000E+00  0.00000000000E+00  0.64531794794E+03  0.64531794794E+03  0.00000000000E+00 0. -1.
         -2   -1    0    0    0  501 -0.00000000000E+00 -0.00000000000E+00 -0.77986451462E+02  0.77986451462E+02  0.00000000000E+00 0.  1.
         23    2    1    2    0    0 -0.22248709487E+02  0.20534616701E+02  0.90535316721E+02  0.13211338782E+03  0.91327039324E+02 0.  0.
        -24    2    1    2    0    0  0.79694321483E+02  0.13941012446E+03  0.25477562511E+03  0.31159228975E+03  0.79954788489E+02 0.  0.
         13    1    4    4    0    0  0.27785505711E+02  0.10609720483E+03  0.20436057404E+03  0.23193079878E+03  0.00000000000E+00 0. -1.
        -14    1    4    4    0    0  0.51908815772E+02  0.33312919635E+02  0.50415051068E+02  0.79661490970E+02  0.00000000000E+00 0.  1.
        -13    1    3    3    0    0  0.10401609216E+02  0.50398293054E+02  0.55392743442E+02  0.75607786921E+02  0.00000000000E+00 0. -1.
         13    1    3    3    0    0 -0.32650318703E+02 -0.29863676353E+02  0.35142573279E+02  0.56505600902E+02  0.00000000000E+00 0.  1.
         21    1    1    2  502  501 -0.57445611996E+02 -0.15994474116E+03  0.22202055465E+03  0.27959872183E+03  0.00000000000E+00 0.  1.
<scales pt_clust_5="13000.00000" pt_clust_6="13000.00000" pt_clust_7="13000.00000" pt_clust_8="13000.00000" pt_clust_9="164.60522"></scales>
<clustering>
<clus scale="   79.955">  5  6 -1 -1</clus>
<clus scale="   91.327">  7  8 -1 -1</clus>
<clus scale="   96.215">  2  7  1 -1</clus>
<clus scale="  164.605">  2  9  1 -1</clus>
<clus scale="  182.996">  1  5  2 -1</clus>
</clustering>
</event>
<event>
 9    1  0.2951046E-005  0.9278958E+02  0.7546771E-02  0.1300109E+00
         -2   -1    0    0    0  501 -0.00000000000E+00  0.00000000000E+00  0.97162237394E+02  0.97162237394E+02  0.00000000000E+00 0.  1.
          1   -1    0    0  502    0  0.00000000000E+00 -0.00000000000E+00 -0.36462961741E+03  0.36462961741E+03  0.00000000000E+00 0. -1.
        -24    2    1    2    0    0 -0.68337390158E+02 -0.17358136794E+02 -0.76751454319E+02  0.13223493746E+03  0.81387893070E+02 0.  0.
         23    2    1    2    0    0 -0.16500429172E+02  0.11449696893E+01 -0.21930032407E+03  0.23857675354E+03  0.92480592956E+02 0.  0.
         11    1    3    3    0    0 -0.59805793193E+02 -0.12556236896E+02 -0.66695882483E+01  0.61472558039E+02  0.00000000000E+00 0. -1.
        -12    1    3    3    0    0 -0.85315969650E+01 -0.48018998981E+01 -0.70081866070E+02  0.70762379421E+02  0.00000000000E+00 0.  1.
        -11    1    4    4    0    0 -0.22983599712E+02 -0.35020425996E+02 -0.17986214270E+03  0.18467557085E+03  0.00000000000E+00 0. -1.
         11    1    4    4    0    0  0.64831705399E+01  0.36165395685E+02 -0.39438181368E+02  0.53901182686E+02  0.00000000000E+00 0.  1.
         21    1    1    2  502  501  0.84837819330E+02  0.16213167105E+02  0.28584398370E+02  0.90980163807E+02  0.00000000000E+00 0.  1.
<scales pt_clust_5="13000.00000" pt_clust_6="13000.00000" pt_clust_7="13000.00000" pt_clust_8="13000.00000" pt_clust_9="86.37316"></scales>
<clustering>
<clus scale="   81.388">  5  6 -1 -1</clus>
<clus scale="   86.373">  1  9  2 -1</clus>
<clus scale="   86.373">  1  5  2 -1</clus>
<clus scale="   92.481">  7  8 -1 -1</clus>
<clus scale="   92.790">  2  5  1 -1</clus>
</clustering>
</event>
<event>
 9    1  0.2951046E-005  0.1578302E+03  0.7546771E-02  0.1212401E+00
          3   -1    0    0  502    0  0.00000000000E+00  0.00000000000E+00  0.30514393545E+03  0.30514393545E+03  0.00000000000E+00 0. -1.
         -4   -1    0    0    0  501 -0.00000000000E+00 -0.00000000000E+00 -0.41877888484E+03  0.41877888484E+03  0.00000000000E+00 0.  1.
        -24    2    1    2    0    0 -0.13810444871E+03 -0.17441325683E+02 -0.36394543268E+03  0.39781343918E+03  0.80138728638E+02 0.  0.
         23    2    1    2    0    0  0.40125627152E+02 -0.16999435365E+02  0.85508209293E+02  0.13131255102E+03  0.89623018480E+02 0.  0.
         11    1    3    3    0    0 -0.48515277557E+02  0.95230865551E+00 -0.45590462104E+02  0.66581748874E+02  0.00000000000E+00 0. -1.
        -12    1    3    3    0    0 -0.89589171152E+02 -0.18393634339E+02 -0.31835497058E+03  0.33123169031E+03  0.00000000000E+00 0.  1.
        -11    1    4    4    0    0 -0.26478625585E+02  0.31396444081E+01  0.96041941422E+01  0.28341057232E+02  0.00000000000E+00 0.  1.
         11    1    4    4    0    0  0.66604252737E+02 -0.20139079773E+02  0.75904015151E+02  0.10297149379E+03  0.00000000000E+00 0. -1.
         21    1    1    2  502  501  0.97978821556E+02  0.34440761049E+02  0.16480227400E+03  0.19479683008E+03  0.00000000000E+00 0. -1.
<scales pt_clust_5="13000.00000" pt_clust_6="13000.00000" pt_clust_7="13000.00000" pt_clust_8="13000.00000" pt_clust_9="135.97120"></scales>
<clustering>
<clus scale="   80.139">  5  6 -1 -1</clus>
<clus scale="   89.623">  7  8 -1 -1</clus>
<clus scale="   99.656">  1  7  2 -1</clus>
<clus scale="  135.971">  1  9  2 -1</clus>
<clus scale="   99.656">  1  5  2 -1</clus>
</clustering>
</event>
<event>
 9    1  0.2951046E-005  0.1450216E+03  0.7546771E-02  0.1210161E+00
         -2   -1    0    0    0  501 -0.00000000000E+00  0.00000000000E+00  0.14798845785E+04  0.14798845785E+04  0.00000000000E+00 0.  1.
          1   -1    0    0  502    0  0.00000000000E+00 -0.00000000000E+00 -0.25103918137E+02  0.25103918137E+02  0.00000000000E+00 0. -1.
        -24    2    1    2    0    0 -0.11831156530E+03  0.58274505344E+01  0.93217457026E+03  0.94306334943E+03  0.79921623727E+02 0.  0.
         23    2    1    2    0    0  0.92010303614E+02 -0.14886992858E+02  0.51630164224E+03  0.53340186314E+03  0.96242627224E+02 0.  0.
         13    1    3    3    0    0 -0.10905622834E+03  0.60685692880E+01  0.54809859467E+03  0.55887579832E+03  0.00000000000E+00 0. -1.
        -14    1    3    3    0    0 -0.92553369539E+01 -0.24111875364E+00  0.38407597559E+03  0.38418755111E+03  0.00000000000E+00 0.  1.
        -13    1    4    4    0    0 -0.25591390467E+00  0.30847143416E+02  0.12999438532E+03  0.13360446086E+03  0.00000000000E+00 0.  1.
         13    1    4    4    0    0  0.92266217519E+02 -0.45734136274E+02  0.38630725692E+03  0.39979740228E+03  0.00000000000E+00 0. -1.
         21    1    1    2  502  501  0.26301261682E+02  0.90595423238E+01  0.63044479119E+01  0.28523284114E+02  0.00000000000E+00 0. -1.
<scales pt_clust_5="13000.00000" pt_clust_6="13000.00000" pt_clust_7="13000.00000" pt_clust_8="13000.00000" pt_clust_9="27.81783"></scales>
<clustering>
<clus scale="   27.818">  2  9  1 -1</clus>
<clus scale="   79.922">  5  6 -1 -1</clus>
<clus scale="   96.243">  7  8 -1 -1</clus>
<clus scale="  134.744">  1  5  2 -1</clus>
<clus scale="   27.818">  2  5  1 -1</clus>
</clustering>
</event>
<event>
 9    1  0.2951046E-005  0.1156818E+03  0.7546771E-02  0.1254401E+00
         -2   -1    0    0    0  501 -0.00000000000E+00  0.00000000000E+00  0.55539605679E+02  0.55539605679E+02  0.00000000000E+00 0.  1.
          1   -1    0    0  502    0  0.00000000000E+00 -0.00000000000E+00 -0.75179801943E+03  0.75179801943E+03  0.00000000000E+00 0. -1.
         23    2    1    2    0    0  0.35397235767E+02  0.19607236462E+02 -0.44943432531E+02  0.11950765426E+03  0.10307647295E+03 0.  0.
        -24    2    1    2    0    0  0.69224781572E+02  0.18596803562E+02 -0.26322422834E+03  0.28407293047E+03  0.79199267389E+02 0.  0.
         13    1    4    4    0    0  0.12966541784E+00  0.27258471309E+02 -0.13913374383E+03  0.14177884096E+03  0.00000000000E+00 0. -1.
        -14    1    4    4    0    0  0.69095116155E+02 -0.86616677463E+01 -0.12409048451E+03  0.14229408951E+03  0.00000000000E+00 0.  1.
        -13    1    3    3    0    0  0.70791159811E+02  0.13667077996E+02 -0.17136933501E+02  0.74107029479E+02  0.00000000000E+00 0.  1.
         13    1    3    3    0    0 -0.35393924044E+02  0.59401584660E+01 -0.27806499030E+02  0.45400624777E+02  0.00000000000E+00 0. -1.
         21    1    1    2  502  501 -0.10462201734E+03 -0.38204040025E+02 -0.38809075288E+03  0.40375704038E+03  0.00000000000E+00 0. -1.
<scales pt_clust_5="13000.00000" pt_clust_6="13000.00000" pt_clust_7="13000.00000" pt_clust_8="13000.00000" pt_clust_9="52.51207"></scales>
<clustering>
<clus scale="   79.199">  5  6 -1 -1</clus>
<clus scale="  103.076">  7  8 -1 -1</clus>
<clus scale="  106.820">  2  5  1 -1</clus>
<clus scale="   52.512">  2  9  1 -1</clus>
<clus scale="  106.820">  2  5  1 -1</clus>
</clustering>
</event>
<event>
 9    1  0.2951046E-005  0.1126896E+03  0.7546771E-02  0.1259436E+00
         -2   -1    0    0    0  501 -0.00000000000E+00  0.00000000000E+00  0.10089648084E+03  0.10089648084E+03  0.00000000000E+00 0.  1.
          1   -1    0    0  502    0  0.00000000000E+00 -0.00000000000E+00 -0.52530432648E+03  0.52530432648E+03  0.00000000000E+00 0. -1.
         23    2    1    2    0    0 -0.27093280852E+02  0.57867778932E+02  0.50246213546E+02  0.12177814698E+03  0.90678053579E+02 0.  0.
        -24    2    1    2    0    0  0.65590159041E+02 -0.73862566138E+02 -0.32500665689E+03  0.34907727786E+03  0.80423076612E+02 0.  0.
         13    1    4    4    0    0  0.25547764204E+02 -0.71830040121E+02 -0.27279184892E+03  0.28324483359E+03  0.00000000000E+00 0. -1.
        -14    1    4    4    0    0  0.40042394836E+02 -0.20325260174E+01 -0.52214807976E+02  0.65832444267E+02  0.00000000000E+00 0.  1.
        -11    1    3    3    0    0  0.30776640930E+02  0.19292661730E+02  0.60095249466E+00  0.36328632887E+02  0.00000000000E+00 0. -1.
         11    1    3    3    0    0 -0.57869921782E+02  0.38575117202E+02  0.49645261051E+02  0.85449514095E+02  0.00000000000E+00 0.  1.
         21    1    1    2  502  501 -0.38496878188E+02  0.15994787207E+02 -0.14964740229E+03  0.15534538249E+03  0.00000000000E+00 0.  1.
<scales pt_clust_5="13000.00000" pt_clust_6="13000.00000" pt_clust_7="13000.00000" pt_clust_8="13000.00000" pt_clust_9="41.68744"></scales>
<clustering>
<clus scale="   41.687">  2  9  1 -1</clus>
<clus scale="   80.423">  5  6 -1 -1</clus>
<clus scale="   90.678">  7  8 -1 -1</clus>
<clus scale="  104.615">  2  5  1 -1</clus>
<clus scale="   41.687">  2  5  1 -1</clus>
</clustering>
</event>
<event>
 9    1  0.2951046E-005  0.1285590E+03  0.7546771E-02  0.1233896E+00
         -2   -1    0    0    0  501 -0.00000000000E+00  0.00000000000E+00  0.61660331702E+03  0.61660331702E+03  0.00000000000E+00 0.  1.
          1   -1    0    0  502    0  0.00000000000E+00 -0.00000000000E+00 -0.25445963086E+03  0.25445963086E+03  0.00000000000E+00 0. -1.
        -24    2    1    2    0    0  0.77951614957E+02 -0.69240742574E+01  0.48842224642E+03  0.50229448469E+03  0.87287235450E+02 0.  0.
         23    2    1    2    0    0 -0.72442588463E+02  0.81867073595E+02  0.65426776526E+02  0.16286135142E+03  0.10145447421E+03 0.  0.
         13    1    3    3    0    0  0.38303696562E+02  0.37059205933E+02  0.16192154915E+03  0.17046743382E+03  0.00000000000E+00 0. -1.
        -14    1    3    3    0    0  0.39647918395E+02 -0.43983280191E+02  0.32650069727E+03  0.33182705087E+03  0.00000000000E+00 0.  1.
        -11    1    4    4    0    0  0.25935559257E+02  0.18685773041E+02  0.10189555393E+02  0.33550534828E+02  0.00000000000E+00 0.  1.
         11    1    4    4    0    0 -0.98378147720E+02  0.63181300553E+02  0.55237221133E+02  0.12931081659E+03  0.00000000000E+00 0. -1.
         21    1    1    2  502  501 -0.55090264941E+01 -0.74942999337E+02 -0.19170533680E+03  0.20590711177E+03  0.00000000000E+00 0. -1.
<scales pt_clust_5="13000.00000" pt_clust_6="13000.00000" pt_clust_7="13000.00000" pt_clust_8="13000.00000" pt_clust_9="75.14521"></scales>
<clustering>
<clus scale="   75.145">  2  9  1 -1</clus>
<clus scale="   87.287">  5  6 -1 -1</clus>
<clus scale="  101.454">  7  8 -1 -1</clus>
<clus scale="  117.701">  1  5  2 -1</clus>
<clus scale="   75.145">  2  5  1 -1</clus>
</clustering>
</event>
<event>
 9    1  0.2951046E-005  0.9407420E+02  0.7546771E-02  0.1300648E+00
          3   -1    0    0  502    0  0.00000000000E+00  0.00000000000E+00  0.26137423037E+02  0.26137423037E+02  0.00000000000E+00 0. -1.
         -4   -1    0    0    0  501 -0.00000000000E+00 -0.00000000000E+00 -0.88110662136E+03  0.88110662136E+03  0.00000000000E+00 0.  1.
        -24    2    1    2    0    0  0.19893047176E+02 -0.27841588893E+02 -0.71654236461E+03  0.72183222188E+03  0.80236580530E+02 0.  0.
         23    2    1    2    0    0 -0.11507610752E+02  0.95783963928E+01 -0.78574037436E+02  0.12227532780E+03  0.92483542567E+02 0.  0.
         11    1    3    3    0    0 -0.27905917029E+02 -0.14191809098E+02 -0.15732385099E+03  0.16040867103E+03  0.00000000000E+00 0. -1.
        -12    1    3    3    0    0  0.47798964206E+02 -0.13649779795E+02 -0.55921851363E+03  0.56142355085E+03  0.00000000000E+00 0.  1.
        -11    1    4    4    0    0  0.30453543465E+02  0.81428110752E+01 -0.73511637348E+02  0.79985526862E+02  0.00000000000E+00 0.  1.
         11    1    4    4    0    0 -0.41961154216E+02  0.14355853176E+01 -0.50624000881E+01  0.42289800934E+02  0.00000000000E+00 0. -1.
         21    1    1    2  502  501 -0.83854364246E+01  0.18263192501E+02 -0.59852796273E+02  0.63136494724E+02  0.00000000000E+00 0.  1.
<scales pt_clust_5="13000.00000" pt_clust_6="13000.00000" pt_clust_7="13000.00000" pt_clust_8="13000.00000" pt_clust_9="20.09626"></scales>
<clustering>
<clus scale="   20.096">  2  9  1 -1</clus>
<clus scale="   80.237">  5  6 -1 -1</clus>
<clus scale="   82.065">  2  5  1 -1</clus>
<clus scale="   92.484">  7  8 -1 -1</clus>
<clus scale="   94.074">  1  5  2 -1</clus>
</clustering>
</event>
<event>
 9    1  0.2951046E-005  0.1671520E+03  0.7546771E-02  0.1183313E+00
         -2   -1    0    0    0  501 -0.00000000000E+00  0.00000000000E+00  0.45260058289E+03  0.45260058289E+03  0.00000000000E+00 0.  1.
          1   -1    0    0  502    0  0.00000000000E+00 -0.00000000000E+00 -0.95874677260E+02  0.95874677260E+02  0.00000000000E+00 0. -1.
        -24    2    1    2    0    0  0.78123544400E+02  0.10892097996E+03  0.30292109018E+03  0.34110120983E+03  0.81374322785E+02 0.  0.
         23    2    1    2    0    0 -0.10321823271E+03 -0.98977970042E+02  0.48789430166E+02  0.17991934367E+03  0.97672512066E+02 0.  0.
         13    1    3    3    0    0  0.37083200681E+02  0.30965070081E+01  0.39503998974E+02  0.54270784621E+02  0.00000000000E+00 0. -1.
        -14    1    3    3    0    0  0.41040343719E+02  0.10582447295E+03  0.26341709121E+03  0.28683042521E+03  0.00000000000E+00 0.  1.
        -13    1    4    4    0    0 -0.59208402591E+02 -0.96920382695E+02  0.67426709127E+02  0.13208162864E+03  0.00000000000E+00 0.  1.
         13    1    4    4    0    0 -0.44009830118E+02 -0.20575873469E+01 -0.18637278961E+02  0.47837715035E+02  0.00000000000E+00 0. -1.
         21    1    1    2  502  501  0.25094688309E+02 -0.99430099172E+01  0.50153852840E+01  0.27454706647E+02  0.00000000000E+00 0. -1.
<scales pt_clust_5="13000.00000" pt_clust_6="13000.00000" pt_clust_7="13000.00000" pt_clust_8="13000.00000" pt_clust_9="26.99272"></scales>
<clustering>
<clus scale="   26.993">  2  9  1 -1</clus>
<clus scale="   81.374">  5  6 -1 -1</clus>
<clus scale="   97.673">  7  8 -1 -1</clus>
<clus scale="  158.182">  1  5  2 -1</clus>
<clus scale="   26.993">  2  5  1 -1</clus>
</clustering>
</event>
<event>
 9    1  0.2951046E-005  0.1410195E+03  0.7546771E-02  0.1214962E+00
         -2   -1    0    0    0  501 -0.00000000000E+00  0.00000000000E+00  0.31727309797E+02  0.31727309797E+02  0.00000000000E+00 0.  1.
          1   -1    0    0  502    0  0.00000000000E+00 -0.00000000000E+00 -0.92528736701E+03  0.92528736701E+03  0.00000000000E+00 0. -1.
         23    2    1    2    0    0 -0.34824764322E+02 -0.10592519543E+03 -0.20100569609E+03  0.24786128477E+03  0.92730876141E+02 0.  0.
        -24    2    1    2    0    0  0.49297762117E+02  0.81471738482E+02 -0.54010730998E+03  0.55408069095E+03  0.78877070594E+02 0.  0.
         13    1    4    4    0    0  0.14136555816E+02  0.82507609105E+02 -0.44201672302E+03  0.44987346132E+03  0.00000000000E+00 0. -1.
        -14    1    4    4    0    0  0.35161206301E+02 -0.10358706226E+01 -0.98090586966E+02  0.10420722963E+03  0.00000000000E+00 0.  1.
        -11    1    3    3    0    0  0.27358379081E+02 -0.20649246822E+02 -0.81553447419E+02  0.88463761429E+02  0.00000000000E+00 0.  1.
         11    1    3    3    0    0 -0.62183143403E+02 -0.85275948605E+02 -0.11945224867E+03  0.15939752334E+03  0.00000000000E+00 0. -1.
         21    1    1    2  502  501 -0.14472997796E+02  0.24453456945E+02 -0.15244705114E+03  0.15507270109E+03  0.00000000000E+00 0. -1.
<scales pt_clust_5="13000.00000" pt_clust_6="13000.00000" pt_clust_7="13000.00000" pt_clust_8="13000.00000" pt_clust_9="28.41548"></scales>
<clustering>
<clus scale="   28.415">  2  9  1 -1</clus>
<clus scale="   78.877">  5  6 -1 -1</clus>
<clus scale="   92.731">  7  8 -1 -1</clus>
<clus scale="  132.322">  2  5  1 -1</clus>
<clus scale="   28.415">  2  5  1 -1</clus>
</clustering>
</event>
<event>
 9    1  0.2951046E-005  0.1036934E+03  0.7546771E-02  0.1276315E+00
         -2   -1    0    0    0  501 -0.00000000000E+00  0.00000000000E+00  0.73743635344E+02  0.73743635344E+02  0.00000000000E+00 0.  1.
          1   -1    0    0  502    0  0.00000000000E+00 -0.00000000000E+00 -0.21878997992E+03  0.21878997992E+03  0.00000000000E+00 0. -1.
         23    2    1    2    0    0  0.45549898762E+02 -0.22148910280E+02 -0.96458347128E+01  0.10511397518E+03  0.91599880710E+02 0.  0.
        -24    2    1    2    0    0 -0.23903491093E+02  0.45013076275E+02 -0.10589657244E+03  0.14427083506E+03  0.83680558514E+02 0.  0.
         11    1    4    4    0    0 -0.17990123930E+02 -0.22779945872E+02 -0.41011925763E+02  0.50244885787E+02  0.00000000000E+00 0. -1.
        -12    1    4    4    0    0 -0.59133671629E+01  0.67793022146E+02 -0.64884646673E+02  0.94025949274E+02  0.00000000000E+00 0.  1.
        -13    1    3    3    0    0  0.65281862713E+02 -0.37706300634E+02  0.58120955147E+01  0.75612612446E+02  0.00000000000E+00 0.  1.
         13    1    3    3    0    0 -0.19731963950E+02  0.15557390354E+02 -0.15457930227E+02  0.29501362729E+02  0.00000000000E+00 0. -1.
         21    1    1    2  502  501 -0.21646407669E+02 -0.22864165995E+02 -0.29503937427E+02  0.43148805028E+02  0.00000000000E+00 0. -1.
<scales pt_clust_5="13000.00000" pt_clust_6="13000.00000" pt_clust_7="13000.00000" pt_clust_8="13000.00000" pt_clust_9="31.48551"></scales>
<clustering>
<clus scale="   31.486">  2  9  1 -1</clus>
<clus scale="   83.681">  5  6 -1 -1</clus>
<clus scale="   91.600">  7  8 -1 -1</clus>
<clus scale="   96.769">  2  5  1 -1</clus>
<clus scale="   31.486">  2  5  1 -1</clus>
</clustering>
</event>
<event>
 9    1  0.2951046E-005  0.1123798E+03  0.7546771E-02  0.1261080E+00
         -2   -1    0    0    0  501 -0.00000000000E+00  0.00000000000E+00  0.17771449073E+03  0.17771449073E+03  0.00000000000E+00 0.  1.
          1   -1    0    0  502    0  0.00000000000E+00 -0.00000000000E+00 -0.15794274860E+03  0.15794274860E+03  0.00000000000E+00 0. -1.
        -24    2    1    2    0    0 -0.65498370934E+02  0.25654371777E+02  0.12876560598E+03  0.16601742101E+03  0.77672513856E+02 0.  0.
         23    2    1    2    0    0  0.41740496999E+02 -0.18047011458E+02 -0.69772726342E+02  0.12315749767E+03  0.90728012102E+02 0.  0.
         11    1    3    3    0    0  0.26116100192E+00  0.37900262465E+02  0.46631532480E+02  0.60091579455E+02  0.00000000000E+00 0. -1.
        -12    1    3    3    0    0 -0.65759531936E+02 -0.12245890688E+02  0.82134073497E+02  0.10592584155E+03  0.00000000000E+00 0.  1.
        -13    1    4    4    0    0 -0.17875117245E+01 -0.40142081307E+02 -0.27953432005E+01  0.40278975079E+02  0.00000000000E+00 0.  1.
         13    1    4    4    0    0  0.43528008723E+02  0.22095069849E+02 -0.66977383141E+02  0.82878522595E+02  0.00000000000E+00 0. -1.
         21    1    1    2  502  501  0.23757873935E+02 -0.76073603192E+01 -0.39221137509E+02  0.46482320644E+02  0.00000000000E+00 0. -1.
<scales pt_clust_5="13000.00000" pt_clust_6="13000.00000" pt_clust_7="13000.00000" pt_clust_8="13000.00000" pt_clust_9="24.94611"></scales>
<clustering>
<clus scale="   24.946">  2  9  1 -1</clus>
<clus scale="   77.673">  5  6 -1 -1</clus>
<clus scale="   90.728">  7  8 -1 -1</clus>
<clus scale="  102.131">  1  5  2 -1</clus>
<clus scale="   24.946">  2  5  1 -1</clus>
</clustering>
</event>
<event>
 9    1  0.2951046E-005  0.1270613E+03  0.7546771E-02  0.1235208E+00
         -2   -1    0    0    0  501 -0.00000000000E+00  0.00000000000E+00  0.49307702991E+02  0.49307702991E+02  0.00000000000E+00 0.  1.
          1   -1    0    0  502    0  0.00000000000E+00 -0.00000000000E+00 -0.36716910331E+03  0.36716910331E+03  0.00000000000E+00 0. -1.
         23    2    1    2    0    0  0.80965675259E+02 -0.56649504139E+02 -0.16220816852E+03  0.21109624294E+03  0.92116920052E+02 0.  0.
        -24    2    1    2    0    0 -0.60451490041E+02  0.49769140579E+02 -0.13525783087E+03  0.17564601145E+03  0.80159157471E+02 0.  0.
         11    1    4    4    0    0 -0.14050904885E+02  0.42218057115E+02 -0.11706805575E+03  0.12523865998E+03  0.00000000000E+00 0. -1.
        -12    1    4    4    0    0 -0.46400585156E+02  0.75510834632E+01 -0.18189775114E+02  0.50407351477E+02  0.00000000000E+00 0.  1.
        -13    1    3    3    0    0  0.58394333413E+02 -0.64584358486E+02 -0.59060600566E+02  0.10521022800E+03  0.00000000000E+00 0.  1.
         13    1    3    3    0    0  0.22571341846E+02  0.79348543469E+01 -0.10314756795E+03  0.10588601494E+03  0.00000000000E+00 0. -1.
         21    1    1    2  502  501 -0.20514185218E+02  0.68803635605E+01 -0.20395400930E+02  0.29734551905E+02  0.00000000000E+00 0. -1.
<scales pt_clust_5="13000.00000" pt_clust_6="13000.00000" pt_clust_7="13000.00000" pt_clust_8="13000.00000" pt_clust_9="21.63726"></scales>
<clustering>
<clus scale="   21.637">  1  9  2 -1</clus>
<clus scale="   80.159">  5  6 -1 -1</clus>
<clus scale="   92.117">  7  8 -1 -1</clus>
<clus scale="  118.678">  2  5  1 -1</clus>
<clus scale="  118.678">  2  5  1 -1</clus>
</clustering>
</event>
<event>
 9    1  0.2951046E-005  0.9993721E+02  0.7546771E-02  0.1286609E+00
          1   -1    0    0  502    0  0.00000000000E+00  0.00000000000E+00  0.22831294503E+03  0.22831294503E+03  0.00000000000E+00 0. -1.
         -2   -1    0    0    0  501 -0.00000000000E+00 -0.00000000000E+00 -0.74294272422E+02  0.74294272422E+02  0.00000000000E+00 0.  1.
        -24    2    1    2    0    0  0.12792324866E+01 -0.38241020917E+02 -0.14793251917E+02  0.89563004592E+02  0.79615823632E+02 0.  0.
         23    2    1    2    0    0  0.23475757795E+02  0.44141354159E+02  0.13482353005E+03  0.17058441499E+03  0.91771934877E+02 0.  0.
         11    1    3    3    0    0 -0.23466857680E+02 -0.45029455748E+01  0.23010978212E+02  0.33173408726E+02  0.00000000000E+00 0. -1.
        -12    1    3    3    0    0  0.24746090166E+02 -0.33738075342E+02 -0.37804230128E+02  0.56389595866E+02  0.00000000000E+00 0.  1.
        -13    1    4    4    0    0 -0.26242624891E+02  0.29659844389E+02  0.10163300075E+03  0.10907634286E+03  0.00000000000E+00 0. -1.
         13    1    4    4    0    0  0.49718382685E+02  0.14481509770E+02  0.33190529307E+02  0.61508072135E+02  0.00000000000E+00 0.  1.
         21    1    1    2  502  501 -0.24754990281E+02 -0.59003332417E+01  0.33988394470E+02  0.42459797866E+02  0.00000000000E+00 0. -1.
<scales pt_clust_5="13000.00000" pt_clust_6="13000.00000" pt_clust_7="13000.00000" pt_clust_8="13000.00000" pt_clust_9="25.44845"></scales>
<clustering>
<clus scale="   25.448">  1  9  2 -1</clus>
<clus scale="   79.616">  5  6 -1 -1</clus>
<clus scale="   88.905">  2  5  1 -1</clus>
<clus scale="   91.772">  7  8 -1 -1</clus>
<clus scale="   25.448">  1  5  2 -1</clus>
</clustering>
</event>
<event>
 9    1  0.2951046E-005  0.1157680E+03  0.7546771E-02  0.1253815E+00
         -4   -1    0    0    0  501 -0.00000000000E+00  0.00000000000E+00  0.29485955746E+02  0.29485955746E+02  0.00000000000E+00 0.  1.
          3   -1    0    0  502    0  0.00000000000E+00 -0.00000000000E+00 -0.98332548072E+03  0.98332548072E+03  0.00000000000E+00 0. -1.
         23    2    1    2    0    0 -0.49337986569E+02  0.45678621293E+02 -0.12873417654E+03  0.17125391364E+03  0.90744924732E+02 0.  0.
        -24    2    1    2    0    0  0.41776273231E+02 -0.82857508793E+02 -0.53045122244E+03  0.54447082985E+03  0.80370152380E+02 0.  0.
         13    1    4    4    0    0  0.15583657077E+02 -0.80475924366E+02 -0.48565768900E+03  0.49252676643E+03  0.00000000000E+00 0. -1.
        -14    1    4    4    0    0  0.26192616154E+02 -0.23815844265E+01 -0.44793533449E+02  0.51944063417E+02  0.00000000000E+00 0.  1.
        -11    1    3    3    0    0 -0.35903531977E+02  0.70300582019E+01 -0.43476295090E+00  0.36587898895E+02  0.00000000000E+00 0. -1.
         11    1    3    3    0    0 -0.13434454592E+02  0.38648563091E+02 -0.12829941359E+03  0.13466601474E+03  0.00000000000E+00 0.  1.
         21    1    1    2  502  501  0.75617133385E+01  0.37178887500E+02 -0.29465412599E+03  0.29708669298E+03  0.00000000000E+00 0. -1.
<scales pt_clust_5="13000.00000" pt_clust_6="13000.00000" pt_clust_7="13000.00000" pt_clust_8="13000.00000" pt_clust_9="37.94007"></scales>
<clustering>
<clus scale="   37.940">  2  9  1 -1</clus>
<clus scale="   80.370">  5  6 -1 -1</clus>
<clus scale="   90.745">  7  8 -1 -1</clus>
<clus scale="  107.828">  2  5  1 -1</clus>
<clus scale="   37.940">  2  5  1 -1</clus>
</clustering>
</event>
<event>
 9    1  0.3865581E-005  0.9471367E+02  0.7546771E-02  0.1296929E+00
         -2   -1    0    0    0  501 -0.00000000000E+00  0.00000000000E+00  0.20431832012E+03  0.20431832012E+03  0.00000000000E+00 0.  1.
          1   -1    0    0  502    0  0.00000000000E+00 -0.00000000000E+00 -0.31514013730E+03  0.31514013730E+03  0.00000000000E+00 0. -1.
        -24    2    1    2    0    0  0.19777885823E+02  0.16722282719E+02  0.18251563739E+03  0.20192282709E+03  0.82401885296E+02 0.  0.
         23    2    1    2    0    0  0.73052401703E+01 -0.13343857853E+02 -0.24662456387E+03  0.26343384085E+03  0.91336126042E+02 0.  0.
         11    1    3    3    0    0 -0.21177647242E+02 -0.19657566465E+02  0.88666165774E+02  0.93255571496E+02  0.00000000000E+00 0. -1.
        -12    1    3    3    0    0  0.40955533065E+02  0.36379849184E+02  0.93849471619E+02  0.10866725559E+03  0.00000000000E+00 0.  1.
        -11    1    4    4    0    0 -0.22742569912E+02  0.31188461403E+02 -0.93260979322E+02  0.10093341803E+03  0.00000000000E+00 0. -1.
         11    1    4    4    0    0  0.30047810082E+02 -0.44532319256E+02 -0.15336358455E+03  0.16250042282E+03  0.00000000000E+00 0.  1.
         21    1    1    2  502  501 -0.27083125993E+02 -0.33784248659E+01 -0.46712890698E+02  0.54101789485E+02  0.00000000000E+00 0.  1.
<scales pt_clust_5="13000.00000" pt_clust_6="13000.00000" pt_clust_7="13000.00000" pt_clust_8="13000.00000" pt_clust_9="27.29303"></scales>
<clustering>
<clus scale="   27.293">  2  9  1 -1</clus>
<clus scale="   82.402">  5  6 -1 -1</clus>
<clus scale="   86.130">  1  5  2 -1</clus>
<clus scale="   91.336">  7  8 -1 -1</clus>
<clus scale="   27.293">  2  5  1 -1</clus>
</clustering>
</event>
<event>
 9    1  0.2951046E-005  0.9529508E+02  0.7546771E-02  0.1298960E+00
         -2   -1    0    0    0  501 -0.00000000000E+00  0.00000000000E+00  0.90397521693E+02  0.90397521693E+02  0.00000000000E+00 0.  1.
          1   -1    0    0  502    0  0.00000000000E+00 -0.00000000000E+00 -0.51986732685E+03  0.51986732685E+03  0.00000000000E+00 0. -1.
        -24    2    1    2    0    0  0.55976563124E+02 -0.76680833083E+02 -0.11888730798E+03  0.16890099504E+03  0.73348676507E+02 0.  0.
         23    2    1    2    0    0  0.26417428640E+01  0.20133950725E+02 -0.34195233260E+03  0.35408428960E+03  0.89621044367E+02 0.  0.
         13    1    3    3    0    0  0.17562951834E+02 -0.79213189268E+02 -0.74585865422E+02  0.11020997211E+03  0.00000000000E+00 0. -1.
        -14    1    3    3    0    0  0.38413611290E+02  0.25323561851E+01 -0.44301442556E+02  0.58691022931E+02  0.00000000000E+00 0.  1.
        -11    1    4    4    0    0 -0.29080783094E+02  0.39781961753E+02 -0.13319567338E+03  0.14201895589E+03  0.00000000000E+00 0.  1.
         11    1    4    4    0    0  0.31722525958E+02 -0.19648011029E+02 -0.20875665922E+03  0.21206533371E+03  0.00000000000E+00 0. -1.
         21    1    1    2  502  501 -0.58618305988E+02  0.56546882358E+02  0.31369835419E+02  0.87279563906E+02  0.00000000000E+00 0.  1.
<scales pt_clust_5="13000.00000" pt_clust_6="13000.00000" pt_clust_7="13000.00000" pt_clust_8="13000.00000" pt_clust_9="81.44726"></scales>
<clustering>
<clus scale="   73.349">  5  6 -1 -1</clus>
<clus scale="   81.447">  1  9  2 -1</clus>
<clus scale="   81.447">  1  5  2 -1</clus>
<clus scale="   89.621">  7  8 -1 -1</clus>
<clus scale="   95.295">  2  5  1 -1</clus>
</clustering>
</event>
<event>
 9    1  0.2951046E-005  0.9245499E+02  0.7546771E-02  0.1302797E+00
         -2   -1    0    0    0  501 -0.00000000000E+00  0.00000000000E+00  0.34815386111E+03  0.34815386111E+03  0.00000000000E+00 0.  1.
          1   -1    0    0  502    0  0.00000000000E+00 -0.00000000000E+00 -0.13228997735E+03  0.13228997735E+03  0.00000000000E+00 0. -1.
        -24    2    1    2    0    0 -0.13134066876E+02  0.19600515827E+02  0.31530697426E+03  0.32615150182E+03  0.79997688652E+02 0.  0.
         23    2    1    2    0    0 -0.34728405921E+01 -0.23790016243E+01 -0.93542495030E+02  0.12965117282E+03  0.89674455491E+02 0.  0.
         13    1    3    3    0    0 -0.53610195480E+01 -0.30525896401E+02  0.15280549353E+03  0.15591693217E+03  0.00000000000E+00 0. -1.
        -14    1    3    3    0    0 -0.77730473278E+01  0.50126412228E+02  0.16250148072E+03  0.17023456965E+03  0.00000000000E+00 0.  1.
        -13    1    4    4    0    0  0.10274957308E+02  0.32640784539E+02 -0.84198324876E+02  0.90886486756E+02  0.00000000000E+00 0. -1.
         13    1    4    4    0    0 -0.13747797900E+02 -0.35019786163E+02 -0.93441701535E+01  0.38764686067E+02  0.00000000000E+00 0.  1.
         21    1    1    2  502  501  0.16606907468E+02 -0.17221514203E+02 -0.59005954741E+01  0.24641163813E+02  0.00000000000E+00 0. -1.
<scales pt_clust_5="13000.00000" pt_clust_6="13000.00000" pt_clust_7="13000.00000" pt_clust_8="13000.00000" pt_clust_9="23.92425"></scales>
<clustering>
<clus scale="   23.924">  2  9  1 -1</clus>
<clus scale="   79.998">  5  6 -1 -1</clus>
<clus scale="   83.103">  1  5  2 -1</clus>
<clus scale="   89.674">  7  8 -1 -1</clus>
<clus scale="   23.924">  2  5  1 -1</clus>
</clustering>
</event>
<event>
 9    1  0.2951046E-005  0.1111879E+03  0.7546771E-02  0.1260661E+00
         -2   -1    0    0    0  501 -0.00000000000E+00  0.00000000000E+00  0.10237609550E+03  0.10237609550E+03  0.00000000000E+00 0.  1.
          1   -1    0    0  502    0  0.00000000000E+00 -0.00000000000E+00 -0.71362277071E+03  0.71362277071E+03  0.00000000000E+00 0. -1.
        -24    2    1    2    0    0 -0.52177514147E+02 -0.46964979994E+02  0.56514699822E+02  0.11975962989E+03  0.78868595312E+02 0.  0.
         23    2    1    2    0    0  0.10114471827E+03  0.21900651251E+02 -0.55217759110E+03  0.56823291320E+03  0.85315057101E+02 0.  0.
         11    1    3    3    0    0 -0.30069637498E+02 -0.26435570923E+02 -0.14515419878E+02  0.42587790779E+02  0.00000000000E+00 0. -1.
        -12    1    3    3    0    0 -0.22107876649E+02 -0.20529409071E+02  0.71030119700E+02  0.77171839108E+02  0.00000000000E+00 0.  1.
        -13    1    4    4    0    0  0.26307187237E+01  0.34075449670E+02 -0.11778469155E+03  0.12264293912E+03  0.00000000000E+00 0.  1.
         13    1    4    4    0    0  0.98513999542E+02 -0.12174798419E+02 -0.43439289955E+03  0.44558997408E+03  0.00000000000E+00 0. -1.
         21    1    1    2  502  501 -0.48967204119E+02  0.25064328742E+02 -0.11558378393E+03  0.12800632313E+03  0.00000000000E+00 0.  1.
<scales pt_clust_5="13000.00000" pt_clust_6="13000.00000" pt_clust_7="13000.00000" pt_clust_8="13000.00000" pt_clust_9="55.00916"></scales>
<clustering>
<clus scale="   55.009">  2  9  1 -1</clus>
<clus scale="   78.869">  5  6 -1 -1</clus>
<clus scale="   85.315">  7  8 -1 -1</clus>
<clus scale="  106.322">  1  5  2 -1</clus>
<clus scale="   55.009">  2  5  1 -1</clus>
</clustering>
</event>
<event>
 9    1  0.2951046E-005  0.1468173E+03  0.7546771E-02  0.1206701E+00
          1   -1    0    0  502    0  0.00000000000E+00  0.00000000000E+00  0.15053930811E+03  0.15053930811E+03  0.00000000000E+00 0. -1.
         -2   -1    0    0    0  501 -0.00000000000E+00 -0.00000000000E+00 -0.23221421953E+03  0.23221421953E+03  0.00000000000E+00 0.  1.
         23    2    1    2    0    0 -0.26868911789E+02  0.88135049740E+02 -0.13428034356E+03  0.18662425554E+03  0.91146457293E+02 0.  0.
        -24    2    1    2    0    0  0.14285611460E+02 -0.12146793566E+03  0.63227458334E+02  0.15895067379E+03  0.79429636303E+02 0.  0.
         13    1    4    4    0    0 -0.12170621841E+02 -0.11277805634E+03  0.33631215365E+02  0.11831345094E+03  0.00000000000E+00 0. -1.
        -14    1    4    4    0    0  0.26456233302E+02 -0.86898793264E+01  0.29596242969E+02  0.40637222851E+02  0.00000000000E+00 0.  1.
        -13    1    3    3    0    0  0.24190247271E+01  0.96723779452E+02 -0.11597316748E+03  0.15103349551E+03  0.00000000000E+00 0.  1.
         13    1    3    3    0    0 -0.29287936516E+02 -0.85887297124E+01 -0.18307176084E+02  0.35590760031E+02  0.00000000000E+00 0. -1.
         21    1    1    2  502  501  0.12583300329E+02  0.33332885923E+02 -0.10622026185E+02  0.37178598298E+02  0.00000000000E+00 0.  1.
<scales pt_clust_5="13000.00000" pt_clust_6="13000.00000" pt_clust_7="13000.00000" pt_clust_8="13000.00000" pt_clust_9="35.62893"></scales>
<clustering>
<clus scale="   35.629">  2  9  1 -1</clus>
<clus scale="   79.430">  5  6 -1 -1</clus>
<clus scale="   91.146">  7  8 -1 -1</clus>
<clus scale="  139.845">  1  5  2 -1</clus>
<clus scale="  139.845">  1  5  2 -1</clus>
</clustering>
</event>
<event>
 9    1  0.2951046E-005  0.2049592E+03  0.7546771E-02  0.1182493E+00
         -2   -1    0    0    0  501 -0.00000000000E+00  0.00000000000E+00  0.96738119816E+02  0.96738119816E+02  0.00000000000E+00 0.  1.
          1   -1    0    0  502    0  0.00000000000E+00 -0.00000000000E+00 -0.98319739560E+03  0.98319739560E+03  0.00000000000E+00 0. -1.
         23    2    1    2    0    0  0.25143507086E+02  0.24988785559E+02  0.44984665546E+01  0.87504887062E+02  0.79876365128E+02 0.  0.
        -24    2    1    2    0    0 -0.11272587679E+03  0.14498054133E+03 -0.23353840918E+03  0.30776981950E+03  0.80346702301E+02 0.  0.
         11    1    4    4    0    0 -0.10365412189E+03  0.83340390542E+02 -0.12447240690E+03  0.18216250372E+03  0.00000000000E+00 0. -1.
        -12    1    4    4    0    0 -0.90717549071E+01  0.61640150786E+02 -0.10906600228E+03  0.12560731578E+03  0.00000000000E+00 0.  1.
        -11    1    3    3    0    0 -0.84663112120E+01  0.34881981232E+02  0.27823035048E+02  0.45415331326E+02  0.00000000000E+00 0.  1.
         11    1    3    3    0    0  0.33609818298E+02 -0.98931956730E+01 -0.23324568493E+02  0.42089555736E+02  0.00000000000E+00 0. -1.
         21    1    1    2  502  501  0.87582369709E+02 -0.16996932689E+03 -0.65741933316E+03  0.68466080885E+03  0.00000000000E+00 0. -1.
<scales pt_clust_5="13000.00000" pt_clust_6="13000.00000" pt_clust_7="13000.00000" pt_clust_8="13000.00000" pt_clust_9="188.55424"></scales>
<clustering>
<clus scale="   79.876">  7  8 -1 -1</clus>
<clus scale="   80.347">  5  6 -1 -1</clus>
<clus scale="   87.389">  1  7  2 -1</clus>
<clus scale="  188.554">  2  9  1 -1</clus>
<clus scale="  188.554">  2  5  1 -1</clus>
</clustering>
</event>
<event>
 9    1  0.2951046E-005  0.8853091E+02  0.7546771E-02  0.1311676E+00
          1   -1    0    0  502    0  0.00000000000E+00  0.00000000000E+00  0.35254233423E+03  0.35254233423E+03  0.00000000000E+00 0. -1.
         -2   -1    0    0    0  501 -0.00000000000E+00 -0.00000000000E+00 -0.73083439537E+02  0.73083439537E+02  0.00000000000E+00 0.  1.
        -24    2    1    2    0    0 -0.16640572383E+02 -0.13523349965E+02 -0.27210005105E+02  0.85901519032E+02  0.78605960020E+02 0.  0.
         23    2    1    2    0    0 -0.85867612142E+01  0.98331025261E+01  0.10684427784E+03  0.13827968214E+03  0.86805232635E+02 0.  0.
         13    1    3    3    0    0  0.24531755111E+02 -0.14843837624E+02 -0.33648125979E+02  0.44207950712E+02  0.00000000000E+00 0. -1.
        -14    1    3    3    0    0 -0.41172327493E+02  0.13204876595E+01  0.64381208741E+01  0.41693568320E+02  0.00000000000E+00 0.  1.
        -11    1    4    4    0    0 -0.42973167219E+02 -0.14832965095E+02  0.54870225320E+02  0.71256238892E+02  0.00000000000E+00 0.  1.
         11    1    4    4    0    0  0.34386406005E+02  0.24666067621E+02  0.51974052517E+02  0.67023443248E+02  0.00000000000E+00 0. -1.
         21    1    1    2  502  501  0.25227333597E+02  0.36902474389E+01  0.19982462197E+03  0.20144457260E+03  0.00000000000E+00 0. -1.
<scales pt_clust_5="13000.00000" pt_clust_6="13000.00000" pt_clust_7="13000.00000" pt_clust_8="13000.00000" pt_clust_9="25.49581"></scales>
<clustering>
<clus scale="   25.496">  1  9  2 -1</clus>
<clus scale="   78.606">  5  6 -1 -1</clus>
<clus scale="   80.508">  2  5  1 -1</clus>
<clus scale="   86.805">  7  8 -1 -1</clus>
<clus scale="   25.496">  1  5  2 -1</clus>
</clustering>
</event>
<event>
 9    1  0.2951046E-005  0.1638611E+03  0.7546771E-02  0.1186047E+00
         -2   -1    0    0    0  501 -0.00000000000E+00  0.00000000000E+00  0.38707034240E+02  0.38707034240E+02  0.00000000000E+00 0.  1.
          1   -1    0    0  502    0  0.00000000000E+00 -0.00000000000E+00 -0.10242732233E+04  0.10242732233E+04  0.00000000000E+00 0. -1.
         23    2    1    2    0    0 -0.48958012853E+02  0.12771327310E+03 -0.20931707565E+03  0.26612498065E+03  0.91111470282E+02 0.  0.
        -24    2    1    2    0    0  0.67814038589E+02 -0.11766614800E+03 -0.65234299425E+03  0.67112055299E+03  0.80045913646E+02 0.  0.
         11    1    4    4    0    0  0.28579156427E+02 -0.10979251595E+03 -0.54196987529E+03  0.55371699492E+03  0.00000000000E+00 0. -1.
        -12    1    4    4    0    0  0.39234882162E+02 -0.78736320448E+01 -0.11037311896E+03  0.11740355808E+03  0.00000000000E+00 0.  1.
        -11    1    3    3    0    0 -0.55315139622E+02  0.10221346765E+03 -0.98845861519E+02  0.15257084250E+03  0.00000000000E+00 0.  1.
         11    1    3    3    0    0  0.63571267697E+01  0.25499805442E+02 -0.11047121413E+03  0.11355413815E+03  0.00000000000E+00 0. -1.
         21    1    1    2  502  501 -0.18856025736E+02 -0.10047125100E+02 -0.12390611916E+03  0.12573472390E+03  0.00000000000E+00 0.  1.
<scales pt_clust_5="13000.00000" pt_clust_6="13000.00000" pt_clust_7="13000.00000" pt_clust_8="13000.00000" pt_clust_9="21.36573"></scales>
<clustering>
<clus scale="   21.366">  2  9  1 -1</clus>
<clus scale="   80.046">  5  6 -1 -1</clus>
<clus scale="   91.111">  7  8 -1 -1</clus>
<clus scale="  157.976">  2  5  1 -1</clus>
<clus scale="   21.366">  2  5  1 -1</clus>
</clustering>
</event>
<event>
 9    1  0.2951046E-005  0.1423551E+03  0.7546771E-02  0.1213075E+00
          1   -1    0    0  502    0  0.00000000000E+00  0.00000000000E+00  0.10088773304E+04  0.10088773304E+04  0.00000000000E+00 0. -1.
         -2   -1    0    0    0  501 -0.00000000000E+00 -0.00000000000E+00 -0.52226576669E+02  0.52226576669E+02  0.00000000000E+00 0.  1.
         23    2    1    2    0    0 -0.17090685047E+02  0.11047306163E+03  0.77352840904E+02  0.16426606149E+03  0.92214359500E+02 0.  0.
        -24    2    1    2    0    0  0.57367449097E+02 -0.81434665770E+02  0.63727268240E+03  0.64977174447E+03  0.78512541492E+02 0.  0.
         11    1    4    4    0    0  0.62547410149E+02 -0.91830428651E+02  0.50959953413E+03  0.52157136743E+03  0.00000000000E+00 0. -1.
        -12    1    4    4    0    0 -0.51799610516E+01  0.10395762881E+02  0.12767314828E+03  0.12820037704E+03  0.00000000000E+00 0.  1.
        -13    1    3    3    0    0  0.15666415792E+02  0.15733009169E+02  0.58090406397E+02  0.62188901555E+02  0.00000000000E+00 0. -1.
         13    1    3    3    0    0 -0.32757100840E+02  0.94740052465E+02  0.19262434508E+02  0.10207715993E+03  0.00000000000E+00 0.  1.
         21    1    1    2  502  501 -0.40276764050E+02 -0.29038395864E+02  0.24202523043E+03  0.24706610112E+03  0.00000000000E+00 0. -1.
<scales pt_clust_5="13000.00000" pt_clust_6="13000.00000" pt_clust_7="13000.00000" pt_clust_8="13000.00000" pt_clust_9="49.65326"></scales>
<clustering>
<clus scale="   49.653">  1  9  2 -1</clus>
<clus scale="   78.513">  5  6 -1 -1</clus>
<clus scale="   92.214">  7  8 -1 -1</clus>
<clus scale="  133.887">  1  5  2 -1</clus>
<clus scale="   49.653">  1  5  2 -1</clus>
</clustering>
</event>
<event>
 9    1  0.2951046E-005  0.9557681E+02  0.7546771E-02  0.1295304E+00
          1   -1    0    0  502    0  0.00000000000E+00  0.00000000000E+00  0.13170538896E+03  0.13170538896E+03  0.00000000000E+00 0. -1.
         -2   -1    0    0    0  501 -0.00000000000E+00 -0.00000000000E+00 -0.17449438672E+03  0.17449438672E+03  0.00000000000E+00 0.  1.
        -24    2    1    2    0    0 -0.26100266596E+02 -0.14943014473E+01 -0.11867247939E+03  0.14601527536E+03  0.80955830059E+02 0.  0.
         23    2    1    2    0    0  0.56823487403E+02  0.13035264222E+02  0.63343503247E+02  0.12505102374E+03  0.90700233193E+02 0.  0.
         13    1    3    3    0    0 -0.16262077957E+02 -0.40987332959E+02 -0.67576873111E+02  0.80691080189E+02  0.00000000000E+00 0. -1.
        -14    1    3    3    0    0 -0.98381886389E+01  0.39493031512E+02 -0.51095606282E+02  0.65324195173E+02  0.00000000000E+00 0.  1.
        -11    1    4    4    0    0 -0.16257765442E+02  0.23696780002E+02  0.15920413299E+01  0.28781711472E+02  0.00000000000E+00 0.  1.
         11    1    4    4    0    0  0.73081252844E+02 -0.10661515780E+02  0.61751461917E+02  0.96269312270E+02  0.00000000000E+00 0. -1.
         21    1    1    2  502  501 -0.30723220806E+02 -0.11540962775E+02  0.12539978385E+02  0.35133476577E+02  0.00000000000E+00 0.  1.
<scales pt_clust_5="13000.00000" pt_clust_6="13000.00000" pt_clust_7="13000.00000" pt_clust_8="13000.00000" pt_clust_9="32.81936"></scales>
<clustering>
<clus scale="   32.819">  1  9  2 -1</clus>
<clus scale="   80.956">  5  6 -1 -1</clus>
<clus scale="   86.384">  2  5  1 -1</clus>
<clus scale="   90.700">  7  8 -1 -1</clus>
<clus scale="   32.819">  1  5  2 -1</clus>
</clustering>
</event>
<event>
 9    1  0.2951046E-005  0.1508020E+03  0.7546771E-02  0.1201499E+00
          1   -1    0    0  502    0  0.00000000000E+00  0.00000000000E+00  0.75692967744E+03  0.75692967744E+03  0.00000000000E+00 0. -1.
         -2   -1    0    0    0  501 -0.00000000000E+00 -0.00000000000E+00 -0.48884428952E+02  0.48884428952E+02  0.00000000000E+00 0.  1.
         23    2    1    2    0    0  0.10973773149E+03 -0.17756713663E+02  0.13877234906E+03  0.20013769768E+03  0.91867636159E+02 0.  0.
        -24    2    1    2    0    0 -0.14381474974E+03 -0.52857803178E+01  0.43634908569E+03  0.46653281397E+03  0.80880901397E+02 0.  0.
         11    1    4    4    0    0 -0.13070329780E+03  0.98393174478E+01  0.42204563344E+03  0.44193062910E+03  0.00000000000E+00 0. -1.
        -12    1    4    4    0    0 -0.13111451937E+02 -0.15125097766E+02  0.14303452245E+02  0.24602184871E+02  0.00000000000E+00 0.  1.
        -11    1    3    3    0    0  0.98208049178E+02  0.23819647485E+02  0.96065719376E+02  0.13943033733E+03  0.00000000000E+00 0.  1.
         11    1    3    3    0    0  0.11529682314E+02 -0.41576361148E+02  0.42706629686E+02  0.60707360342E+02  0.00000000000E+00 0. -1.
         21    1    1    2  502  501  0.34077018246E+02  0.23042493981E+02  0.13292381374E+03  0.13914359475E+03  0.00000000000E+00 0. -1.
<scales pt_clust_5="13000.00000" pt_clust_6="13000.00000" pt_clust_7="13000.00000" pt_clust_8="13000.00000" pt_clust_9="41.13635"></scales>
<clustering>
<clus scale="   41.136">  1  9  2 -1</clus>
<clus scale="   80.881">  5  6 -1 -1</clus>
<clus scale="   91.868">  7  8 -1 -1</clus>
<clus scale="  144.372">  1  5  2 -1</clus>
<clus scale="   41.136">  1  5  2 -1</clus>
</clustering>
</event>
<event>
 9    1  0.2951046E-005  0.1350019E+03  0.7546771E-02  0.1222846E+00
         -2   -1    0    0    0  501 -0.00000000000E+00  0.00000000000E+00  0.85162696809E+02  0.85162696809E+02  0.00000000000E+00 0.  1.
          1   -1    0    0  502    0  0.00000000000E+00 -0.00000000000E+00 -0.43996326455E+03  0.43996326455E+03  0.00000000000E+00 0. -1.
         23    2    1    2    0    0 -0.44370481439E+02 -0.97341584729E+02 -0.14562560455E+01  0.13940047683E+03  0.89365812920E+02 0.  0.
        -24    2    1    2    0    0  0.22025048903E+02  0.71320204192E+02 -0.32065032311E+03  0.33834059780E+03  0.78013179045E+02 0.  0.
         13    1    4    4    0    0  0.40512626597E+02  0.78008589974E+02 -0.24986309599E+03  0.26487389407E+03  0.00000000000E+00 0. -1.
        -14    1    4    4    0    0 -0.18487577694E+02 -0.66883857817E+01 -0.70787227127E+02  0.73466703735E+02  0.00000000000E+00 0.  1.
        -13    1    3    3    0    0 -0.28233256409E+02 -0.54016596126E+01  0.29370630267E+02  0.41096576698E+02  0.00000000000E+00 0. -1.
         13    1    3    3    0    0 -0.16137225030E+02 -0.91939925116E+02 -0.30826886312E+02  0.98303900135E+02  0.00000000000E+00 0.  1.
         21    1    1    2  502  501  0.22345432536E+02  0.26021380537E+02 -0.32693988582E+02  0.47384886722E+02  0.00000000000E+00 0. -1.
<scales pt_clust_5="13000.00000" pt_clust_6="13000.00000" pt_clust_7="13000.00000" pt_clust_8="13000.00000" pt_clust_9="34.29913"></scales>
<clustering>
<clus scale="   34.299">  2  9  1 -1</clus>
<clus scale="   78.013">  5  6 -1 -1</clus>
<clus scale="   89.366">  7  8 -1 -1</clus>
<clus scale="  127.771">  2  5  1 -1</clus>
<clus scale="   34.299">  2  5  1 -1</clus>
</clustering>
</event>
<event>
 9    1  0.2951046E-005  0.1837035E+03  0.7546771E-02  0.1188990E+00
         -2   -1    0    0    0  501 -0.00000000000E+00  0.00000000000E+00  0.80132426301E+02  0.80132426301E+02  0.00000000000E+00 0.  1.
          1   -1    0    0  502    0  0.00000000000E+00 -0.00000000000E+00 -0.19874261918E+04  0.19874261918E+04  0.00000000000E+00 0. -1.
         23    2    1    2    0    0 -0.54652811458E+02 -0.13333921856E+02  0.17926959880E+02  0.10654861579E+03  0.88693338894E+02 0.  0.
        -24    2    1    2    0    0  0.10029981293E+03 -0.13940384936E+03 -0.13798510814E+04  0.13928194321E+04  0.80395758020E+02 0.  0.
         11    1    4    4    0    0  0.38341170077E+02 -0.90759501960E+02 -0.51149553408E+03  0.52089827597E+03  0.00000000000E+00 0. -1.
        -12    1    4    4    0    0  0.61958642853E+02 -0.48644347404E+02 -0.86835554727E+03  0.87192115609E+03  0.00000000000E+00 0.  1.
        -13    1    3    3    0    0  0.17535557097E+02 -0.25581145937E+02 -0.60358133715E+00  0.31020236952E+02  0.00000000000E+00 0.  1.
         13    1    3    3    0    0 -0.72188368555E+02  0.12247224080E+02  0.18530541218E+02  0.75528378839E+02  0.00000000000E+00 0. -1.
         21    1    1    2  502  501 -0.45647001472E+02  0.15273777122E+03 -0.54536964401E+03  0.56819057024E+03  0.00000000000E+00 0. -1.
<scales pt_clust_5="13000.00000" pt_clust_6="13000.00000" pt_clust_7="13000.00000" pt_clust_8="13000.00000" pt_clust_9="165.17718"></scales>
<clustering>
<clus scale="   80.396">  5  6 -1 -1</clus>
<clus scale="   88.693">  7  8 -1 -1</clus>
<clus scale="  105.030">  1  7  2 -1</clus>
<clus scale="  165.177">  1  9  2 -1</clus>
<clus scale="  183.704">  2  5  1 -1</clus>
</clustering>
</event>
<event>
 9    1  0.2951046E-005  0.4462779E+03  0.7546771E-02  0.1028838E+00
          1   -1    0    0  502    0  0.00000000000E+00  0.00000000000E+00  0.14814294763E+04  0.14814294763E+04  0.00000000000E+00 0. -1.
         -2   -1    0    0    0  501 -0.00000000000E+00 -0.00000000000E+00 -0.16536287559E+03  0.16536287559E+03  0.00000000000E+00 0.  1.
        -24    2    1    2    0    0  0.45932299132E+02  0.78418092403E+02  0.11261692369E+03  0.16619864964E+03  0.81732773839E+02 0.  0.
         23    2    1    2    0    0  0.53115404427E+02  0.29843497170E+03  0.13690279335E+03  0.34509780418E+03  0.92007831748E+02 0.  0.
         13    1    3    3    0    0 -0.21924355406E+01  0.53496727553E+02  0.95289394705E+02  0.10930130546E+03  0.00000000000E+00 0. -1.
        -14    1    3    3    0    0  0.48124734672E+02  0.24921364850E+02  0.17327528987E+02  0.56897344174E+02  0.00000000000E+00 0.  1.
        -13    1    4    4    0    0  0.48190851414E+02  0.26239639458E+03  0.15045019366E+03  0.30628334401E+03  0.00000000000E+00 0.  1.
         13    1    4    4    0    0  0.49245530126E+01  0.36038577118E+02 -0.13547400305E+02  0.38814460167E+02  0.00000000000E+00 0. -1.
         21    1    1    2  502  501 -0.99047703558E+02 -0.37685306410E+03  0.10665468837E+04  0.11354958981E+04  0.00000000000E+00 0. -1.
<scales pt_clust_5="13000.00000" pt_clust_6="13000.00000" pt_clust_7="13000.00000" pt_clust_8="13000.00000" pt_clust_9="389.65200"></scales>
<clustering>
<clus scale="   81.733">  5  6 -1 -1</clus>
<clus scale="   92.008">  7  8 -1 -1</clus>
<clus scale="  102.264">  5  7 -1 -1</clus>
<clus scale="  389.652">  1  9  2 -1</clus>
<clus scale="  389.652">  1  5  2 -1</clus>
</clustering>
</event>
<event>
 9    1  0.2951046E-005  0.1108030E+03  0.7546771E-02  0.1263467E+00
          1   -1    0    0  502    0  0.00000000000E+00  0.00000000000E+00  0.10857342155E+03  0.10857342155E+03  0.00000000000E+00 0. -1.
         -2   -1    0    0    0  501 -0.00000000000E+00 -0.00000000000E+00 -0.25322326773E+03  0.25322326773E+03  0.00000000000E+00 0.  1.
        -24    2    1    2    0    0 -0.52090626109E+02 -0.15403925195E+02 -0.13376697717E+03  0.16500162017E+03  0.79882515225E+02 0.  0.
         23    2    1    2    0    0  0.77764557627E+02  0.34050260578E+02 -0.60021856014E+02  0.13830167951E+03  0.91202986175E+02 0.  0.
         11    1    3    3    0    0 -0.62934547903E+02 -0.31296830227E+02 -0.73326683612E+02  0.10157288729E+03  0.00000000000E+00 0. -1.
        -12    1    3    3    0    0  0.10843921794E+02  0.15892905033E+02 -0.60440293560E+02  0.63428732889E+02  0.00000000000E+00 0.  1.
        -13    1    4    4    0    0  0.46068721914E+02 -0.12100258159E+02  0.99792345638E+01  0.48665475532E+02  0.00000000000E+00 0.  1.
         13    1    4    4    0    0  0.31695835713E+02  0.46150518737E+02 -0.70001090578E+02  0.89636203976E+02  0.00000000000E+00 0. -1.
         21    1    1    2  502  501 -0.25673931518E+02 -0.18646335383E+02  0.49138987010E+02  0.58493389603E+02  0.00000000000E+00 0. -1.
<scales pt_clust_5="13000.00000" pt_clust_6="13000.00000" pt_clust_7="13000.00000" pt_clust_8="13000.00000" pt_clust_9="31.73069"></scales>
<clustering>
<clus scale="   31.731">  1  9  2 -1</clus>
<clus scale="   79.883">  5  6 -1 -1</clus>
<clus scale="   91.203">  7  8 -1 -1</clus>
<clus scale="  101.688">  2  5  1 -1</clus>
<clus scale="   31.731">  1  5  2 -1</clus>
</clustering>
</event>
<event>
 9    1  0.2951046E-005  0.9303281E+02  0.7546771E-02  0.1301087E+00
         -2   -1    0    0    0  501 -0.00000000000E+00  0.00000000000E+00  0.37353897530E+03  0.37353897530E+03  0.00000000000E+00 0.  1.
          1   -1    0    0  502    0  0.00000000000E+00 -0.00000000000E+00 -0.93150070661E+02  0.93150070661E+02  0.00000000000E+00 0. -1.
        -24    2    1    2    0    0  0.13361523646E+02 -0.24297054622E+02  0.31742599000E+03  0.32865977107E+03  0.80555004898E+02 0.  0.
         23    2    1    2    0    0 -0.27314205047E+01 -0.39960924070E+01  0.40815079832E+00  0.89908105195E+02  0.89776786422E+02 0.  0.
         11    1    3    3    0    0  0.26814256541E+02 -0.46101382496E+02  0.14817681337E+03  0.15748241122E+03  0.00000000000E+00 0. -1.
        -12    1    3    3    0    0 -0.13452732895E+02  0.21804327874E+02  0.16924917662E+03  0.17117735985E+03  0.00000000000E+00 0.  1.
        -13    1    4    4    0    0  0.36568194810E+02  0.18662923819E+02 -0.12190890878E+02  0.42827040728E+02  0.00000000000E+00 0.  1.
         13    1    4    4    0    0 -0.39299615315E+02 -0.22659016226E+02  0.12599041676E+02  0.47081064467E+02  0.00000000000E+00 0. -1.
         21    1    1    2  502  501 -0.10630103141E+02  0.28293147029E+02 -0.37445236161E+02  0.48121169694E+02  0.00000000000E+00 0. -1.
<scales pt_clust_5="13000.00000" pt_clust_6="13000.00000" pt_clust_7="13000.00000" pt_clust_8="13000.00000" pt_clust_9="30.22418"></scales>
<clustering>
<clus scale="   30.224">  2  9  1 -1</clus>
<clus scale="   80.555">  5  6 -1 -1</clus>
<clus scale="   84.169">  1  5  2 -1</clus>
<clus scale="   89.777">  7  8 -1 -1</clus>
<clus scale="   30.224">  2  5  1 -1</clus>
</clustering>
</event>
<event>
 9    1  0.2951046E-005  0.1057597E+03  0.7546771E-02  0.1270959E+00
          1   -1    0    0  502    0  0.00000000000E+00  0.00000000000E+00  0.23314084631E+03  0.23314084631E+03  0.00000000000E+00 0. -1.
         -2   -1    0    0    0  501 -0.00000000000E+00 -0.00000000000E+00 -0.20330706294E+03  0.20330706294E+03  0.00000000000E+00 0.  1.
        -24    2    1    2    0    0 -0.55714890218E+02 -0.83532995397E+02 -0.13206166801E+03  0.18477512444E+03  0.81361244717E+02 0.  0.
         23    2    1    2    0    0  0.41047339023E+02  0.38919954918E+02  0.17448917011E+03  0.20305116215E+03  0.87084195080E+02 0.  0.
         11    1    3    3    0    0 -0.42720544162E+02 -0.32420538983E+01 -0.22706662965E+02  0.48488641453E+02  0.00000000000E+00 0. -1.
        -12    1    3    3    0    0 -0.12994346056E+02 -0.80290941499E+02 -0.10935500505E+03  0.13628648299E+03  0.00000000000E+00 0.  1.
        -11    1    4    4    0    0  0.66971388252E+02  0.22446433098E+02  0.14039552094E+03  0.15716205491E+03  0.00000000000E+00 0. -1.
         11    1    4    4    0    0 -0.25924049228E+02  0.16473521820E+02  0.34093649164E+02  0.45889107236E+02  0.00000000000E+00 0.  1.
         21    1    1    2  502  501  0.14667551194E+02  0.44613040479E+02 -0.12593718730E+02  0.48621622662E+02  0.00000000000E+00 0.  1.
<scales pt_clust_5="13000.00000" pt_clust_6="13000.00000" pt_clust_7="13000.00000" pt_clust_8="13000.00000" pt_clust_9="46.96233"></scales>
<clustering>
<clus scale="   46.962">  2  9  1 -1</clus>
<clus scale="   81.361">  5  6 -1 -1</clus>
<clus scale="   87.084">  7  8 -1 -1</clus>
<clus scale="  101.100">  2  5  1 -1</clus>
<clus scale="  105.760">  1  5  2 -1</clus>
</clustering>
</event>
<event>
 9    1  0.2951046E-005  0.1236323E+03  0.7546771E-02  0.1240776E+00
          1   -1    0    0  502    0  0.00000000000E+00  0.00000000000E+00  0.45065293137E+03  0.45065293137E+03  0.00000000000E+00 0. -1.
         -2   -1    0    0    0  501 -0.00000000000E+00 -0.00000000000E+00 -0.14073099666E+03  0.14073099666E+03  0.00000000000E+00 0.  1.
        -24    2    1    2    0    0  0.86273509210E+02  0.43542532852E+00 -0.93022940742E+02  0.14983728951E+03  0.79715982317E+02 0.  0.
         23    2    1    2    0    0 -0.38244573699E+02 -0.84549967717E+01  0.36886982108E+03  0.38211431144E+03  0.91718415359E+02 0.  0.
         11    1    3    3    0    0  0.41681148836E+02 -0.13403707932E+02  0.21418892489E+01  0.43835661785E+02  0.00000000000E+00 0. -1.
        -12    1    3    3    0    0  0.44592360374E+02  0.13839133260E+02 -0.95164829991E+02  0.10600162773E+03  0.00000000000E+00 0.  1.
        -13    1    4    4    0    0 -0.49008931747E+02 -0.41232322772E+02  0.26647747543E+03  0.27406609558E+03  0.00000000000E+00 0. -1.
         13    1    4    4    0    0  0.10764358048E+02  0.32777326000E+02  0.10239234565E+03  0.10804821586E+03  0.00000000000E+00 0.  1.
         21    1    1    2  502  501 -0.48028935511E+02  0.80195714431E+01  0.34075054372E+02  0.59432327086E+02  0.00000000000E+00 0. -1.
<scales pt_clust_5="13000.00000" pt_clust_6="13000.00000" pt_clust_7="13000.00000" pt_clust_8="13000.00000" pt_clust_9="48.69386"></scales>
<clustering>
<clus scale="   48.694">  1  9  2 -1</clus>
<clus scale="   79.716">  5  6 -1 -1</clus>
<clus scale="   91.718">  7  8 -1 -1</clus>
<clus scale="  115.010">  2  5  1 -1</clus>
<clus scale="   48.694">  1  5  2 -1</clus>
</clustering>
</event>
<event>
 9    1  0.2951046E-005  0.1896461E+03  0.7546771E-02  0.1160081E+00
         -2   -1    0    0    0  501 -0.00000000000E+00  0.00000000000E+00  0.57888250402E+02  0.57888250402E+02  0.00000000000E+00 0.  1.
          1   -1    0    0  502    0  0.00000000000E+00 -0.00000000000E+00 -0.10082654155E+04  0.10082654155E+04  0.00000000000E+00 0. -1.
         23    2    1    2    0    0  0.10930287009E+03  0.11457319608E+03 -0.17466478960E+03  0.25336593792E+03  0.92802883033E+02 0.  0.
        -24    2    1    2    0    0 -0.14646202734E+03 -0.11733068809E+03 -0.62446671914E+03  0.65701977462E+03  0.80614422485E+02 0.  0.
         11    1    4    4    0    0 -0.12265328463E+03 -0.12838514005E+03 -0.55749514474E+03  0.58508752237E+03  0.00000000000E+00 0. -1.
        -12    1    4    4    0    0 -0.23808742708E+02  0.11054451963E+02 -0.66971574397E+02  0.71932252257E+02  0.00000000000E+00 0.  1.
        -13    1    3    3    0    0 -0.11299316084E+02  0.38057616455E+02 -0.49524077889E+02  0.63471970231E+02  0.00000000000E+00 0. -1.
         13    1    3    3    0    0  0.12060218617E+03  0.76515579625E+02 -0.12514071171E+03  0.18989396768E+03  0.00000000000E+00 0.  1.
         21    1    1    2  502  501  0.37159157248E+02  0.27574920054E+01 -0.15124565640E+03  0.15576795341E+03  0.00000000000E+00 0. -1.
<scales pt_clust_5="13000.00000" pt_clust_6="13000.00000" pt_clust_7="13000.00000" pt_clust_8="13000.00000" pt_clust_9="37.26133"></scales>
<clustering>
<clus scale="   37.261">  2  9  1 -1</clus>
<clus scale="   80.614">  5  6 -1 -1</clus>
<clus scale="   92.803">  7  8 -1 -1</clus>
<clus scale="  183.989">  2  5  1 -1</clus>
<clus scale="   37.261">  2  5  1 -1</clus>
</clustering>
</event>
<event>
 9    1  0.2951046E-005  0.1110563E+03  0.7546771E-02  0.1260839E+00
         -2   -1    0    0    0  501 -0.00000000000E+00  0.00000000000E+00  0.65717586025E+02  0.65717586025E+02  0.00000000000E+00 0.  1.
          1   -1    0    0  502    0  0.00000000000E+00 -0.00000000000E+00 -0.23541059694E+03  0.23541059694E+03  0.00000000000E+00 0. -1.
         23    2    1    2    0    0 -0.15465900317E+02  0.74548014908E+02 -0.37319444547E+02  0.12038494425E+03  0.85458722563E+02 0.  0.
        -24    2    1    2    0    0 -0.28290239684E+01 -0.63763289696E+02 -0.10670913058E+03  0.14743141173E+03  0.79217561985E+02 0.  0.
         11    1    4    4    0    0 -0.20608808369E+02 -0.60154142196E+02 -0.11177426324E+03  0.12859521658E+03  0.00000000000E+00 0. -1.
        -12    1    4    4    0    0  0.17779784401E+02 -0.36091474997E+01  0.50651326537E+01  0.18836195152E+02  0.00000000000E+00 0.  1.
        -13    1    3    3    0    0 -0.21842443550E+02  0.32827896847E+02  0.23839668754E+02  0.46077032868E+02  0.00000000000E+00 0.  1.
         13    1    3    3    0    0  0.63765432329E+01  0.41720118061E+02 -0.61159113301E+02  0.74307911385E+02  0.00000000000E+00 0. -1.
         21    1    1    2  502  501  0.18294924285E+02 -0.10784725212E+02 -0.25664435788E+02  0.33311826981E+02  0.00000000000E+00 0. -1.
<scales pt_clust_5="13000.00000" pt_clust_6="13000.00000" pt_clust_7="13000.00000" pt_clust_8="13000.00000" pt_clust_9="21.23710"></scales>
<clustering>
<clus scale="   21.237">  2  9  1 -1</clus>
<clus scale="   79.218">  5  6 -1 -1</clus>
<clus scale="   85.459">  7  8 -1 -1</clus>
<clus scale="  106.328">  2  5  1 -1</clus>
<clus scale="   21.237">  2  5  1 -1</clus>
</clustering>
</event>
<event>
 9    1  0.2951046E-005  0.9388450E+02  0.7546771E-02  0.1298962E+00
         -4   -1    0    0    0  501 -0.00000000000E+00  0.00000000000E+00  0.11202406023E+03  0.11202406023E+03  0.00000000000E+00 0.  1.
          3   -1    0    0  502    0  0.00000000000E+00 -0.00000000000E+00 -0.13914250346E+03  0.13914250346E+03  0.00000000000E+00 0. -1.
         23    2    1    2    0    0 -0.13761937765E+02 -0.31548009098E+01  0.52373487493E+02  0.10677681486E+03  0.91972617124E+02 0.  0.
        -24    2    1    2    0    0  0.36903806400E+02 -0.81134072332E+01 -0.75310604083E+02  0.11831289910E+03  0.83057430147E+02 0.  0.
         13    1    4    4    0    0 -0.30866758733E+01 -0.39060085211E+02 -0.43634363254E+02  0.58644483809E+02  0.00000000000E+00 0. -1.
        -14    1    4    4    0    0  0.39990482274E+02  0.30946677978E+02 -0.31676240829E+02  0.59668415292E+02  0.00000000000E+00 0.  1.
        -11    1    3    3    0    0  0.15878023171E+02 -0.31349622907E+02  0.55564532771E+02  0.65744412525E+02  0.00000000000E+00 0. -1.
         11    1    3    3    0    0 -0.29639960936E+02  0.28194821997E+02 -0.31910452782E+01  0.41032402339E+02  0.00000000000E+00 0.  1.
         21    1    1    2  502  501 -0.23141868635E+02  0.11268208143E+02 -0.41813266415E+01  0.26076849717E+02  0.00000000000E+00 0.  1.
<scales pt_clust_5="13000.00000" pt_clust_6="13000.00000" pt_clust_7="13000.00000" pt_clust_8="13000.00000" pt_clust_9="25.73944"></scales>
<clustering>
<clus scale="   25.739">  2  9  1 -1</clus>
<clus scale="   83.057">  5  6 -1 -1</clus>
<clus scale="   85.170">  2  5  1 -1</clus>
<clus scale="   91.973">  7  8 -1 -1</clus>
<clus scale="   25.739">  2  5  1 -1</clus>
</clustering>
</event>
<event>
 9    1  0.2951046E-005  0.1391403E+03  0.7546771E-02  0.1216428E+00
         -2   -1    0    0    0  501 -0.00000000000E+00  0.00000000000E+00  0.29779244448E+03  0.29779244448E+03  0.00000000000E+00 0.  1.
          1   -1    0    0  502    0  0.00000000000E+00 -0.00000000000E+00 -0.13980475150E+03  0.13980475150E+03  0.00000000000E+00 0. -1.
        -24    2    1    2    0    0  0.76923834178E+02 -0.43302284343E+02  0.17795313896E+03  0.21512630696E+03  0.82581136986E+02 0.  0.
         23    2    1    2    0    0 -0.56695975962E+02  0.96175476702E+02 -0.56694540916E+02  0.15498928314E+03  0.91341397564E+02 0.  0.
         13    1    3    3    0    0  0.19849438115E+01  0.20516348970E+02  0.18271595835E+02  0.27544723475E+02  0.00000000000E+00 0. -1.
        -14    1    3    3    0    0  0.74938890367E+02 -0.63818633313E+02  0.15968154313E+03  0.18758158348E+03  0.00000000000E+00 0.  1.
        -13    1    4    4    0    0 -0.54368988856E+02  0.34226278990E+02 -0.66226404104E+02  0.92267880236E+02  0.00000000000E+00 0. -1.
         13    1    4    4    0    0 -0.23269871060E+01  0.61949197713E+02  0.95318631879E+01  0.62721402902E+02  0.00000000000E+00 0.  1.
         21    1    1    2  502  501 -0.20227858216E+02 -0.52873192359E+02  0.36729094931E+02  0.67481605884E+02  0.00000000000E+00 0.  1.
<scales pt_clust_5="13000.00000" pt_clust_6="13000.00000" pt_clust_7="13000.00000" pt_clust_8="13000.00000" pt_clust_9="56.61043"></scales>
<clustering>
<clus scale="   56.610">  1  9  2 -1</clus>
<clus scale="   82.581">  5  6 -1 -1</clus>
<clus scale="   91.341">  7  8 -1 -1</clus>
<clus scale="  133.553">  1  5  2 -1</clus>
<clus scale="  139.140">  2  5  1 -1</clus>
</clustering>
</event>
<event>
 9    1  0.4890037E-005  0.1300126E+03  0.7546771E-02  0.1244340E+00
          1   -1    0    0  502    0  0.00000000000E+00  0.00000000000E+00  0.76109259117E+03  0.76109259117E+03  0.00000000000E+00 0. -1.
         -2   -1    0    0    0  501 -0.00000000000E+00 -0.00000000000E+00 -0.28203935357E+03  0.28203935357E+03  0.00000000000E+00 0.  1.
         23    2    1    2    0    0  0.85357806253E+01 -0.13749699503E+01 -0.24733537272E+03  0.26389773621E+03  0.91610471494E+02 0.  0.
        -24    2    1    2    0    0 -0.10034638934E+03 -0.19900461013E+02  0.63306643508E+03  0.64660366821E+03  0.82811631491E+02 0.  0.
         13    1    4    4    0    0 -0.32674478198E+02 -0.46648627040E+02  0.33335692358E+03  0.33818715887E+03  0.00000000000E+00 0. -1.
        -14    1    4    4    0    0 -0.67671911139E+02  0.26748166027E+02  0.29970951150E+03  0.30841650933E+03  0.00000000000E+00 0.  1.
        -13    1    3    3    0    0  0.47674131289E+02  0.14370000678E+02 -0.13767008646E+03  0.14639799322E+03  0.00000000000E+00 0.  1.
         13    1    3    3    0    0 -0.39138350663E+02 -0.15744970628E+02 -0.10966528626E+03  0.11749974299E+03  0.00000000000E+00 0. -1.
         21    1    1    2  502  501  0.91810608711E+02  0.21275430963E+02  0.93322175237E+02  0.13263054032E+03  0.00000000000E+00 0.  1.
<scales pt_clust_5="13000.00000" pt_clust_6="13000.00000" pt_clust_7="13000.00000" pt_clust_8="13000.00000" pt_clust_9="100.22734"></scales>
<clustering>
<clus scale="   82.812">  5  6 -1 -1</clus>
<clus scale="   91.610">  7  8 -1 -1</clus>
<clus scale="   92.018">  2  7  1 -1</clus>
<clus scale="  100.227">  2  9  1 -1</clus>
<clus scale="  130.013">  1  5  2 -1</clus>
</clustering>
</event>
<event>
 9    1  0.2951046E-005  0.9337486E+02  0.7546771E-02  0.1298787E+00
         -2   -1    0    0    0  501 -0.00000000000E+00  0.00000000000E+00  0.33264857517E+03  0.33264857517E+03  0.00000000000E+00 0.  1.
          1   -1    0    0  502    0  0.00000000000E+00 -0.00000000000E+00 -0.13203204217E+03  0.13203204217E+03  0.00000000000E+00 0. -1.
        -24    2    1    2    0    0 -0.12775404940E+02 -0.24703991612E+02  0.29949192551E+03  0.31192381418E+03  0.82629015689E+02 0.  0.
         23    2    1    2    0    0  0.13576933517E+02  0.18418844419E+01 -0.91557782583E+02  0.12873877229E+03  0.89460149096E+02 0.  0.
         11    1    3    3    0    0  0.26696346044E+02 -0.37160101028E+02  0.15264230781E+03  0.15935257178E+03  0.00000000000E+00 0. -1.
        -12    1    3    3    0    0 -0.39471750984E+02  0.12456109417E+02  0.14684961770E+03  0.15257124240E+03  0.00000000000E+00 0.  1.
        -11    1    4    4    0    0  0.28084051773E+01 -0.43407829728E+02 -0.50956351277E+02  0.66997586202E+02  0.00000000000E+00 0.  1.
         11    1    4    4    0    0  0.10768528340E+02  0.45249714170E+02 -0.40601431306E+02  0.61741186085E+02  0.00000000000E+00 0. -1.
         21    1    1    2  502  501 -0.80152857745E+00  0.22862107170E+02 -0.73176099263E+01  0.24018030880E+02  0.00000000000E+00 0. -1.
<scales pt_clust_5="13000.00000" pt_clust_6="13000.00000" pt_clust_7="13000.00000" pt_clust_8="13000.00000" pt_clust_9="22.87615"></scales>
<clustering>
<clus scale="   22.876">  2  9  1 -1</clus>
<clus scale="   82.629">  5  6 -1 -1</clus>
<clus scale="   86.852">  1  5  2 -1</clus>
<clus scale="   89.460">  7  8 -1 -1</clus>
<clus scale="   22.876">  2  5  1 -1</clus>
</clustering>
</event>
<event>
 9    1  0.2951046E-005  0.9030665E+02  0.7546771E-02  0.1302658E+00
         -2   -1    0    0    0  501 -0.00000000000E+00  0.00000000000E+00  0.16328392255E+03  0.16328392255E+03  0.00000000000E+00 0.  1.
          1   -1    0    0  502    0  0.00000000000E+00 -0.00000000000E+00 -0.70816873552E+02  0.70816873552E+02  0.00000000000E+00 0. -1.
         23    2    1    2    0    0 -0.37336020947E+02  0.52668108152E+01  0.76991640368E+02  0.11842378476E+03  0.81699218808E+02 0.  0.
        -24    2    1    2    0    0  0.34236621396E+02 -0.26812717493E+02  0.19019723870E+02  0.93622657062E+02  0.80699342967E+02 0.  0.
         11    1    4    4    0    0  0.42760298177E+02 -0.43858134324E+02  0.33381871810E+02  0.69759074048E+02  0.00000000000E+00 0. -1.
        -12    1    4    4    0    0 -0.85236767802E+01  0.17045416832E+02 -0.14362147940E+02  0.23863583014E+02  0.00000000000E+00 0.  1.
        -11    1    3    3    0    0 -0.45402214350E+02 -0.22359076455E+02  0.73774852688E+02  0.89465179019E+02  0.00000000000E+00 0.  1.
         11    1    3    3    0    0  0.80661934029E+01  0.27625887270E+02  0.32167876805E+01  0.28958605741E+02  0.00000000000E+00 0. -1.
         21    1    1    2  502  501  0.30993995510E+01  0.21545906677E+02 -0.35443152418E+01  0.22054354279E+02  0.00000000000E+00 0.  1.
<scales pt_clust_5="13000.00000" pt_clust_6="13000.00000" pt_clust_7="13000.00000" pt_clust_8="13000.00000" pt_clust_9="21.76769"></scales>
<clustering>
<clus scale="   21.768">  2  9  1 -1</clus>
<clus scale="   80.699">  5  6 -1 -1</clus>
<clus scale="   81.699">  7  8 -1 -1</clus>
<clus scale="   89.403">  2  5  1 -1</clus>
<clus scale="   21.768">  2  5  1 -1</clus>
</clustering>
</event>
<event>
 9    1  0.2951046E-005  0.1113068E+03  0.7546771E-02  0.1264705E+00
         -2   -1    0    0    0  501 -0.00000000000E+00  0.00000000000E+00  0.82280085993E+02  0.82280085993E+02  0.00000000000E+00 0.  1.
          1   -1    0    0  502    0  0.00000000000E+00 -0.00000000000E+00 -0.26444297457E+03  0.26444297457E+03  0.00000000000E+00 0. -1.
        -24    2    1    2    0    0  0.47167750011E+02 -0.37681179649E+02  0.20913543202E+02  0.10236754088E+03  0.79981680372E+02 0.  0.
         23    2    1    2    0    0 -0.41175163482E+02  0.91879366518E+01 -0.17461671360E+03  0.20364027010E+03  0.95909075020E+02 0.  0.
         11    1    3    3    0    0 -0.12067198592E+02 -0.21664752923E+02 -0.17156608438E+02  0.30155066145E+02  0.00000000000E+00 0. -1.
        -12    1    3    3    0    0  0.59234948603E+02 -0.16016426727E+02  0.38070151640E+02  0.72212474733E+02  0.00000000000E+00 0.  1.
        -11    1    4    4    0    0  0.70280892446E+00 -0.39534817866E+02 -0.53348302387E+02  0.66404345728E+02  0.00000000000E+00 0.  1.
         11    1    4    4    0    0 -0.41877972406E+02  0.48722754517E+02 -0.12126841121E+03  0.13723592437E+03  0.00000000000E+00 0. -1.
         21    1    1    2  502  501 -0.59925865294E+01  0.28493242998E+02 -0.28459718177E+02  0.40715249583E+02  0.00000000000E+00 0. -1.
<scales pt_clust_5="13000.00000" pt_clust_6="13000.00000" pt_clust_7="13000.00000" pt_clust_8="13000.00000" pt_clust_9="29.11659"></scales>
<clustering>
<clus scale="   29.117">  2  9  1 -1</clus>
<clus scale="   79.982">  5  6 -1 -1</clus>
<clus scale="   95.909">  7  8 -1 -1</clus>
<clus scale="   97.917">  1  5  2 -1</clus>
<clus scale="   29.117">  2  5  1 -1</clus>
</clustering>
</event>
<event>
 9    1  0.2951046E-005  0.1467544E+03  0.7546771E-02  0.1207659E+00
          1   -1    0    0  502    0  0.00000000000E+00  0.00000000000E+00  0.45802205491E+02  0.45802205491E+02  0.00000000000E+00 0. -1.
         -2   -1    0    0    0  501 -0.00000000000E+00 -0.00000000000E+00 -0.96691177090E+03  0.96691177090E+03  0.00000000000E+00 0.  1.
        -24    2    1    2    0    0  0.36640312922E+02 -0.11471522688E+03 -0.69055023849E+03  0.70548864754E+03  0.79702597957E+02 0.  0.
         23    2    1    2    0    0  0.27232273758E+02  0.91919611556E+02 -0.15782378540E+03  0.20777782307E+03  0.95249487123E+02 0.  0.
         11    1    3    3    0    0 -0.67114329286E+01 -0.31664708808E+02 -0.61474602537E+02  0.69475347232E+02  0.00000000000E+00 0. -1.
        -12    1    3    3    0    0  0.43351745850E+02 -0.83050518067E+02 -0.62907563595E+03  0.63601330031E+03  0.00000000000E+00 0.  1.
        -11    1    4    4    0    0 -0.95778198993E+01  0.77427279144E+02 -0.49350119722E+02  0.92315505232E+02  0.00000000000E+00 0. -1.
         11    1    4    4    0    0  0.36810093657E+02  0.14492332412E+02 -0.10847366568E+03  0.11546231783E+03  0.00000000000E+00 0.  1.
         21    1    1    2  502  501 -0.63872586680E+02  0.22795615320E+02 -0.72735541516E+02  0.99447505783E+02  0.00000000000E+00 0.  1.
<scales pt_clust_5="13000.00000" pt_clust_6="13000.00000" pt_clust_7="13000.00000" pt_clust_8="13000.00000" pt_clust_9="67.81849"></scales>
<clustering>
<clus scale="   67.818">  1  9  2 -1</clus>
<clus scale="   79.703">  5  6 -1 -1</clus>
<clus scale="   95.249">  7  8 -1 -1</clus>
<clus scale="  137.175">  2  5  1 -1</clus>
<clus scale="   67.818">  1  5  2 -1</clus>
</clustering>
</event>
<event>
 9    1  0.2951046E-005  0.1845113E+03  0.7546771E-02  0.1169054E+00
          1   -1    0    0  502    0  0.00000000000E+00  0.00000000000E+00  0.71316045702E+03  0.71316045702E+03  0.00000000000E+00 0. -1.
         -2   -1    0    0    0  501 -0.00000000000E+00 -0.00000000000E+00 -0.86972828562E+02  0.86972828562E+02  0.00000000000E+00 0.  1.
        -24    2    1    2    0    0  0.98857261644E+02  0.10277012887E+03  0.22744832661E+02  0.16604314340E+03  0.81966703551E+02 0.  0.
         23    2    1    2    0    0 -0.95670020172E+02 -0.82580279019E+02  0.54451550815E+03  0.57171856392E+03  0.11996967314E+03 0.  0.
         13    1    3    3    0    0  0.24894688032E+02  0.84750192750E+02  0.13539612253E+02  0.89362529973E+02  0.00000000000E+00 0. -1.
        -14    1    3    3    0    0  0.73962573612E+02  0.18019936117E+02  0.92052204080E+01  0.76680613429E+02  0.00000000000E+00 0.  1.
        -11    1    4    4    0    0  0.11921634862E+02 -0.23978748106E+02  0.20923544653E+02  0.33983826437E+02  0.00000000000E+00 0.  1.
         11    1    4    4    0    0 -0.10759165503E+03 -0.58601530913E+02  0.52359196350E+03  0.53773473748E+03  0.00000000000E+00 0. -1.
         21    1    1    2  502  501 -0.31872414720E+01 -0.20189849848E+02  0.58927287652E+02  0.62371578264E+02  0.00000000000E+00 0. -1.
<scales pt_clust_5="13000.00000" pt_clust_6="13000.00000" pt_clust_7="13000.00000" pt_clust_8="13000.00000" pt_clust_9="20.43988"></scales>
<clustering>
<clus scale="   20.440">  1  9  2 -1</clus>
<clus scale="   81.967">  5  6 -1 -1</clus>
<clus scale="  119.970">  7  8 -1 -1</clus>
<clus scale="  162.389">  2  5  1 -1</clus>
<clus scale="   20.440">  1  5  2 -1</clus>
</clustering>
</event>
<event>
 9    1  0.2951046E-005  0.9974349E+02  0.7546771E-02  0.1286090E+00
         -2   -1    0    0    0  501 -0.00000000000E+00  0.00000000000E+00  0.29926285583E+03  0.29926285583E+03  0.00000000000E+00 0.  1.
          1   -1    0    0  502    0  0.00000000000E+00 -0.00000000000E+00 -0.13594625935E+03  0.13594625935E+03  0.00000000000E+00 0. -1.
         23    2    1    2    0    0  0.41570876028E+02  0.89584651302E+01  0.23595473187E+03  0.25714608177E+03  0.92957409875E+02 0.  0.
        -24    2    1    2    0    0 -0.22935207405E+01  0.45391755728E+02 -0.32152896460E+02  0.99732249439E+02  0.82746849498E+02 0.  0.
         13    1    4    4    0    0 -0.39529666621E+02  0.64657181070E+01 -0.18725742121E+02  0.44215986609E+02  0.00000000000E+00 0. -1.
        -14    1    4    4    0    0  0.37236145881E+02  0.38926037621E+02 -0.13427154339E+02  0.55516262830E+02  0.00000000000E+00 0.  1.
        -13    1    3    3    0    0  0.11825262787E+02  0.32606330162E+02  0.20561459481E+03  0.20851947441E+03  0.00000000000E+00 0.  1.
         13    1    3    3    0    0  0.29745613241E+02 -0.23647865031E+02  0.30340137050E+02  0.48626607365E+02  0.00000000000E+00 0. -1.
         21    1    1    2  502  501 -0.39277355288E+02 -0.54350220858E+02 -0.40485238926E+02  0.78330783965E+02  0.00000000000E+00 0. -1.
<scales pt_clust_5="13000.00000" pt_clust_6="13000.00000" pt_clust_7="13000.00000" pt_clust_8="13000.00000" pt_clust_9="67.05712"></scales>
<clustering>
<clus scale="   67.057">  2  9  1 -1</clus>
<clus scale="   82.747">  5  6 -1 -1</clus>
<clus scale="   90.304">  2  5  1 -1</clus>
<clus scale="   92.957">  7  8 -1 -1</clus>
<clus scale="   67.057">  2  5  1 -1</clus>
</clustering>
</event>
<event>
 9    1  0.2951046E-005  0.9804791E+02  0.7546771E-02  0.1290155E+00
          1   -1    0    0  502    0  0.00000000000E+00  0.00000000000E+00  0.20721563030E+03  0.20721563030E+03  0.00000000000E+00 0. -1.
         -2   -1    0    0    0  501 -0.00000000000E+00 -0.00000000000E+00 -0.28331454950E+03  0.28331454950E+03  0.00000000000E+00 0.  1.
         23    2    1    2    0    0 -0.37996139510E+02  0.17626140237E+02 -0.10265238339E+03  0.14392481782E+03  0.91773928383E+02 0.  0.
        -24    2    1    2    0    0 -0.40970790817E+02  0.79599984085E+01  0.16307883541E+03  0.18682550230E+03  0.81037611481E+02 0.  0.
         13    1    4    4    0    0 -0.54465570468E+02  0.21774178165E+02  0.67990673555E+02  0.89796129603E+02  0.00000000000E+00 0. -1.
        -14    1    4    4    0    0  0.13494779651E+02 -0.13814179757E+02  0.95088161857E+02  0.97029372695E+02  0.00000000000E+00 0.  1.
        -13    1    3    3    0    0 -0.16836162544E+02 -0.11954761412E+02 -0.10544503644E+03  0.10744779384E+03  0.00000000000E+00 0.  1.
         13    1    3    3    0    0 -0.21159976966E+02  0.29580901649E+02  0.27926530518E+01  0.36477023983E+02  0.00000000000E+00 0. -1.
         21    1    1    2  502  501  0.78966930328E+02 -0.25586138645E+02 -0.13652537122E+03  0.15977985969E+03  0.00000000000E+00 0.  1.
<scales pt_clust_5="13000.00000" pt_clust_6="13000.00000" pt_clust_7="13000.00000" pt_clust_8="13000.00000" pt_clust_9="83.00859"></scales>
<clustering>
<clus scale="   81.038">  5  6 -1 -1</clus>
<clus scale="   83.009">  2  9  1 -1</clus>
<clus scale="   88.080">  1  5  2 -1</clus>
<clus scale="   91.774">  7  8 -1 -1</clus>
<clus scale="   88.080">  1  5  2 -1</clus>
</clustering>
</event>
<event>
 9    1  0.2951046E-005  0.1378961E+03  0.7546771E-02  0.1218305E+00
          3   -1    0    0  502    0  0.00000000000E+00  0.00000000000E+00  0.16377274607E+03  0.16377274607E+03  0.00000000000E+00 0. -1.
         -4   -1    0    0    0  501 -0.00000000000E+00 -0.00000000000E+00 -0.24742338093E+03  0.24742338093E+03  0.00000000000E+00 0.  1.
         23    2    1    2    0    0 -0.80003534352E+02  0.64612737945E+02 -0.17445093252E+03  0.22160371197E+03  0.89998366028E+02 0.  0.
        -24    2    1    2    0    0  0.74473170882E+02 -0.85065355180E+02  0.57695848882E+02  0.15028848393E+03  0.80470178263E+02 0.  0.
         13    1    4    4    0    0  0.47285630791E+02 -0.58873407461E+02  0.77034620862E+02  0.10787187676E+03  0.00000000000E+00 0. -1.
        -14    1    4    4    0    0  0.27187540090E+02 -0.26191947719E+02 -0.19338771980E+02  0.42416607162E+02  0.00000000000E+00 0.  1.
        -11    1    3    3    0    0 -0.19986722376E+02  0.35947250701E+02 -0.14154125130E+03  0.14739606414E+03  0.00000000000E+00 0.  1.
         11    1    3    3    0    0 -0.60016811976E+02  0.28665487244E+02 -0.32909681225E+02  0.74207647834E+02  0.00000000000E+00 0. -1.
         21    1    1    2  502  501  0.55303634704E+01  0.20452617234E+02  0.33104448780E+02  0.39303931112E+02  0.00000000000E+00 0. -1.
<scales pt_clust_5="13000.00000" pt_clust_6="13000.00000" pt_clust_7="13000.00000" pt_clust_8="13000.00000" pt_clust_9="21.18713"></scales>
<clustering>
<clus scale="   21.187">  1  9  2 -1</clus>
<clus scale="   80.470">  5  6 -1 -1</clus>
<clus scale="   89.998">  7  8 -1 -1</clus>
<clus scale="  131.875">  1  5  2 -1</clus>
<clus scale="   21.187">  1  5  2 -1</clus>
</clustering>
</event>
<event>
 9    1  0.2951046E-005  0.9456682E+02  0.7546771E-02  0.1298643E+00
          1   -1    0    0  502    0  0.00000000000E+00  0.00000000000E+00  0.64389377285E+02  0.64389377285E+02  0.00000000000E+00 0. -1.
         -2   -1    0    0    0  501 -0.00000000000E+00 -0.00000000000E+00 -0.26024633260E+03  0.26024633260E+03  0.00000000000E+00 0.  1.
         23    2    1    2    0    0 -0.27905376366E+02 -0.85498844430E+01 -0.19408177062E+03  0.21596409263E+03  0.90116286338E+02 0.  0.
        -24    2    1    2    0    0  0.17729682105E+02  0.27754004938E+02 -0.87866088545E+01  0.85835175622E+02  0.78777195058E+02 0.  0.
         11    1    4    4    0    0  0.32449605455E+02  0.37218625848E+02  0.19074139784E+02  0.52934164891E+02  0.00000000000E+00 0. -1.
        -12    1    4    4    0    0 -0.14719923349E+02 -0.94646209100E+01 -0.27860748639E+02  0.32901010731E+02  0.00000000000E+00 0.  1.
        -11    1    3    3    0    0  0.33102779329E+02 -0.15905477420E+01 -0.61793829078E+02  0.70119905544E+02  0.00000000000E+00 0. -1.
         11    1    3    3    0    0 -0.61008155694E+02 -0.69593367010E+01 -0.13228794154E+03  0.14584418708E+03  0.00000000000E+00 0.  1.
         21    1    1    2  502  501  0.10175694260E+02 -0.19204120495E+02  0.70114241627E+01  0.22836441633E+02  0.00000000000E+00 0.  1.
<scales pt_clust_5="13000.00000" pt_clust_6="13000.00000" pt_clust_7="13000.00000" pt_clust_8="13000.00000" pt_clust_9="21.73345"></scales>
<clustering>
<clus scale="   21.733">  1  9  2 -1</clus>
<clus scale="   78.777">  5  6 -1 -1</clus>
<clus scale="   83.832">  1  5  2 -1</clus>
<clus scale="   90.116">  7  8 -1 -1</clus>
<clus scale="   21.733">  1  5  2 -1</clus>
</clustering>
</event>
<event>
 9    1  0.2951046E-005  0.1406050E+03  0.7546771E-02  0.1214621E+00
         -2   -1    0    0    0  501 -0.00000000000E+00  0.00000000000E+00  0.39561144269E+03  0.39561144269E+03  0.00000000000E+00 0.  1.
          1   -1    0    0  502    0  0.00000000000E+00 -0.00000000000E+00 -0.46006612311E+03  0.46006612311E+03  0.00000000000E+00 0. -1.
        -24    2    1    2    0    0 -0.42760676328E+02 -0.10032258248E+03  0.36519792281E+03  0.38963177182E+03  0.80933916223E+02 0.  0.
         23    2    1    2    0    0  0.62419087559E+02  0.42271453977E+02 -0.30796645958E+03  0.32979637487E+03  0.90770536723E+02 0.  0.
         11    1    3    3    0    0 -0.34146232098E+02 -0.36697123994E+02  0.62091685427E+02  0.79799883929E+02  0.00000000000E+00 0. -1.
        -12    1    3    3    0    0 -0.86144442298E+01 -0.63625458488E+02  0.30310623738E+03  0.30983188789E+03  0.00000000000E+00 0.  1.
        -11    1    4    4    0    0  0.47587724984E+02  0.63198032689E+02 -0.28356614196E+03  0.29439487049E+03  0.00000000000E+00 0. -1.
         11    1    4    4    0    0  0.14831362574E+02 -0.20926578712E+02 -0.24400317629E+02  0.35401504386E+02  0.00000000000E+00 0.  1.
         21    1    1    2  502  501 -0.19658411231E+02  0.58051128504E+02 -0.12168614364E+03  0.13624941911E+03  0.00000000000E+00 0. -1.
<scales pt_clust_5="13000.00000" pt_clust_6="13000.00000" pt_clust_7="13000.00000" pt_clust_8="13000.00000" pt_clust_9="61.28937"></scales>
<clustering>
<clus scale="   61.289">  2  9  1 -1</clus>
<clus scale="   80.934">  5  6 -1 -1</clus>
<clus scale="   90.771">  7  8 -1 -1</clus>
<clus scale="  134.465">  1  5  2 -1</clus>
<clus scale="   61.289">  2  5  1 -1</clus>
</clustering>
</event>
<event>
 9    1  0.2951046E-005  0.1033011E+03  0.7546771E-02  0.1277960E+00
          1   -1    0    0  502    0  0.00000000000E+00  0.00000000000E+00  0.74890044723E+03  0.74890044723E+03  0.00000000000E+00 0. -1.
         -2   -1    0    0    0  501 -0.00000000000E+00 -0.00000000000E+00 -0.25743155682E+02  0.25743155682E+02  0.00000000000E+00 0.  1.
        -24    2    1    2    0    0  0.55762557592E+02  0.24090185324E+01  0.10777484905E+03  0.14588231061E+03  0.80938027290E+02 0.  0.
         23    2    1    2    0    0 -0.27912647195E+02  0.13715401532E+02  0.42535652106E+03  0.43602970369E+03  0.90700079257E+02 0.  0.
         13    1    3    3    0    0  0.49675348620E+02  0.29975611084E+02  0.10157759066E+03  0.11697941889E+03  0.00000000000E+00 0. -1.
        -14    1    3    3    0    0  0.60872089722E+01 -0.27566592552E+02  0.61972583894E+01  0.28902891716E+02  0.00000000000E+00 0.  1.
        -11    1    4    4    0    0 -0.13426504194E+02  0.50258218562E+02  0.30533738623E+03  0.30973711269E+03  0.00000000000E+00 0. -1.
         11    1    4    4    0    0 -0.14486143001E+02 -0.36542817030E+02  0.12001913483E+03  0.12629259100E+03  0.00000000000E+00 0.  1.
         21    1    1    2  502  501 -0.27849910397E+02 -0.16124420064E+02  0.19002592144E+03  0.19273158862E+03  0.00000000000E+00 0.  1.
<scales pt_clust_5="13000.00000" pt_clust_6="13000.00000" pt_clust_7="13000.00000" pt_clust_8="13000.00000" pt_clust_9="32.18096"></scales>
<clustering>
<clus scale="   32.181">  1  9  2 -1</clus>
<clus scale="   80.938">  5  6 -1 -1</clus>
<clus scale="   90.700">  7  8 -1 -1</clus>
<clus scale="   94.845">  2  5  1 -1</clus>
<clus scale="   32.181">  1  5  2 -1</clus>
</clustering>
</event>
<event>
 9    1  0.2951046E-005  0.1066585E+03  0.7546771E-02  0.1270818E+00
         -2   -1    0    0    0  501 -0.00000000000E+00  0.00000000000E+00  0.45604834938E+03  0.45604834938E+03  0.00000000000E+00 0.  1.
          1   -1    0    0  502    0  0.00000000000E+00 -0.00000000000E+00 -0.21671162459E+03  0.21671162459E+03  0.00000000000E+00 0. -1.
         23    2    1    2    0    0  0.50598260178E+02 -0.39807153750E+02  0.33543789885E+03  0.35336840803E+03  0.90586171052E+02 0.  0.
        -24    2    1    2    0    0 -0.30892734711E+02  0.24933033613E+02  0.92403544583E+02  0.12927692649E+03  0.81228636873E+02 0.  0.
         13    1    4    4    0    0 -0.39948879328E+02  0.48951307717E+02  0.54169282852E+02  0.83225324820E+02  0.00000000000E+00 0. -1.
        -14    1    4    4    0    0  0.90561446169E+01 -0.24018274104E+02  0.38234261731E+02  0.46051601670E+02  0.00000000000E+00 0.  1.
        -11    1    3    3    0    0 -0.11614898878E+02  0.20937475500E+02  0.82388470428E+02  0.85797108435E+02  0.00000000000E+00 0. -1.
         11    1    3    3    0    0  0.62213159056E+02 -0.60744629249E+02  0.25304942842E+03  0.26757129960E+03  0.00000000000E+00 0.  1.
         21    1    1    2  502  501 -0.19705525467E+02  0.14874120136E+02 -0.18850471864E+03  0.19011463945E+03  0.00000000000E+00 0. -1.
<scales pt_clust_5="13000.00000" pt_clust_6="13000.00000" pt_clust_7="13000.00000" pt_clust_8="13000.00000" pt_clust_9="24.68901"></scales>
<clustering>
<clus scale="   24.689">  2  9  1 -1</clus>
<clus scale="   81.229">  5  6 -1 -1</clus>
<clus scale="   90.586">  7  8 -1 -1</clus>
<clus scale="   98.835">  2  5  1 -1</clus>
<clus scale="   24.689">  2  5  1 -1</clus>
</clustering>
</event>
<event>
 9    1  0.2951046E-005  0.1944344E+03  0.7546771E-02  0.1155940E+00
          1   -1    0    0  502    0  0.00000000000E+00  0.00000000000E+00  0.35913736671E+03  0.35913736671E+03  0.00000000000E+00 0. -1.
         -2   -1    0    0    0  501 -0.00000000000E+00 -0.00000000000E+00 -0.26628268774E+03  0.26628268774E+03  0.00000000000E+00 0.  1.
         23    2    1    2    0    0 -0.63090474171E+02  0.15879503353E+03 -0.18077549891E+03  0.26602310984E+03  0.94298692235E+02 0.  0.
        -24    2    1    2    0    0  0.82831943251E+02 -0.14540900901E+03  0.16560106399E+03  0.24876602351E+03  0.80348685944E+02 0.  0.
         11    1    4    4    0    0  0.30713128718E+02 -0.12598411806E+03  0.10885534109E+03  0.16930676172E+03  0.00000000000E+00 0. -1.
        -12    1    4    4    0    0  0.52118814533E+02 -0.19424890948E+02  0.56745722905E+02  0.79459261793E+02  0.00000000000E+00 0.  1.
        -13    1    3    3    0    0 -0.22152356469E+02  0.31714759788E+02 -0.10635265433E+03  0.11316996054E+03  0.00000000000E+00 0.  1.
         13    1    3    3    0    0 -0.40938117702E+02  0.12708027375E+03 -0.74422844586E+02  0.15285314931E+03  0.00000000000E+00 0. -1.
         21    1    1    2  502  501 -0.19741469080E+02 -0.13386024526E+02  0.10802911390E+03  0.11063092110E+03  0.00000000000E+00 0. -1.
<scales pt_clust_5="13000.00000" pt_clust_6="13000.00000" pt_clust_7="13000.00000" pt_clust_8="13000.00000" pt_clust_9="23.85186"></scales>
<clustering>
<clus scale="   23.852">  1  9  2 -1</clus>
<clus scale="   80.349">  5  6 -1 -1</clus>
<clus scale="   94.299">  7  8 -1 -1</clus>
<clus scale="  188.065">  1  5  2 -1</clus>
<clus scale="   23.852">  1  5  2 -1</clus>
</clustering>
</event>
<event>
 9    1  0.2951046E-005  0.1312763E+03  0.7546771E-02  0.1227946E+00
          1   -1    0    0  502    0  0.00000000000E+00  0.00000000000E+00  0.35860095401E+03  0.35860095401E+03  0.00000000000E+00 0. -1.
         -2   -1    0    0    0  501 -0.00000000000E+00 -0.00000000000E+00 -0.40075941949E+03  0.40075941949E+03  0.00000000000E+00 0.  1.
        -24    2    1    2    0    0  0.61366860986E+02  0.79752878104E+02 -0.34740896041E+03  0.37046541275E+03  0.80157489222E+02 0.  0.
         23    2    1    2    0    0  0.43608810896E+02 -0.77942569423E+02  0.11217961491E+03  0.16912341205E+03  0.89675470378E+02 0.  0.
         13    1    3    3    0    0  0.37264776685E+01  0.66992142920E+02 -0.14795194203E+03  0.16245495068E+03  0.00000000000E+00 0. -1.
        -14    1    3    3    0    0  0.57640383318E+02  0.12760735184E+02 -0.19945701838E+03  0.20801046207E+03  0.00000000000E+00 0.  1.
        -11    1    4    4    0    0 -0.51191227751E+01 -0.73623975757E+02  0.87059594028E+02  0.11413180160E+03  0.00000000000E+00 0. -1.
         11    1    4    4    0    0  0.48727933671E+02 -0.43185936653E+01  0.25120020879E+02  0.54991610451E+02  0.00000000000E+00 0.  1.
         21    1    1    2  502  501 -0.10497567188E+03 -0.18103086811E+01  0.19307088002E+03  0.21977154870E+03  0.00000000000E+00 0. -1.
<scales pt_clust_5="13000.00000" pt_clust_6="13000.00000" pt_clust_7="13000.00000" pt_clust_8="13000.00000" pt_clust_9="104.99128"></scales>
<clustering>
<clus scale="   80.157">  5  6 -1 -1</clus>
<clus scale="   89.675">  7  8 -1 -1</clus>
<clus scale="  104.991">  1  9  2 -1</clus>
<clus scale="  124.968">  2  5  1 -1</clus>
<clus scale="  104.991">  1  5  2 -1</clus>
</clustering>
</event>
<event>
 9    1  0.2951046E-005  0.9523356E+02  0.7546771E-02  0.1296964E+00
          1   -1    0    0  502    0  0.00000000000E+00  0.00000000000E+00  0.39626158362E+02  0.39626158362E+02  0.00000000000E+00 0. -1.
         -2   -1    0    0    0  501 -0.00000000000E+00 -0.00000000000E+00 -0.54953984653E+03  0.54953984653E+03  0.00000000000E+00 0.  1.
        -24    2    1    2    0    0  0.15114057651E+02 -0.31705029236E+02 -0.41857244964E+03  0.42752035115E+03  0.79605976093E+02 0.  0.
         23    2    1    2    0    0 -0.95645930845E+01 -0.35059457852E+01 -0.86288521414E+02  0.12564371950E+03  0.90757160743E+02 0.  0.
         13    1    3    3    0    0 -0.31949701790E+02 -0.19792361562E+02 -0.21323800919E+03  0.21652475513E+03  0.00000000000E+00 0. -1.
        -14    1    3    3    0    0  0.47063759440E+02 -0.11912667674E+02 -0.20533444044E+03  0.21099559601E+03  0.00000000000E+00 0.  1.
        -11    1    4    4    0    0  0.25987408108E+02 -0.47818062051E+01 -0.86105158700E+02  0.90068359625E+02  0.00000000000E+00 0.  1.
         11    1    4    4    0    0 -0.35552001193E+02  0.12758604199E+01 -0.18336271423E+00  0.35575359879E+02  0.00000000000E+00 0. -1.
         21    1    1    2  502  501 -0.55494645662E+01  0.35210975021E+02 -0.50527171155E+01  0.36001934242E+02  0.00000000000E+00 0. -1.
<scales pt_clust_5="13000.00000" pt_clust_6="13000.00000" pt_clust_7="13000.00000" pt_clust_8="13000.00000" pt_clust_9="35.64561"></scales>
<clustering>
<clus scale="   35.646">  1  9  2 -1</clus>
<clus scale="   79.606">  5  6 -1 -1</clus>
<clus scale="   84.674">  2  5  1 -1</clus>
<clus scale="   90.757">  7  8 -1 -1</clus>
<clus scale="   35.646">  1  5  2 -1</clus>
</clustering>
</event>
<event>
 9    1  0.2951046E-005  0.1081702E+03  0.7546771E-02  0.1269425E+00
          1   -1    0    0  502    0  0.00000000000E+00  0.00000000000E+00  0.92624569720E+02  0.92624569720E+02  0.00000000000E+00 0. -1.
         -2   -1    0    0    0  501 -0.00000000000E+00 -0.00000000000E+00 -0.39484306589E+03  0.39484306589E+03  0.00000000000E+00 0.  1.
        -24    2    1    2    0    0 -0.42991987209E+02  0.34128168272E+02 -0.28358926305E+03  0.29990417669E+03  0.80663512448E+02 0.  0.
         23    2    1    2    0    0  0.72406089356E+02  0.14205787247E+02  0.17619621075E+02  0.12036717859E+03  0.93452450300E+02 0.  0.
         13    1    3    3    0    0 -0.44878551371E+02  0.47207508307E+02 -0.12672795185E+03  0.14248721695E+03  0.00000000000E+00 0. -1.
        -14    1    3    3    0    0  0.18865641624E+01 -0.13079340035E+02 -0.15686131121E+03  0.15741695974E+03  0.00000000000E+00 0.  1.
        -13    1    4    4    0    0  0.59008670494E+02  0.52034286050E+02  0.78526038324E+01  0.79064868969E+02  0.00000000000E+00 0.  1.
         13    1    4    4    0    0  0.13397418862E+02 -0.37828498804E+02  0.97670172426E+01  0.41302309617E+02  0.00000000000E+00 0. -1.
         21    1    1    2  502  501 -0.29414102147E+02 -0.48333955519E+02 -0.36248854195E+02  0.67196280341E+02  0.00000000000E+00 0. -1.
<scales pt_clust_5="13000.00000" pt_clust_6="13000.00000" pt_clust_7="13000.00000" pt_clust_8="13000.00000" pt_clust_9="56.58057"></scales>
<clustering>
<clus scale="   56.581">  1  9  2 -1</clus>
<clus scale="   80.664">  5  6 -1 -1</clus>
<clus scale="   93.452">  7  8 -1 -1</clus>
<clus scale="   97.335">  2  5  1 -1</clus>
<clus scale="   56.581">  1  5  2 -1</clus>
</clustering>
</event>
<event>
 9    1  0.2951046E-005  0.9047012E+02  0.7546771E-02  0.1301844E+00
         -2   -1    0    0    0  501 -0.00000000000E+00  0.00000000000E+00  0.63012591888E+03  0.63012591888E+03  0.00000000000E+00 0.  1.
          1   -1    0    0  502    0  0.00000000000E+00 -0.00000000000E+00 -0.95676394805E+02  0.95676394805E+02  0.00000000000E+00 0. -1.
        -24    2    1    2    0    0  0.11243552365E+02 -0.42128307859E+01  0.56343813171E+03  0.57067872751E+03  0.89819354015E+02 0.  0.
         23    2    1    2    0    0  0.29338319035E+02 -0.27660813815E+02 -0.65849466347E+01  0.98867550653E+02  0.90030958371E+02 0.  0.
         13    1    3    3    0    0 -0.10139092592E+02  0.38518076679E+02  0.18521624365E+03  0.18945052215E+03  0.00000000000E+00 0. -1.
        -14    1    3    3    0    0  0.21382644957E+02 -0.42730907465E+02  0.37822188805E+03  0.38122820536E+03  0.00000000000E+00 0.  1.
        -13    1    4    4    0    0  0.25216003663E+01  0.29208860892E+02 -0.18785267325E+02  0.34819567652E+02  0.00000000000E+00 0. -1.
         13    1    4    4    0    0  0.26816718669E+02 -0.56869674707E+02  0.12200320691E+02  0.64047983000E+02  0.00000000000E+00 0.  1.
         21    1    1    2  502  501 -0.40581871400E+02  0.31873644601E+02 -0.22403661000E+02  0.56256035522E+02  0.00000000000E+00 0. -1.
<scales pt_clust_5="13000.00000" pt_clust_6="13000.00000" pt_clust_7="13000.00000" pt_clust_8="13000.00000" pt_clust_9="51.60250"></scales>
<clustering>
<clus scale="   51.602">  2  9  1 -1</clus>
<clus scale="   89.819">  5  6 -1 -1</clus>
<clus scale="   90.031">  7  8 -1 -1</clus>
<clus scale="   90.260">  1  5  2 -1</clus>
<clus scale="   51.602">  2  5  1 -1</clus>
</clustering>
</event>
<event>
 9    1  0.2951046E-005  0.9325381E+02  0.7546771E-02  0.1299979E+00
          3   -1    0    0  502    0  0.00000000000E+00  0.00000000000E+00  0.17435252942E+03  0.17435252942E+03  0.00000000000E+00 0. -1.
         -4   -1    0    0    0  501 -0.00000000000E+00 -0.00000000000E+00 -0.94811619219E+02  0.94811619219E+02  0.00000000000E+00 0.  1.
         23    2    1    2    0    0 -0.27802931996E+02  0.11163762462E+01 -0.40170824350E+02  0.10268360181E+03  0.90310451382E+02 0.  0.
        -24    2    1    2    0    0  0.90862345417E+01 -0.15221350453E+02  0.62538852753E+02  0.10469055189E+03  0.82065549312E+02 0.  0.
         11    1    4    4    0    0 -0.27656188973E+02 -0.43555127209E+01  0.60095742269E+02  0.66297311547E+02  0.00000000000E+00 0. -1.
        -12    1    4    4    0    0  0.36742423514E+02 -0.10865837732E+02  0.24431104846E+01  0.38393240345E+02  0.00000000000E+00 0.  1.
        -13    1    3    3    0    0  0.29593533720E+02  0.11663280739E+02  0.48814700912E-01  0.31808988329E+02  0.00000000000E+00 0.  1.
         13    1    3    3    0    0 -0.57396465716E+02 -0.10546904493E+02 -0.40219639051E+02  0.70874613484E+02  0.00000000000E+00 0. -1.
         21    1    1    2  502  501  0.18716697454E+02  0.14104974207E+02  0.57172881795E+02  0.61789994932E+02  0.00000000000E+00 0. -1.
<scales pt_clust_5="13000.00000" pt_clust_6="13000.00000" pt_clust_7="13000.00000" pt_clust_8="13000.00000" pt_clust_9="23.43640"></scales>
<clustering>
<clus scale="   23.436">  1  9  2 -1</clus>
<clus scale="   82.066">  5  6 -1 -1</clus>
<clus scale="   85.294">  1  5  2 -1</clus>
<clus scale="   90.310">  7  8 -1 -1</clus>
<clus scale="   23.436">  1  5  2 -1</clus>
</clustering>
</event>
<event>
 9    1  0.2951046E-005  0.9558313E+02  0.7546771E-02  0.1298350E+00
         -2   -1    0    0    0  501 -0.00000000000E+00  0.00000000000E+00  0.24903137178E+02  0.24903137178E+02  0.00000000000E+00 0.  1.
          1   -1    0    0  502    0  0.00000000000E+00 -0.00000000000E+00 -0.40476406575E+03  0.40476406575E+03  0.00000000000E+00 0. -1.
        -24    2    1    2    0    0  0.36453113646E+02 -0.61466228227E+01 -0.15453357962E+03  0.18246098932E+03  0.89692669298E+02 0.  0.
         23    2    1    2    0    0 -0.28932617886E+02 -0.13001181583E+02 -0.18051479817E+03  0.19789738096E+03  0.74643512318E+02 0.  0.
         13    1    3    3    0    0  0.64518044419E+01  0.31975518862E+02 -0.11602484152E+03  0.12052312408E+03  0.00000000000E+00 0. -1.
        -14    1    3    3    0    0  0.30001309204E+02 -0.38122141685E+02 -0.38508738099E+02  0.61937865240E+02  0.00000000000E+00 0.  1.
        -13    1    4    4    0    0  0.14384668219E+02  0.20820495388E+02 -0.44381021529E+02  0.51089008406E+02  0.00000000000E+00 0. -1.
         13    1    4    4    0    0 -0.43317286105E+02 -0.33821676971E+02 -0.13613377664E+03  0.14680837255E+03  0.00000000000E+00 0.  1.
         21    1    1    2  502  501 -0.75204957598E+01  0.19147804406E+02 -0.44812550782E+02  0.49308832653E+02  0.00000000000E+00 0. -1.
<scales pt_clust_5="13000.00000" pt_clust_6="13000.00000" pt_clust_7="13000.00000" pt_clust_8="13000.00000" pt_clust_9="20.57173"></scales>
<clustering>
<clus scale="   20.572">  2  9  1 -1</clus>
<clus scale="   74.644">  7  8 -1 -1</clus>
<clus scale="   81.627">  2  7  1 -1</clus>
<clus scale="   89.693">  5  6 -1 -1</clus>
<clus scale="   20.572">  2  5  1 -1</clus>
</clustering>
</event>
<event>
 9    1  0.2951046E-005  0.1645840E+03  0.7546771E-02  0.1185043E+00
          1   -1    0    0  502    0  0.00000000000E+00  0.00000000000E+00  0.21093187755E+03  0.21093187755E+03  0.00000000000E+00 0. -1.
         -2   -1    0    0    0  501 -0.00000000000E+00 -0.00000000000E+00 -0.26335890542E+03  0.26335890542E+03  0.00000000000E+00 0.  1.
         23    2    1    2    0    0  0.10541965758E+03  0.79315559023E+02 -0.15991602666E+03  0.22654769491E+03  0.91358964410E+02 0.  0.
        -24    2    1    2    0    0 -0.10785765736E+03 -0.12050380568E+03  0.95265605508E+02  0.20471023028E+03  0.81708636960E+02 0.  0.
         13    1    4    4    0    0 -0.75248641815E+02 -0.31338472518E+02  0.67384971460E+02  0.10576006965E+03  0.00000000000E+00 0. -1.
        -14    1    4    4    0    0 -0.32609015549E+02 -0.89165333166E+02  0.27880634048E+02  0.98950160629E+02  0.00000000000E+00 0.  1.
        -11    1    3    3    0    0  0.28586078525E+02 -0.38549546738E+01  0.20611664071E+01  0.28918384601E+02  0.00000000000E+00 0. -1.
         11    1    3    3    0    0  0.76833579059E+02  0.83170513697E+02 -0.16197719306E+03  0.19762931031E+03  0.00000000000E+00 0.  1.
         21    1    1    2  502  501  0.24379997803E+01  0.41188246661E+02  0.12223393279E+02  0.43032857785E+02  0.00000000000E+00 0.  1.
<scales pt_clust_5="13000.00000" pt_clust_6="13000.00000" pt_clust_7="13000.00000" pt_clust_8="13000.00000" pt_clust_9="41.26034"></scales>
<clustering>
<clus scale="   41.260">  1  9  2 -1</clus>
<clus scale="   81.709">  5  6 -1 -1</clus>
<clus scale="   91.359">  7  8 -1 -1</clus>
<clus scale="  159.429">  1  5  2 -1</clus>
<clus scale="   41.260">  1  5  2 -1</clus>
</clustering>
</event>
<event>
 9    1  0.2951046E-005  0.9689214E+02  0.7546771E-02  0.1293656E+00
          1   -1    0    0  502    0  0.00000000000E+00  0.00000000000E+00  0.77042224800E+02  0.77042224800E+02  0.00000000000E+00 0. -1.
         -2   -1    0    0    0  501 -0.00000000000E+00 -0.00000000000E+00 -0.13948629733E+03  0.13948629733E+03  0.00000000000E+00 0.  1.
        -24    2    1    2    0    0  0.34952004589E+02 -0.22637857502E+02 -0.34564242853E+02  0.95583962327E+02  0.78787637058E+02 0.  0.
         23    2    1    2    0    0 -0.25130088617E+02  0.16578059928E+01 -0.24075481475E+02  0.97468920089E+02  0.91029071732E+02 0.  0.
         13    1    3    3    0    0  0.48371087504E+02  0.79761769326E+01 -0.37936499794E+02  0.61988382149E+02  0.00000000000E+00 0. -1.
        -14    1    3    3    0    0 -0.13419082915E+02 -0.30614034435E+02  0.33722569417E+01  0.33595580179E+02  0.00000000000E+00 0.  1.
        -13    1    4    4    0    0 -0.46976735727E+02  0.26244140188E+01  0.17737769911E+02  0.50282499241E+02  0.00000000000E+00 0.  1.
         13    1    4    4    0    0  0.21846647110E+02 -0.96660802601E+00 -0.41813251385E+02  0.47186420848E+02  0.00000000000E+00 0. -1.
         21    1    1    2  502  501 -0.98219159713E+01  0.20980051509E+02 -0.38043482020E+01  0.23475639713E+02  0.00000000000E+00 0. -1.
<scales pt_clust_5="13000.00000" pt_clust_6="13000.00000" pt_clust_7="13000.00000" pt_clust_8="13000.00000" pt_clust_9="23.16533"></scales>
<clustering>
<clus scale="   23.165">  1  9  2 -1</clus>
<clus scale="   78.788">  5  6 -1 -1</clus>
<clus scale="   85.494">  2  5  1 -1</clus>
<clus scale="   91.029">  7  8 -1 -1</clus>
<clus scale="   23.165">  1  5  2 -1</clus>
</clustering>
</event>
<event>
 9    1  0.2951046E-005  0.1442477E+03  0.7546771E-02  0.1209818E+00
         -2   -1    0    0    0  501 -0.00000000000E+00  0.00000000000E+00  0.16349088062E+03  0.16349088062E+03  0.00000000000E+00 0.  1.
          1   -1    0    0  502    0  0.00000000000E+00 -0.00000000000E+00 -0.30800077860E+03  0.30800077860E+03  0.00000000000E+00 0. -1.
         23    2    1    2    0    0  0.10898886552E+03  0.50663219830E+02  0.93653177406E+02  0.17746228975E+03  0.90975886874E+02 0.  0.
        -24    2    1    2    0    0 -0.59112346983E+02 -0.34967560282E+02 -0.20867518305E+03  0.23399973825E+03  0.80582539304E+02 0.  0.
         13    1    4    4    0    0 -0.66362473406E+02 -0.34627022529E+02 -0.99141206916E+02  0.12422555081E+03  0.00000000000E+00 0. -1.
        -14    1    4    4    0    0  0.72501264234E+01 -0.34053775278E+00 -0.10953397614E+03  0.10977418744E+03  0.00000000000E+00 0.  1.
        -13    1    3    3    0    0  0.88121530438E+02  0.57081713010E+02  0.10855993504E+03  0.15102644001E+03  0.00000000000E+00 0.  1.
         13    1    3    3    0    0  0.20867335084E+02 -0.64184931793E+01 -0.14906757631E+02  0.26435849736E+02  0.00000000000E+00 0. -1.
         21    1    1    2  502  501 -0.49876518539E+02 -0.15695659548E+02 -0.29487892334E+02  0.60029631221E+02  0.00000000000E+00 0. -1.
<scales pt_clust_5="13000.00000" pt_clust_6="13000.00000" pt_clust_7="13000.00000" pt_clust_8="13000.00000" pt_clust_9="52.28787"></scales>
<clustering>
<clus scale="   52.288">  2  9  1 -1</clus>
<clus scale="   80.583">  5  6 -1 -1</clus>
<clus scale="   90.976">  7  8 -1 -1</clus>
<clus scale="  137.929">  2  5  1 -1</clus>
<clus scale="   52.288">  2  5  1 -1</clus>
</clustering>
</event>
<event>
 9    1  0.2951046E-005  0.1119925E+03  0.7546771E-02  0.1261721E+00
         -4   -1    0    0    0  501 -0.00000000000E+00  0.00000000000E+00  0.27660977195E+03  0.27660977195E+03  0.00000000000E+00 0.  1.
          3   -1    0    0  502    0  0.00000000000E+00 -0.00000000000E+00 -0.99932944987E+02  0.99932944987E+02  0.00000000000E+00 0. -1.
         23    2    1    2    0    0 -0.50496504258E+02  0.16820099995E+02  0.10383109346E+03  0.14876509148E+03  0.92289456428E+02 0.  0.
        -24    2    1    2    0    0  0.56671407029E+02 -0.49303080360E+02  0.12488177842E+03  0.16612518505E+03  0.79747579379E+02 0.  0.
         11    1    4    4    0    0  0.57569909736E+01 -0.44511234433E+02  0.99240109640E+02  0.10891736453E+03  0.00000000000E+00 0. -1.
        -12    1    4    4    0    0  0.50914416056E+02 -0.47918459263E+01  0.25641668784E+02  0.57207820512E+02  0.00000000000E+00 0.  1.
        -13    1    3    3    0    0  0.14691254088E+01 -0.33431022015E+02  0.24739741512E+02  0.41615458336E+02  0.00000000000E+00 0. -1.
         13    1    3    3    0    0 -0.51965629667E+02  0.50251122010E+02  0.79091351949E+02  0.10714963315E+03  0.00000000000E+00 0.  1.
         21    1    1    2  502  501 -0.61749027713E+01  0.32482980364E+02 -0.52036044921E+02  0.61652440411E+02  0.00000000000E+00 0. -1.
<scales pt_clust_5="13000.00000" pt_clust_6="13000.00000" pt_clust_7="13000.00000" pt_clust_8="13000.00000" pt_clust_9="33.06469"></scales>
<clustering>
<clus scale="   33.065">  2  9  1 -1</clus>
<clus scale="   79.748">  5  6 -1 -1</clus>
<clus scale="   92.289">  7  8 -1 -1</clus>
<clus scale="  101.905">  2  5  1 -1</clus>
<clus scale="   33.065">  2  5  1 -1</clus>
</clustering>
</event>
<event>
 9    1  0.2951046E-005  0.1153486E+03  0.7546771E-02  0.1254952E+00
          1   -1    0    0  502    0  0.00000000000E+00  0.00000000000E+00  0.27149493030E+03  0.27149493030E+03  0.00000000000E+00 0. -1.
         -2   -1    0    0    0  501 -0.00000000000E+00 -0.00000000000E+00 -0.29074501072E+03  0.29074501072E+03  0.00000000000E+00 0.  1.
        -24    2    1    2    0    0 -0.21317810167E+02  0.75777159489E+02 -0.23677927042E+03  0.26083264374E+03  0.75977748108E+02 0.  0.
         23    2    1    2    0    0  0.10904332266E+02 -0.52426614516E+02  0.23292836270E+02  0.10549545593E+03  0.87859436761E+02 0.  0.
         11    1    3    3    0    0 -0.21325589802E+02 -0.94920141222E+01 -0.64777226276E+02  0.68854688704E+02  0.00000000000E+00 0. -1.
        -12    1    3    3    0    0  0.77796352189E-02  0.85269173612E+02 -0.17200204415E+03  0.19197795503E+03  0.00000000000E+00 0.  1.
        -11    1    4    4    0    0 -0.20934691026E+02  0.15678326028E+02 -0.18567212995E+01  0.26220576069E+02  0.00000000000E+00 0.  1.
         11    1    4    4    0    0  0.31839023292E+02 -0.68104940543E+02  0.25149557570E+02  0.79274879858E+02  0.00000000000E+00 0. -1.
         21    1    1    2  502  501  0.10413477901E+02 -0.23350544974E+02  0.19423635373E+03  0.19591184136E+03  0.00000000000E+00 0. -1.
<scales pt_clust_5="13000.00000" pt_clust_6="13000.00000" pt_clust_7="13000.00000" pt_clust_8="13000.00000" pt_clust_9="25.56733"></scales>
<clustering>
<clus scale="   25.567">  1  9  2 -1</clus>
<clus scale="   75.978">  5  6 -1 -1</clus>
<clus scale="   87.859">  7  8 -1 -1</clus>
<clus scale="  106.577">  2  5  1 -1</clus>
<clus scale="   25.567">  1  5  2 -1</clus>
</clustering>
</event>
<event>
 9    1  0.2951046E-005  0.1597628E+03  0.7546771E-02  0.1212278E+00
         -2   -1    0    0    0  501 -0.00000000000E+00  0.00000000000E+00  0.50369800614E+03  0.50369800614E+03  0.00000000000E+00 0.  1.
          1   -1    0    0  502    0  0.00000000000E+00 -0.00000000000E+00 -0.21754826049E+03  0.21754826049E+03  0.00000000000E+00 0. -1.
         23    2    1    2    0    0  0.54437272499E-01  0.66629184174E+01  0.26718719150E+03  0.28402394397E+03  0.96105192378E+02 0.  0.
        -24    2    1    2    0    0  0.13570727172E+03 -0.68092510299E+01  0.17052794132E+03  0.23374424120E+03  0.84224474038E+02 0.  0.
         11    1    4    4    0    0  0.11118322718E+03  0.28606987041E+02  0.10665091995E+03  0.15669871869E+03  0.00000000000E+00 0. -1.
        -12    1    4    4    0    0  0.24524044541E+02 -0.35416238071E+02  0.63877021367E+02  0.77045522508E+02  0.00000000000E+00 0.  1.
        -13    1    3    3    0    0  0.11361047676E+02  0.43445245670E+02  0.70350657805E+02  0.83461235488E+02  0.00000000000E+00 0. -1.
         13    1    3    3    0    0 -0.11306610404E+02 -0.36782327253E+02  0.19683653370E+03  0.20056270849E+03  0.00000000000E+00 0.  1.
         21    1    1    2  502  501 -0.13576170899E+03  0.14633261251E+00 -0.15156538718E+03  0.20347808145E+03  0.00000000000E+00 0. -1.
<scales pt_clust_5="13000.00000" pt_clust_6="13000.00000" pt_clust_7="13000.00000" pt_clust_8="13000.00000" pt_clust_9="135.75853"></scales>
<clustering>
<clus scale="   84.224">  5  6 -1 -1</clus>
<clus scale="   96.105">  7  8 -1 -1</clus>
<clus scale="   96.336">  1  7  2 -1</clus>
<clus scale="  135.759">  2  9  1 -1</clus>
<clus scale="  135.759">  2  5  1 -1</clus>
</clustering>
</event>
<event>
 9    1  0.2951046E-005  0.9290956E+02  0.7546771E-02  0.1301032E+00
         -2   -1    0    0    0  501 -0.00000000000E+00  0.00000000000E+00  0.18546125034E+03  0.18546125034E+03  0.00000000000E+00 0.  1.
          1   -1    0    0  502    0  0.00000000000E+00 -0.00000000000E+00 -0.22478525877E+03  0.22478525877E+03  0.00000000000E+00 0. -1.
         23    2    1    2    0    0 -0.19197008487E+02 -0.12011925809E+02  0.10727498905E+03  0.14230385828E+03  0.90717436630E+02 0.  0.
        -24    2    1    2    0    0  0.20454433393E+02 -0.98174398931E+01  0.29713095299E+02  0.90279890565E+02  0.82175572020E+02 0.  0.
         13    1    4    4    0    0  0.31732830168E+02  0.25181262955E+02 -0.35906133340E+01  0.40668919565E+02  0.00000000000E+00 0. -1.
        -14    1    4    4    0    0 -0.11278396776E+02 -0.34998702848E+02  0.33303708633E+02  0.49610971000E+02  0.00000000000E+00 0.  1.
        -13    1    3    3    0    0 -0.43367871185E+02  0.23279014563E+02  0.69962721666E+02  0.85542195395E+02  0.00000000000E+00 0.  1.
         13    1    3    3    0    0  0.24170862698E+02 -0.35290940373E+02  0.37312267387E+02  0.56761662885E+02  0.00000000000E+00 0. -1.
         21    1    1    2  502  501 -0.12574249056E+01  0.21829365702E+02 -0.17631209279E+03  0.17766276027E+03  0.00000000000E+00 0. -1.
<scales pt_clust_5="13000.00000" pt_clust_6="13000.00000" pt_clust_7="13000.00000" pt_clust_8="13000.00000" pt_clust_9="21.86555"></scales>
<clustering>
<clus scale="   21.866">  2  9  1 -1</clus>
<clus scale="   82.176">  5  6 -1 -1</clus>
<clus scale="   84.589">  2  5  1 -1</clus>
<clus scale="   90.717">  7  8 -1 -1</clus>
<clus scale="   21.866">  2  5  1 -1</clus>
</clustering>
</event>
<event>
 9    1  0.2951046E-005  0.1612262E+03  0.7546771E-02  0.1188724E+00
         -2   -1    0    0    0  501 -0.00000000000E+00  0.00000000000E+00  0.11316258893E+03  0.11316258893E+03  0.00000000000E+00 0.  1.
          1   -1    0    0  502    0  0.00000000000E+00 -0.00000000000E+00 -0.97242914185E+03  0.97242914185E+03  0.00000000000E+00 0. -1.
        -24    2    1    2    0    0  0.24882049349E+02 -0.12532895220E+03  0.22281417546E+02  0.15316793177E+03  0.81470799151E+02 0.  0.
         23    2    1    2    0    0 -0.36417407679E+02  0.19641840047E+03 -0.76119267774E+03  0.79216628358E+03  0.90590907797E+02 0.  0.
         13    1    3    3    0    0  0.13021441750E+01 -0.27040222458E+02 -0.29129693036E+02  0.39766923773E+02  0.00000000000E+00 0. -1.
        -14    1    3    3    0    0  0.23579905174E+02 -0.98288729747E+02  0.51411110583E+02  0.11340100800E+03  0.00000000000E+00 0.  1.
        -11    1    4    4    0    0  0.15486267686E+02  0.64262520192E+02 -0.37324111338E+03  0.37904936975E+03  0.00000000000E+00 0.  1.
         11    1    4    4    0    0 -0.51903675365E+02  0.13215588027E+03 -0.38795156436E+03  0.41311691383E+03  0.00000000000E+00 0. -1.
         21    1    1    2  502  501  0.11535358330E+02 -0.71089448261E+02 -0.12035529273E+03  0.14025751543E+03  0.00000000000E+00 0. -1.
<scales pt_clust_5="13000.00000" pt_clust_6="13000.00000" pt_clust_7="13000.00000" pt_clust_8="13000.00000" pt_clust_9="72.01926"></scales>
<clustering>
<clus scale="   72.019">  2  9  1 -1</clus>
<clus scale="   81.471">  5  6 -1 -1</clus>
<clus scale="   90.591">  7  8 -1 -1</clus>
<clus scale="  156.284">  1  5  2 -1</clus>
<clus scale="   72.019">  2  5  1 -1</clus>
</clustering>
</event>
<event>
 9    1  0.2951046E-005  0.1052674E+03  0.7546771E-02  0.1273868E+00
         -2   -1    0    0    0  501 -0.00000000000E+00  0.00000000000E+00  0.86103057403E+02  0.86103057403E+02  0.00000000000E+00 0.  1.
          1   -1    0    0  502    0  0.00000000000E+00 -0.00000000000E+00 -0.25571879740E+03  0.25571879740E+03  0.00000000000E+00 0. -1.
         23    2    1    2    0    0  0.20426694811E+02 -0.91483173634E+02 -0.48613033206E+02  0.13938948304E+03  0.90993296819E+02 0.  0.
        -24    2    1    2    0    0 -0.24828004626E+01  0.14225985866E+02 -0.69509458543E+02  0.10786910711E+03  0.81213523936E+02 0.  0.
         11    1    4    4    0    0 -0.16969261376E+02  0.11475869756E+02 -0.84437268213E+02  0.86886729031E+02  0.00000000000E+00 0. -1.
        -12    1    4    4    0    0  0.14486460913E+02  0.27501161093E+01  0.14927809670E+02  0.20982378081E+02  0.00000000000E+00 0.  1.
        -13    1    3    3    0    0  0.49103671545E+02 -0.24348539228E+02 -0.67176102807E+01  0.55219092800E+02  0.00000000000E+00 0. -1.
         13    1    3    3    0    0 -0.28676976734E+02 -0.67134634406E+02 -0.41895422925E+02  0.84170390242E+02  0.00000000000E+00 0.  1.
         21    1    1    2  502  501 -0.17943894348E+02  0.77257187768E+02 -0.51493248249E+02  0.94563264651E+02  0.00000000000E+00 0. -1.
<scales pt_clust_5="13000.00000" pt_clust_6="13000.00000" pt_clust_7="13000.00000" pt_clust_8="13000.00000" pt_clust_9="79.31366"></scales>
<clustering>
<clus scale="   79.314">  2  9  1 -1</clus>
<clus scale="   81.214">  5  6 -1 -1</clus>
<clus scale="   90.993">  7  8 -1 -1</clus>
<clus scale="   96.939">  2  5  1 -1</clus>
<clus scale="   79.314">  2  5  1 -1</clus>
</clustering>
</event>
<event>
 9    1  0.2951046E-005  0.1525790E+03  0.7546771E-02  0.1228273E+00
         -2   -1    0    0    0  501 -0.00000000000E+00  0.00000000000E+00  0.49508164648E+03  0.49508164648E+03  0.00000000000E+00 0.  1.
          1   -1    0    0  502    0  0.00000000000E+00 -0.00000000000E+00 -0.10065260172E+03  0.10065260172E+03  0.00000000000E+00 0. -1.
        -24    2    1    2    0    0  0.16050865454E+02  0.40036440567E+00  0.28765849716E+03  0.29832423110E+03  0.77408948452E+02 0.  0.
         23    2    1    2    0    0  0.60020736085E+02 -0.10013674760E+03  0.81917940006E+02  0.16953552083E+03  0.91661807466E+02 0.  0.
         13    1    3    3    0    0 -0.14231165991E+01  0.22288403329E+02  0.22541569200E+02  0.31732011058E+02  0.00000000000E+00 0. -1.
        -14    1    3    3    0    0  0.17473982053E+02 -0.21888038923E+02  0.26511692796E+03  0.26659222004E+03  0.00000000000E+00 0.  1.
        -13    1    4    4    0    0  0.87130441224E+01 -0.68589492830E+02  0.16210035039E+01  0.69159694309E+02  0.00000000000E+00 0.  1.
         13    1    4    4    0    0  0.51307691963E+02 -0.31547254771E+02  0.80296936502E+02  0.10037582652E+03  0.00000000000E+00 0. -1.
         21    1    1    2  502  501 -0.76071601540E+02  0.99736383195E+02  0.24852607592E+02  0.12787449628E+03  0.00000000000E+00 0. -1.
<scales pt_clust_5="13000.00000" pt_clust_6="13000.00000" pt_clust_7="13000.00000" pt_clust_8="13000.00000" pt_clust_9="121.97727"></scales>
<clustering>
<clus scale="   77.409">  5  6 -1 -1</clus>
<clus scale="   79.057">  1  5  2 -1</clus>
<clus scale="   91.662">  7  8 -1 -1</clus>
<clus scale="  121.977">  2  9  1 -1</clus>
<clus scale="  121.977">  2  5  1 -1</clus>
</clustering>
</event>
<event>
 9    1  0.2951046E-005  0.1277263E+03  0.7546771E-02  0.1234472E+00
          1   -1    0    0  502    0  0.00000000000E+00  0.00000000000E+00  0.36911970505E+03  0.36911970505E+03  0.00000000000E+00 0. -1.
         -2   -1    0    0    0  501 -0.00000000000E+00 -0.00000000000E+00 -0.12339320390E+03  0.12339320390E+03  0.00000000000E+00 0.  1.
        -24    2    1    2    0    0 -0.83463445241E+02 -0.87027888470E+01 -0.63277369103E+02  0.13198077468E+03  0.79831160705E+02 0.  0.
         23    2    1    2    0    0  0.11752911953E+03 -0.19000181671E+01  0.24149458252E+03  0.28417512012E+03  0.92839439363E+02 0.  0.
         11    1    3    3    0    0 -0.33974742794E+02  0.34199359566E+02 -0.14574765303E+02  0.50361722828E+02  0.00000000000E+00 0. -1.
        -12    1    3    3    0    0 -0.49488702448E+02 -0.42902148413E+02 -0.48702603800E+02  0.81619051852E+02  0.00000000000E+00 0.  1.
        -13    1    4    4    0    0  0.23782609309E+02  0.77914308253E+01  0.91062416565E-01  0.25026529768E+02  0.00000000000E+00 0.  1.
         13    1    4    4    0    0  0.93746510217E+02 -0.96914489923E+01  0.24140352011E+03  0.25914859035E+03  0.00000000000E+00 0. -1.
         21    1    1    2  502  501 -0.34065674285E+02  0.10602807014E+02  0.67509287724E+02  0.76357014151E+02  0.00000000000E+00 0. -1.
<scales pt_clust_5="13000.00000" pt_clust_6="13000.00000" pt_clust_7="13000.00000" pt_clust_8="13000.00000" pt_clust_9="35.67758"></scales>
<clustering>
<clus scale="   35.678">  1  9  2 -1</clus>
<clus scale="   79.831">  5  6 -1 -1</clus>
<clus scale="   92.839">  7  8 -1 -1</clus>
<clus scale="  118.608">  2  5  1 -1</clus>
<clus scale="   35.678">  1  5  2 -1</clus>
</clustering>
</event>
<event>
 9    1  0.2951046E-005  0.1012512E+03  0.7546771E-02  0.1282570E+00
         -4   -1    0    0    0  501 -0.00000000000E+00  0.00000000000E+00  0.39837620624E+03  0.39837620624E+03  0.00000000000E+00 0.  1.
          3   -1    0    0  502    0  0.00000000000E+00 -0.00000000000E+00 -0.44578330135E+02  0.44578330135E+02  0.00000000000E+00 0. -1.
        -24    2    1    2    0    0 -0.17220031655E+02  0.55470965481E+02  0.24383781096E+03  0.26318313516E+03  0.80217997221E+02 0.  0.
         23    2    1    2    0    0 -0.15925451967E+02 -0.21510371931E+02  0.79991639679E+02  0.12364608140E+03  0.90406719369E+02 0.  0.
         11    1    3    3    0    0 -0.49493051088E+02  0.29552746310E+02  0.14248249031E+03  0.15370161666E+03  0.00000000000E+00 0. -1.
        -12    1    3    3    0    0  0.32273019433E+02  0.25918219172E+02  0.10135532065E+03  0.10948151850E+03  0.00000000000E+00 0.  1.
        -13    1    4    4    0    0  0.18115871705E+02  0.18741616575E+02  0.63128370635E+02  0.68298053987E+02  0.00000000000E+00 0.  1.
         13    1    4    4    0    0 -0.34041323672E+02 -0.40251988506E+02  0.16863269045E+02  0.55348027417E+02  0.00000000000E+00 0. -1.
         21    1    1    2  502  501  0.33145483622E+02 -0.33960593550E+02  0.29968425467E+02  0.56125319810E+02  0.00000000000E+00 0.  1.
<scales pt_clust_5="13000.00000" pt_clust_6="13000.00000" pt_clust_7="13000.00000" pt_clust_8="13000.00000" pt_clust_9="47.45466"></scales>
<clustering>
<clus scale="   47.455">  2  9  1 -1</clus>
<clus scale="   80.218">  5  6 -1 -1</clus>
<clus scale="   90.407">  7  8 -1 -1</clus>
<clus scale="   92.268">  1  5  2 -1</clus>
<clus scale="   47.455">  2  5  1 -1</clus>
</clustering>
</event>
<event>
 9    1  0.2951046E-005  0.9428834E+02  0.7546771E-02  0.1298350E+00
          1   -1    0    0  502    0  0.00000000000E+00  0.00000000000E+00  0.60681347655E+02  0.60681347655E+02  0.00000000000E+00 0. -1.
         -2   -1    0    0    0  501 -0.00000000000E+00 -0.00000000000E+00 -0.56559023968E+03  0.56559023968E+03  0.00000000000E+00 0.  1.
        -24    2    1    2    0    0 -0.23669322509E+02 -0.10844903818E+02 -0.49399929562E+03  0.50138937952E+03  0.81719991790E+02 0.  0.
         23    2    1    2    0    0 -0.20580644169E+01  0.37144056743E+01 -0.24904429866E+02  0.94739251663E+02  0.91308612628E+02 0.  0.
         11    1    3    3    0    0 -0.47121214395E+02 -0.44686049667E+01 -0.16960199774E+03  0.17608297736E+03  0.00000000000E+00 0. -1.
        -12    1    3    3    0    0  0.23451891886E+02 -0.63762988518E+01 -0.32439729788E+03  0.32530640217E+03  0.00000000000E+00 0.  1.
        -11    1    4    4    0    0 -0.43858696352E+02 -0.11287279700E+02 -0.34543498743E+01  0.45419384207E+02  0.00000000000E+00 0.  1.
         11    1    4    4    0    0  0.41800631935E+02  0.15001685374E+02 -0.21450079991E+02  0.49319867456E+02  0.00000000000E+00 0. -1.
         21    1    1    2  502  501  0.25727386926E+02  0.71304981441E+01  0.13994833461E+02  0.30142956149E+02  0.00000000000E+00 0.  1.
<scales pt_clust_5="13000.00000" pt_clust_6="13000.00000" pt_clust_7="13000.00000" pt_clust_8="13000.00000" pt_clust_9="26.69724"></scales>
<clustering>
<clus scale="   26.697">  1  9  2 -1</clus>
<clus scale="   81.720">  5  6 -1 -1</clus>
<clus scale="   85.036">  2  5  1 -1</clus>
<clus scale="   91.309">  7  8 -1 -1</clus>
<clus scale="   26.697">  1  5  2 -1</clus>
</clustering>
</event>
<event>
 9    1  0.2951046E-005  0.1220121E+03  0.7546771E-02  0.1242091E+00
          1   -1    0    0  502    0  0.00000000000E+00  0.00000000000E+00  0.11504607737E+04  0.11504607737E+04  0.00000000000E+00 0. -1.
         -2   -1    0    0    0  501 -0.00000000000E+00 -0.00000000000E+00 -0.26355126800E+02  0.26355126800E+02  0.00000000000E+00 0.  1.
         23    2    1    2    0    0 -0.71179698307E+02 -0.26301444518E+02  0.17098106890E+03  0.20700028795E+03  0.88635646619E+02 0.  0.
        -24    2    1    2    0    0  0.10838830643E+03  0.29995313566E+02  0.66509547659E+03  0.67936959616E+03  0.80890737362E+02 0.  0.
         11    1    4    4    0    0  0.93834550635E+02 -0.11490579244E+02  0.46067569467E+03  0.47027550644E+03  0.00000000000E+00 0. -1.
        -12    1    4    4    0    0  0.14553755792E+02  0.41485892810E+02  0.20441978193E+03  0.20909408971E+03  0.00000000000E+00 0.  1.
        -11    1    3    3    0    0 -0.34331918860E+02  0.14554484905E+02  0.12640793018E+02  0.39373891497E+02  0.00000000000E+00 0.  1.
         11    1    3    3    0    0 -0.36847779447E+02 -0.40855929423E+02  0.15834027589E+03  0.16762639645E+03  0.00000000000E+00 0. -1.
         21    1    1    2  502  501 -0.37208608119E+02 -0.36938690478E+01  0.28802910142E+03  0.29044601642E+03  0.00000000000E+00 0.  1.
<scales pt_clust_5="13000.00000" pt_clust_6="13000.00000" pt_clust_7="13000.00000" pt_clust_8="13000.00000" pt_clust_9="37.39151"></scales>
<clustering>
<clus scale="   37.392">  1  9  2 -1</clus>
<clus scale="   80.891">  5  6 -1 -1</clus>
<clus scale="   88.636">  7  8 -1 -1</clus>
<clus scale="  116.507">  1  5  2 -1</clus>
<clus scale="   37.392">  1  5  2 -1</clus>
</clustering>
</event>
<event>
 9    1  0.2951046E-005  0.9768324E+02  0.7546771E-02  0.1291643E+00
          1   -1    0    0  502    0  0.00000000000E+00  0.00000000000E+00  0.64264155599E+02  0.64264155599E+02  0.00000000000E+00 0. -1.
         -2   -1    0    0    0  501 -0.00000000000E+00 -0.00000000000E+00 -0.39170878188E+03  0.39170878188E+03  0.00000000000E+00 0.  1.
        -24    2    1    2    0    0  0.25381279358E+01 -0.23099746614E+02 -0.28014986179E+03  0.29230415510E+03  0.80110758588E+02 0.  0.
         23    2    1    2    0    0 -0.30556291111E+02  0.18574584613E+02  0.10559875982E+02  0.99227693131E+02  0.91956087256E+02 0.  0.
         13    1    3    3    0    0 -0.20912568990E+02  0.14698256676E+01 -0.17053198126E+02  0.27024202034E+02  0.00000000000E+00 0. -1.
        -14    1    3    3    0    0  0.23450696925E+02 -0.24569572281E+02 -0.26309666367E+03  0.26527995307E+03  0.00000000000E+00 0.  1.
        -13    1    4    4    0    0  0.14470018797E+02  0.42741958563E+02  0.15907068161E+02  0.47846538885E+02  0.00000000000E+00 0.  1.
         13    1    4    4    0    0 -0.45026309908E+02 -0.24167373949E+02 -0.53471921788E+01  0.51381154247E+02  0.00000000000E+00 0. -1.
         21    1    1    2  502  501  0.28018163175E+02  0.45251620003E+01 -0.57854640467E+02  0.64441089240E+02  0.00000000000E+00 0.  1.
<scales pt_clust_5="13000.00000" pt_clust_6="13000.00000" pt_clust_7="13000.00000" pt_clust_8="13000.00000" pt_clust_9="28.38124"></scales>
<clustering>
<clus scale="   28.381">  2  9  1 -1</clus>
<clus scale="   80.111">  5  6 -1 -1</clus>
<clus scale="   86.625">  2  5  1 -1</clus>
<clus scale="   91.956">  7  8 -1 -1</clus>
<clus scale="   97.683">  1  5  2 -1</clus>
</clustering>
</event>
<event>
 9    1  0.2951046E-005  0.1205837E+03  0.7546771E-02  0.1247461E+00
         -2   -1    0    0    0  501 -0.00000000000E+00  0.00000000000E+00  0.66002420499E+03  0.66002420499E+03  0.00000000000E+00 0.  1.
          1   -1    0    0  502    0  0.00000000000E+00 -0.00000000000E+00 -0.66751638075E+02  0.66751638075E+02  0.00000000000E+00 0. -1.
        -24    2    1    2    0    0  0.55004833403E+02 -0.56553186021E+02  0.57625931894E+03  0.58662126631E+03  0.76327667891E+02 0.  0.
         23    2    1    2    0    0 -0.26896052379E+02  0.52843093105E+02  0.84984707093E+01  0.11055103317E+03  0.92916719750E+02 0.  0.
         11    1    3    3    0    0  0.12435287655E+02 -0.19002817218E+02  0.31070610800E+02  0.38485403684E+02  0.00000000000E+00 0. -1.
        -12    1    3    3    0    0  0.42569545748E+02 -0.37550368803E+02  0.54518870814E+03  0.54813586263E+03  0.00000000000E+00 0.  1.
        -13    1    4    4    0    0 -0.47056895255E+02 -0.47006092583E+01  0.14027373523E+02  0.49327622347E+02  0.00000000000E+00 0.  1.
         13    1    4    4    0    0  0.20160842875E+02  0.57543702363E+02 -0.55289028141E+01  0.61223410828E+02  0.00000000000E+00 0. -1.
         21    1    1    2  502  501 -0.28108781024E+02  0.37100929157E+01  0.85147772669E+01  0.29603543572E+02  0.00000000000E+00 0.  1.
<scales pt_clust_5="13000.00000" pt_clust_6="13000.00000" pt_clust_7="13000.00000" pt_clust_8="13000.00000" pt_clust_9="28.35257"></scales>
<clustering>
<clus scale="   28.353">  2  9  1 -1</clus>
<clus scale="   76.328">  5  6 -1 -1</clus>
<clus scale="   92.917">  7  8 -1 -1</clus>
<clus scale="  108.318">  1  5  2 -1</clus>
<clus scale="   28.353">  2  5  1 -1</clus>
</clustering>
</event>
<event>
 9    1  0.2951046E-005  0.9311064E+02  0.7546771E-02  0.1302381E+00
         -2   -1    0    0    0  501 -0.00000000000E+00  0.00000000000E+00  0.59473640140E+02  0.59473640140E+02  0.00000000000E+00 0.  1.
          1   -1    0    0  502    0  0.00000000000E+00 -0.00000000000E+00 -0.34684677469E+03  0.34684677469E+03  0.00000000000E+00 0. -1.
        -24    2    1    2    0    0 -0.10107002657E+02  0.11565005815E+02  0.82658001049E+01  0.82637352302E+02  0.80775662684E+02 0.  0.
         23    2    1    2    0    0 -0.22720332599E+02 -0.21224828851E+02 -0.20696004405E+03  0.22863101489E+03  0.92048760249E+02 0.  0.
         11    1    3    3    0    0  0.12871501441E+02 -0.31095438744E+02  0.12563063745E+01  0.33677591448E+02  0.00000000000E+00 0. -1.
        -12    1    3    3    0    0 -0.22978504098E+02  0.42660444559E+02  0.70094937304E+01  0.48959760854E+02  0.00000000000E+00 0.  1.
        -13    1    4    4    0    0 -0.41431570529E+02  0.65407248834E+01 -0.38695003006E+02  0.57067147959E+02  0.00000000000E+00 0.  1.
         13    1    4    4    0    0  0.18711237930E+02 -0.27765553734E+02 -0.16826504104E+03  0.17156386693E+03  0.00000000000E+00 0. -1.
         21    1    1    2  502  501  0.32827335256E+02  0.96598230362E+01 -0.88678890606E+02  0.95052047638E+02  0.00000000000E+00 0.  1.
<scales pt_clust_5="13000.00000" pt_clust_6="13000.00000" pt_clust_7="13000.00000" pt_clust_8="13000.00000" pt_clust_9="34.21909"></scales>
<clustering>
<clus scale="   34.219">  2  9  1 -1</clus>
<clus scale="   80.776">  5  6 -1 -1</clus>
<clus scale="   81.984">  1  5  2 -1</clus>
<clus scale="   92.049">  7  8 -1 -1</clus>
<clus scale="   34.219">  2  5  1 -1</clus>
</clustering>
</event>
<event>
 9    1  0.2951046E-005  0.1153774E+03  0.7546771E-02  0.1258445E+00
         -2   -1    0    0    0  501 -0.00000000000E+00  0.00000000000E+00  0.45277058831E+03  0.45277058831E+03  0.00000000000E+00 0.  1.
          1   -1    0    0  502    0  0.00000000000E+00 -0.00000000000E+00 -0.43993874461E+02  0.43993874461E+02  0.00000000000E+00 0. -1.
        -24    2    1    2    0    0  0.64662564263E+02 -0.54163683756E+01  0.30124488770E+03  0.31854721168E+03  0.80704767158E+02 0.  0.
         23    2    1    2    0    0 -0.35973181142E+02 -0.12976742473E+02  0.70988281481E+02  0.12824908234E+03  0.99729761897E+02 0.  0.
         13    1    3    3    0    0  0.63349523383E+02 -0.81885302017E+01  0.10943789638E+03  0.12671569478E+03  0.00000000000E+00 0. -1.
        -14    1    3    3    0    0  0.13130408796E+01  0.27721618260E+01  0.19180699132E+03  0.19183151690E+03  0.00000000000E+00 0.  1.
        -11    1    4    4    0    0 -0.33618076216E+02 -0.39039638083E+02 -0.11275997465E+01  0.51531930599E+02  0.00000000000E+00 0. -1.
         11    1    4    4    0    0 -0.23551049260E+01  0.26062895610E+02  0.72115881227E+02  0.76717151746E+02  0.00000000000E+00 0.  1.
         21    1    1    2  502  501 -0.28689383121E+02  0.18393110849E+02  0.36543544667E+02  0.49968168742E+02  0.00000000000E+00 0. -1.
<scales pt_clust_5="13000.00000" pt_clust_6="13000.00000" pt_clust_7="13000.00000" pt_clust_8="13000.00000" pt_clust_9="34.07913"></scales>
<clustering>
<clus scale="   34.079">  2  9  1 -1</clus>
<clus scale="   80.705">  5  6 -1 -1</clus>
<clus scale="   99.394">  1  5  2 -1</clus>
<clus scale="   99.730">  7  8 -1 -1</clus>
<clus scale="   34.079">  2  5  1 -1</clus>
</clustering>
</event>
<event>
 9    1  0.2951046E-005  0.1166858E+03  0.7546771E-02  0.1253082E+00
         -2   -1    0    0    0  501 -0.00000000000E+00  0.00000000000E+00  0.13145203420E+02  0.13145203420E+02  0.00000000000E+00 0.  1.
          1   -1    0    0  502    0  0.00000000000E+00 -0.00000000000E+00 -0.13111413731E+04  0.13111413731E+04  0.00000000000E+00 0. -1.
         23    2    1    2    0    0  0.10145399499E+02  0.62711993771E+02 -0.43601907474E+03  0.45027949117E+03  0.92753778026E+02 0.  0.
        -24    2    1    2    0    0  0.98569087041E+01 -0.82903099214E+02 -0.66300885762E+03  0.67301919384E+03  0.80025042840E+02 0.  0.
         13    1    4    4    0    0  0.44115941811E+02 -0.51234005597E+02 -0.33984820969E+03  0.34650821820E+03  0.00000000000E+00 0. -1.
        -14    1    4    4    0    0 -0.34259033107E+02 -0.31669093617E+02 -0.32316064793E+03  0.32651097564E+03  0.00000000000E+00 0.  1.
        -11    1    3    3    0    0  0.31310528122E+02  0.77790091069E+02 -0.36877719911E+03  0.37819078522E+03  0.00000000000E+00 0. -1.
         11    1    3    3    0    0 -0.21165128624E+02 -0.15078097298E+02 -0.67241875625E+02  0.72088705949E+02  0.00000000000E+00 0.  1.
         21    1    1    2  502  501 -0.20002308203E+02  0.20191105443E+02 -0.19896823736E+03  0.20098789155E+03  0.00000000000E+00 0.  1.
<scales pt_clust_5="13000.00000" pt_clust_6="13000.00000" pt_clust_7="13000.00000" pt_clust_8="13000.00000" pt_clust_9="28.42135"></scales>
<clustering>
<clus scale="   28.421">  2  9  1 -1</clus>
<clus scale="   80.025">  5  6 -1 -1</clus>
<clus scale="   92.754">  7  8 -1 -1</clus>
<clus scale="  106.847">  2  5  1 -1</clus>
<clus scale="   28.421">  2  5  1 -1</clus>
</clustering>
</event>
<event>
 9    1  0.2951046E-005  0.9388331E+02  0.7546771E-02  0.1299600E+00
          1   -1    0    0  502    0  0.00000000000E+00  0.00000000000E+00  0.91572280793E+02  0.91572280793E+02  0.00000000000E+00 0. -1.
         -2   -1    0    0    0  501 -0.00000000000E+00 -0.00000000000E+00 -0.14181939864E+03  0.14181939864E+03  0.00000000000E+00 0.  1.
        -24    2    1    2    0    0 -0.50807664081E+01  0.24044200020E+02 -0.72389017378E+02  0.11120009477E+03  0.80754897667E+02 0.  0.
         23    2    1    2    0    0  0.26095513599E+02 -0.13447053520E+02  0.10791949710E+02  0.96062281681E+02  0.90827841022E+02 0.  0.
         13    1    3    3    0    0 -0.56574455277E+01  0.35153652423E+02  0.23066244825E+01  0.35680617779E+02  0.00000000000E+00 0. -1.
        -14    1    3    3    0    0  0.57667911965E+00 -0.11109452403E+02 -0.74695641860E+02  0.75519476987E+02  0.00000000000E+00 0.  1.
        -11    1    4    4    0    0 -0.29749252974E+02  0.14355950172E+02  0.50459874122E+01  0.33415166419E+02  0.00000000000E+00 0.  1.
         11    1    4    4    0    0  0.55844766573E+02 -0.27803003692E+02  0.57459622975E+01  0.62647115262E+02  0.00000000000E+00 0. -1.
         21    1    1    2  502  501 -0.21014747191E+02 -0.10597146500E+02  0.11349949823E+02  0.26129302984E+02  0.00000000000E+00 0.  1.
<scales pt_clust_5="13000.00000" pt_clust_6="13000.00000" pt_clust_7="13000.00000" pt_clust_8="13000.00000" pt_clust_9="23.53549"></scales>
<clustering>
<clus scale="   23.535">  1  9  2 -1</clus>
<clus scale="   80.755">  5  6 -1 -1</clus>
<clus scale="   84.177">  2  5  1 -1</clus>
<clus scale="   90.828">  7  8 -1 -1</clus>
<clus scale="   23.535">  1  5  2 -1</clus>
</clustering>
</event>
<event>
 9    1  0.2951046E-005  0.2782976E+03  0.7546771E-02  0.1097156E+00
          1   -1    0    0  502    0  0.00000000000E+00  0.00000000000E+00  0.16828540361E+03  0.16828540361E+03  0.00000000000E+00 0. -1.
         -2   -1    0    0    0  501 -0.00000000000E+00 -0.00000000000E+00 -0.15086062976E+04  0.15086062976E+04  0.00000000000E+00 0.  1.
         23    2    1    2    0    0  0.31081056487E+02  0.26740693975E+03 -0.12439458076E+04  0.12760831946E+04  0.92274827634E+02 0.  0.
        -24    2    1    2    0    0  0.82569896770E+02 -0.22092707684E+03 -0.73333079463E+01  0.24913334339E+03  0.79919235777E+02 0.  0.
         11    1    4    4    0    0  0.68778616059E+02 -0.82588178478E+02  0.14340115564E+02  0.10842944326E+03  0.00000000000E+00 0. -1.
        -12    1    4    4    0    0  0.13791280710E+02 -0.13833889837E+03 -0.21673423510E+02  0.14070390013E+03  0.00000000000E+00 0.  1.
        -11    1    3    3    0    0  0.55279465083E+02  0.97467499829E+02 -0.44318627415E+03  0.45713215417E+03  0.00000000000E+00 0.  1.
         11    1    3    3    0    0 -0.24198408596E+02  0.16993943992E+03 -0.80075953348E+03  0.81895104047E+03  0.00000000000E+00 0. -1.
         21    1    1    2  502  501 -0.11365095326E+03 -0.46479862903E+02 -0.89041778463E+02  0.15167516324E+03  0.00000000000E+00 0.  1.
<scales pt_clust_5="13000.00000" pt_clust_6="13000.00000" pt_clust_7="13000.00000" pt_clust_8="13000.00000" pt_clust_9="122.78810"></scales>
<clustering>
<clus scale="   79.919">  5  6 -1 -1</clus>
<clus scale="   92.275">  7  8 -1 -1</clus>
<clus scale="  122.788">  1  9  2 -1</clus>
<clus scale="  274.449">  1  5  2 -1</clus>
<clus scale="  122.788">  1  5  2 -1</clus>
</clustering>
</event>
<event>
 9    1  0.2951046E-005  0.1044057E+03  0.7546771E-02  0.1276686E+00
          1   -1    0    0  502    0  0.00000000000E+00  0.00000000000E+00  0.92712811622E+03  0.92712811622E+03  0.00000000000E+00 0. -1.
         -2   -1    0    0    0  501 -0.00000000000E+00 -0.00000000000E+00 -0.21520747532E+02  0.21520747532E+02  0.00000000000E+00 0.  1.
        -24    2    1    2    0    0  0.42756913501E+02  0.22523574472E+02  0.13270621130E+03  0.16058923590E+03  0.76436242119E+02 0.  0.
         23    2    1    2    0    0 -0.69969308923E+02 -0.40794904247E+02  0.57031574933E+03  0.58283973722E+03  0.88781625008E+02 0.  0.
         11    1    3    3    0    0  0.64389212676E+02  0.22386018829E+02  0.92150692129E+02  0.11462484289E+03  0.00000000000E+00 0. -1.
        -12    1    3    3    0    0 -0.21632299175E+02  0.13755564328E+00  0.40555519172E+02  0.45964393006E+02  0.00000000000E+00 0.  1.
        -13    1    4    4    0    0 -0.82446064818E+02 -0.80343795021E+01  0.44825056551E+03  0.45584040446E+03  0.00000000000E+00 0.  1.
         13    1    4    4    0    0  0.12476755895E+02 -0.32760524745E+02  0.12206518382E+03  0.12699933275E+03  0.00000000000E+00 0. -1.
         21    1    1    2  502  501  0.27212395421E+02  0.18271329775E+02  0.20258540806E+03  0.20521989064E+03  0.00000000000E+00 0.  1.
<scales pt_clust_5="13000.00000" pt_clust_6="13000.00000" pt_clust_7="13000.00000" pt_clust_8="13000.00000" pt_clust_9="32.77737"></scales>
<clustering>
<clus scale="   32.777">  1  9  2 -1</clus>
<clus scale="   76.436">  5  6 -1 -1</clus>
<clus scale="   88.782">  7  8 -1 -1</clus>
<clus scale="   94.132">  2  5  1 -1</clus>
<clus scale="   32.777">  1  5  2 -1</clus>
</clustering>
</event>
<event>
 9    1  0.2951046E-005  0.5703553E+03  0.7546771E-02  0.1040089E+00
         -2   -1    0    0    0  501 -0.00000000000E+00  0.00000000000E+00  0.37580910960E+03  0.37580910960E+03  0.00000000000E+00 0.  1.
          1   -1    0    0  502    0  0.00000000000E+00 -0.00000000000E+00 -0.20877408676E+04  0.20877408676E+04  0.00000000000E+00 0. -1.
        -24    2    1    2    0    0 -0.47912144207E+03  0.33816223657E+03  0.43839300868E+02  0.59481230464E+03  0.89267793479E+02 0.  0.
         23    2    1    2    0    0  0.12137901711E+03 -0.36219897244E+02 -0.65122692607E+03  0.66908498940E+03  0.86795547415E+02 0.  0.
         11    1    3    3    0    0 -0.55377709063E+02  0.39628194146E+02 -0.23663691300E+02  0.72090600763E+02  0.00000000000E+00 0. -1.
        -12    1    3    3    0    0 -0.42374373301E+03  0.29853404243E+03  0.67502992168E+02  0.52272170388E+03  0.00000000000E+00 0.  1.
        -13    1    4    4    0    0 -0.79612452311E+01 -0.21784657138E+02 -0.11183506125E+03  0.11421485734E+03  0.00000000000E+00 0.  1.
         13    1    4    4    0    0  0.12934026234E+03 -0.14435240106E+02 -0.53939186482E+03  0.55487013206E+03  0.00000000000E+00 0. -1.
         21    1    1    2  502  501  0.35774242496E+03 -0.30194233933E+03 -0.11045441328E+04  0.11996526831E+04  0.00000000000E+00 0. -1.
<scales pt_clust_5="13000.00000" pt_clust_6="13000.00000" pt_clust_7="13000.00000" pt_clust_8="13000.00000" pt_clust_9="563.32627"></scales>
<clustering>
<clus scale="   86.796">  7  8 -1 -1</clus>
<clus scale="   89.268">  5  6 -1 -1</clus>
<clus scale="  153.552">  2  7  1 -1</clus>
<clus scale="  563.326">  2  9  1 -1</clus>
<clus scale="  153.552">  2  5  1 -1</clus>
</clustering>
</event>
<event>
 9    1  0.2951046E-005  0.1255683E+03  0.7546771E-02  0.1237759E+00
         -2   -1    0    0    0  501 -0.00000000000E+00  0.00000000000E+00  0.13456620715E+03  0.13456620715E+03  0.00000000000E+00 0.  1.
          1   -1    0    0  502    0  0.00000000000E+00 -0.00000000000E+00 -0.39364286005E+03  0.39364286005E+03  0.00000000000E+00 0. -1.
        -24    2    1    2    0    0 -0.20004673123E+02  0.41893053047E+02  0.74001234544E+02  0.11864873118E+03  0.80287756574E+02 0.  0.
         23    2    1    2    0    0  0.79088325564E+02 -0.44407150860E+02 -0.32494463062E+03  0.34986654623E+03  0.92685645651E+02 0.  0.
         13    1    3    3    0    0 -0.30950555114E+02  0.21344602570E+02 -0.34680820483E+01  0.37756542663E+02  0.00000000000E+00 0. -1.
        -14    1    3    3    0    0  0.10945881991E+02  0.20548450477E+02  0.77469316592E+02  0.80892188515E+02  0.00000000000E+00 0.  1.
        -13    1    4    4    0    0  0.10108704129E+02  0.27213610137E+02 -0.95154226113E+02  0.99484135534E+02  0.00000000000E+00 0.  1.
         13    1    4    4    0    0  0.68979621434E+02 -0.71620760997E+02 -0.22979040451E+03  0.25038241069E+03  0.00000000000E+00 0. -1.
         21    1    1    2  502  501 -0.59083652441E+02  0.25140978124E+01 -0.81332568229E+01  0.59693789795E+02  0.00000000000E+00 0. -1.
<scales pt_clust_5="13000.00000" pt_clust_6="13000.00000" pt_clust_7="13000.00000" pt_clust_8="13000.00000" pt_clust_9="59.13712"></scales>
<clustering>
<clus scale="   59.137">  1  9  2 -1</clus>
<clus scale="   80.288">  5  6 -1 -1</clus>
<clus scale="   92.686">  7  8 -1 -1</clus>
<clus scale="  116.717">  1  5  2 -1</clus>
<clus scale="  125.568">  2  5  1 -1</clus>
</clustering>
</event>
<event>
 9    1  0.2951046E-005  0.1793922E+03  0.7546771E-02  0.1169789E+00
         -2   -1    0    0    0  501 -0.00000000000E+00  0.00000000000E+00  0.18331181446E+03  0.18331181446E+03  0.00000000000E+00 0.  1.
          1   -1    0    0  502    0  0.00000000000E+00 -0.00000000000E+00 -0.39839718033E+03  0.39839718033E+03  0.00000000000E+00 0. -1.
         23    2    1    2    0    0 -0.15025503569E+03  0.19856579212E+02  0.83516731787E+02  0.19500652341E+03  0.89897943219E+02 0.  0.
        -24    2    1    2    0    0  0.16495855168E+03 -0.36588491313E+02 -0.15737267355E+03  0.24372729698E+03  0.78017917449E+02 0.  0.
         13    1    4    4    0    0  0.42059582938E+02 -0.32980744125E+02 -0.14797024119E+02  0.55458903007E+02  0.00000000000E+00 0. -1.
        -14    1    4    4    0    0  0.12289896874E+03 -0.36077471881E+01 -0.14257564943E+03  0.18826839397E+03  0.00000000000E+00 0.  1.
        -11    1    3    3    0    0 -0.80326519718E+02 -0.22829553362E+02  0.75691145271E+02  0.11270620102E+03  0.00000000000E+00 0.  1.
         11    1    3    3    0    0 -0.69928515972E+02  0.42686132575E+02  0.78255865163E+01  0.82300322385E+02  0.00000000000E+00 0. -1.
         21    1    1    2  502  501 -0.14703515987E+02  0.16731912101E+02 -0.14122942410E+03  0.14297517441E+03  0.00000000000E+00 0. -1.
<scales pt_clust_5="13000.00000" pt_clust_6="13000.00000" pt_clust_7="13000.00000" pt_clust_8="13000.00000" pt_clust_9="22.27443"></scales>
<clustering>
<clus scale="   22.274">  2  9  1 -1</clus>
<clus scale="   78.018">  5  6 -1 -1</clus>
<clus scale="   89.898">  7  8 -1 -1</clus>
<clus scale="  173.743">  2  5  1 -1</clus>
<clus scale="   22.274">  2  5  1 -1</clus>
</clustering>
</event>
<event>
 9    1  0.2951046E-005  0.1950240E+03  0.7546771E-02  0.1155334E+00
          1   -1    0    0  502    0  0.00000000000E+00  0.00000000000E+00  0.27571610072E+03  0.27571610072E+03  0.00000000000E+00 0. -1.
         -2   -1    0    0    0  501 -0.00000000000E+00 -0.00000000000E+00 -0.25120535442E+03  0.25120535442E+03  0.00000000000E+00 0.  1.
         23    2    1    2    0    0  0.32865098666E+02 -0.10841835261E+03 -0.10861755988E+03  0.18304748973E+03  0.94201673490E+02 0.  0.
        -24    2    1    2    0    0 -0.44786726624E+02  0.18565925361E+03  0.15915997342E+03  0.26149721080E+03  0.81078263354E+02 0.  0.
         13    1    4    4    0    0 -0.51822068638E+02  0.19092026048E+03  0.14685761564E+03  0.24638025881E+03  0.00000000000E+00 0. -1.
        -14    1    4    4    0    0  0.70353420134E+01 -0.52610068765E+01  0.12302357783E+02  0.15116951995E+02  0.00000000000E+00 0.  1.
        -13    1    3    3    0    0  0.37975098939E+02 -0.24588020630E+02  0.63433738252E+00  0.45244682360E+02  0.00000000000E+00 0. -1.
         13    1    3    3    0    0 -0.51100002730E+01 -0.83830331982E+02 -0.10925189727E+03  0.13780280737E+03  0.00000000000E+00 0.  1.
         21    1    1    2  502  501  0.11921627958E+02 -0.77240900995E+02 -0.26031667237E+02  0.82376754602E+02  0.00000000000E+00 0.  1.
<scales pt_clust_5="13000.00000" pt_clust_6="13000.00000" pt_clust_7="13000.00000" pt_clust_8="13000.00000" pt_clust_9="78.15550"></scales>
<clustering>
<clus scale="   78.155">  2  9  1 -1</clus>
<clus scale="   81.078">  5  6 -1 -1</clus>
<clus scale="   94.202">  7  8 -1 -1</clus>
<clus scale="  189.035">  1  5  2 -1</clus>
<clus scale="  189.035">  1  5  2 -1</clus>
</clustering>
</event>
<event>
 9    1  0.4770782E-005  0.8846874E+02  0.7546771E-02  0.1306989E+00
         -4   -1    0    0    0  501 -0.00000000000E+00  0.00000000000E+00  0.35904576549E+03  0.35904576549E+03  0.00000000000E+00 0.  1.
          3   -1    0    0  502    0  0.00000000000E+00 -0.00000000000E+00 -0.17520434456E+03  0.17520434456E+03  0.00000000000E+00 0. -1.
        -24    2    1    2    0    0  0.17634933961E+02 -0.29562994029E+02  0.32840892547E+03  0.34019476825E+03  0.81823569357E+02 0.  0.
         23    2    1    2    0    0 -0.14456341242E+02  0.58544155499E+01 -0.14837355761E+03  0.16983373605E+03  0.81151249651E+02 0.  0.
         13    1    3    3    0    0 -0.12795745733E+02 -0.50316984921E+02  0.18881675507E+03  0.19582465901E+03  0.00000000000E+00 0. -1.
        -14    1    3    3    0    0  0.30430679695E+02  0.20753990893E+02  0.13959217041E+03  0.14437010925E+03  0.00000000000E+00 0.  1.
        -11    1    4    4    0    0 -0.40997233805E+02  0.25574467706E+02 -0.73205744631E+02  0.87714922476E+02  0.00000000000E+00 0.  1.
         11    1    4    4    0    0  0.26540892562E+02 -0.19720052156E+02 -0.75167812974E+02  0.82118813571E+02  0.00000000000E+00 0. -1.
         21    1    1    2  502  501 -0.31785927189E+01  0.23708578479E+02  0.38060530695E+01  0.24221605750E+02  0.00000000000E+00 0.  1.
<scales pt_clust_5="13000.00000" pt_clust_6="13000.00000" pt_clust_7="13000.00000" pt_clust_8="13000.00000" pt_clust_9="23.92071"></scales>
<clustering>
<clus scale="   23.921">  2  9  1 -1</clus>
<clus scale="   81.151">  7  8 -1 -1</clus>
<clus scale="   81.824">  5  6 -1 -1</clus>
<clus scale="   87.847">  2  7  1 -1</clus>
<clus scale="   23.921">  2  5  1 -1</clus>
</clustering>
</event>
<event>
 9    1  0.2951046E-005  0.2018087E+03  0.7546771E-02  0.1148789E+00
         -2   -1    0    0    0  501 -0.00000000000E+00  0.00000000000E+00  0.24762065409E+03  0.24762065409E+03  0.00000000000E+00 0.  1.
          1   -1    0    0  502    0  0.00000000000E+00 -0.00000000000E+00 -0.31345340018E+03  0.31345340018E+03  0.00000000000E+00 0. -1.
        -24    2    1    2    0    0  0.16861066939E+03  0.68475801113E+02  0.15041129933E+03  0.25029456977E+03  0.83098252207E+02 0.  0.
         23    2    1    2    0    0 -0.17132474763E+03 -0.45912607072E+02 -0.18025085069E+03  0.26821219646E+03  0.89371564335E+02 0.  0.
         13    1    3    3    0    0  0.11674776700E+02  0.38399179489E+02  0.26600618651E+02  0.48149665721E+02  0.00000000000E+00 0. -1.
        -14    1    3    3    0    0  0.15693589269E+03  0.30076621623E+02  0.12381068068E+03  0.20214490405E+03  0.00000000000E+00 0.  1.
        -13    1    4    4    0    0 -0.13863083238E+03 -0.71997832219E+02 -0.13353189667E+03  0.20550660077E+03  0.00000000000E+00 0. -1.
         13    1    4    4    0    0 -0.32693915255E+02  0.26085225147E+02 -0.46718954025E+02  0.62705595690E+02  0.00000000000E+00 0.  1.
         21    1    1    2  502  501  0.27140782458E+01 -0.22563194040E+02 -0.35993194716E+02  0.42567288049E+02  0.00000000000E+00 0.  1.
<scales pt_clust_5="13000.00000" pt_clust_6="13000.00000" pt_clust_7="13000.00000" pt_clust_8="13000.00000" pt_clust_9="22.72584"></scales>
<clustering>
<clus scale="   22.726">  2  9  1 -1</clus>
<clus scale="   83.098">  5  6 -1 -1</clus>
<clus scale="   89.372">  7  8 -1 -1</clus>
<clus scale="  199.110">  1  5  2 -1</clus>
<clus scale="   22.726">  2  5  1 -1</clus>
</clustering>
</event>
<event>
 9    1  0.2951046E-005  0.1704300E+03  0.7546771E-02  0.1195392E+00
          1   -1    0    0  502    0  0.00000000000E+00  0.00000000000E+00  0.60750000123E+02  0.60750000123E+02  0.00000000000E+00 0. -1.
         -2   -1    0    0    0  501 -0.00000000000E+00 -0.00000000000E+00 -0.85503542160E+03  0.85503542160E+03  0.00000000000E+00 0.  1.
         23    2    1    2    0    0  0.55711684161E+02  0.40159379964E+02 -0.31467779580E+03  0.33477361484E+03  0.91294525991E+02 0.  0.
        -24    2    1    2    0    0 -0.84391590473E+02  0.11866452608E+03 -0.25250629766E+03  0.30240350955E+03  0.80530999843E+02 0.  0.
         13    1    4    4    0    0 -0.52532554380E+02  0.12338485622E+03 -0.19961266928E+03  0.24047600661E+03  0.00000000000E+00 0. -1.
        -14    1    4    4    0    0 -0.31859036093E+02 -0.47203301456E+01 -0.52893628381E+02  0.61927502943E+02  0.00000000000E+00 0.  1.
        -13    1    3    3    0    0 -0.19278503757E+02  0.15344576829E+02 -0.27468466691E+02  0.36900317174E+02  0.00000000000E+00 0. -1.
         13    1    3    3    0    0  0.74990187918E+02  0.24814803135E+02 -0.28720932911E+03  0.29787329767E+03  0.00000000000E+00 0.  1.
         21    1    1    2  502  501  0.28679906312E+02 -0.15882390604E+03 -0.22710132802E+03  0.27860829733E+03  0.00000000000E+00 0. -1.
<scales pt_clust_5="13000.00000" pt_clust_6="13000.00000" pt_clust_7="13000.00000" pt_clust_8="13000.00000" pt_clust_9="150.20368"></scales>
<clustering>
<clus scale="   80.531">  5  6 -1 -1</clus>
<clus scale="   91.295">  7  8 -1 -1</clus>
<clus scale="  114.242">  2  7  1 -1</clus>
<clus scale="  150.204">  2  9  1 -1</clus>
<clus scale="  170.430">  1  5  2 -1</clus>
</clustering>
</event>
<event>
 9    1  0.2951046E-005  0.1607135E+03  0.7546771E-02  0.1190218E+00
         -2   -1    0    0    0  501 -0.00000000000E+00  0.00000000000E+00  0.11987193120E+03  0.11987193120E+03  0.00000000000E+00 0.  1.
          1   -1    0    0  502    0  0.00000000000E+00 -0.00000000000E+00 -0.42918325560E+03  0.42918325560E+03  0.00000000000E+00 0. -1.
        -24    2    1    2    0    0 -0.13250862563E+03 -0.20158620385E+02  0.37271772344E+02  0.16050168039E+03  0.80041855000E+02 0.  0.
         23    2    1    2    0    0  0.11038547364E+03  0.19531311799E+02 -0.25325177984E+03  0.29263394592E+03  0.94507869403E+02 0.  0.
         11    1    3    3    0    0 -0.29933010023E+02  0.15242357597E+02 -0.18656843841E+02  0.38423851658E+02  0.00000000000E+00 0. -1.
        -12    1    3    3    0    0 -0.10257561561E+03 -0.35400977982E+02  0.55928616185E+02  0.12207782873E+03  0.00000000000E+00 0.  1.
        -11    1    4    4    0    0  0.58102382332E+02 -0.33742032971E+02 -0.15744565555E+03  0.17118278556E+03  0.00000000000E+00 0.  1.
         11    1    4    4    0    0  0.52283091305E+02  0.53273344770E+02 -0.95806124293E+02  0.12145116035E+03  0.00000000000E+00 0. -1.
         21    1    1    2  502  501  0.22123151996E+02  0.62730858598E+00 -0.93331316901E+02  0.95919560491E+02  0.00000000000E+00 0. -1.
<scales pt_clust_5="13000.00000" pt_clust_6="13000.00000" pt_clust_7="13000.00000" pt_clust_8="13000.00000" pt_clust_9="22.13204"></scales>
<clustering>
<clus scale="   22.132">  2  9  1 -1</clus>
<clus scale="   80.042">  5  6 -1 -1</clus>
<clus scale="   94.508">  7  8 -1 -1</clus>
<clus scale="  152.656">  1  5  2 -1</clus>
<clus scale="   22.132">  2  5  1 -1</clus>
</clustering>
</event>
<event>
 9    1  0.2951046E-005  0.1010407E+03  0.7546771E-02  0.1284415E+00
          1   -1    0    0  502    0  0.00000000000E+00  0.00000000000E+00  0.72715955145E+02  0.72715955145E+02  0.00000000000E+00 0. -1.
         -2   -1    0    0    0  501 -0.00000000000E+00 -0.00000000000E+00 -0.30885569373E+03  0.30885569373E+03  0.00000000000E+00 0.  1.
         23    2    1    2    0    0 -0.48621695395E+01 -0.51587504596E+02 -0.13788660596E+03  0.17332004795E+03  0.91335708219E+02 0.  0.
        -24    2    1    2    0    0  0.56051425367E+02 -0.52819160788E+01 -0.19789015806E+02  0.98656489039E+02  0.78561038434E+02 0.  0.
         13    1    4    4    0    0  0.24034595738E+02  0.36358563124E+02 -0.14172321626E+02  0.45830793197E+02  0.00000000000E+00 0. -1.
        -14    1    4    4    0    0  0.32016829629E+02 -0.41640479203E+02 -0.56166941803E+01  0.52825695843E+02  0.00000000000E+00 0.  1.
        -13    1    3    3    0    0  0.24740220958E+02 -0.29399392911E+02 -0.93220073707E+01  0.39538622359E+02  0.00000000000E+00 0. -1.
         13    1    3    3    0    0 -0.29602390498E+02 -0.22188111685E+02 -0.12856459859E+03  0.13378142559E+03  0.00000000000E+00 0.  1.
         21    1    1    2  502  501 -0.51189255827E+02  0.56869420675E+02 -0.78464116813E+02  0.10959511188E+03  0.00000000000E+00 0.  1.
<scales pt_clust_5="13000.00000" pt_clust_6="13000.00000" pt_clust_7="13000.00000" pt_clust_8="13000.00000" pt_clust_9="76.51451"></scales>
<clustering>
<clus scale="   76.515">  2  9  1 -1</clus>
<clus scale="   78.561">  5  6 -1 -1</clus>
<clus scale="   89.660">  1  5  2 -1</clus>
<clus scale="   91.336">  7  8 -1 -1</clus>
<clus scale="   89.660">  1  5  2 -1</clus>
</clustering>
</event>
<event>
 9    1  0.8098474E-005  0.1038377E+03  0.7546771E-02  0.1272700E+00
         -2   -1    0    0    0  501 -0.00000000000E+00  0.00000000000E+00  0.42240637423E+03  0.42240637423E+03  0.00000000000E+00 0.  1.
          1   -1    0    0  502    0  0.00000000000E+00 -0.00000000000E+00 -0.50419459622E+03  0.50419459622E+03  0.00000000000E+00 0. -1.
        -24    2    1    2    0    0  0.58896780293E+01  0.57691958531E+02  0.40823100616E+03  0.42130893909E+03  0.86519462416E+02 0.  0.
         23    2    1    2    0    0  0.13253891909E+01 -0.24767623117E+02 -0.36870662532E+03  0.37938406234E+03  0.85863259862E+02 0.  0.
         11    1    3    3    0    0 -0.46855877183E+01  0.20204989345E+02  0.13694141751E+02  0.24854091112E+02  0.00000000000E+00 0. -1.
        -12    1    3    3    0    0  0.10575265748E+02  0.37486969185E+02  0.39453686441E+03  0.39645484798E+03  0.00000000000E+00 0.  1.
        -13    1    4    4    0    0 -0.33456326015E+02 -0.38827731898E+02 -0.19073719135E+03  0.19750340422E+03  0.00000000000E+00 0. -1.
         13    1    4    4    0    0  0.34781715206E+02  0.14060108781E+02 -0.17796943397E+03  0.18188065812E+03  0.00000000000E+00 0.  1.
         21    1    1    2  502  501 -0.72150672202E+01 -0.32924335414E+02 -0.12131260283E+03  0.12590796902E+03  0.00000000000E+00 0.  1.
<scales pt_clust_5="13000.00000" pt_clust_6="13000.00000" pt_clust_7="13000.00000" pt_clust_8="13000.00000" pt_clust_9="33.70562"></scales>
<clustering>
<clus scale="   33.706">  2  9  1 -1</clus>
<clus scale="   85.863">  7  8 -1 -1</clus>
<clus scale="   86.519">  5  6 -1 -1</clus>
<clus scale="  103.292">  2  7  1 -1</clus>
<clus scale="   33.706">  2  5  1 -1</clus>
</clustering>
</event>
<event>
 9    1  0.2951046E-005  0.1921902E+03  0.7546771E-02  0.1186739E+00
          1   -1    0    0  502    0  0.00000000000E+00  0.00000000000E+00  0.16736148813E+04  0.16736148813E+04  0.00000000000E+00 0. -1.
         -2   -1    0    0    0  501 -0.00000000000E+00 -0.00000000000E+00 -0.52910994678E+02  0.52910994678E+02  0.00000000000E+00 0.  1.
         23    2    1    2    0    0 -0.24309595892E+02 -0.18201750224E+02  0.41098978762E+02  0.10480883912E+03  0.91506866075E+02 0.  0.
        -24    2    1    2    0    0 -0.70446443187E+02 -0.13554954492E+03  0.60511519629E+03  0.63063259764E+03  0.90535583829E+02 0.  0.
         13    1    4    4    0    0 -0.65480208014E+02 -0.14900069503E+03  0.56750256282E+03  0.59037955890E+03  0.00000000000E+00 0. -1.
        -14    1    4    4    0    0 -0.49662351724E+01  0.13451150112E+02  0.37612633473E+02  0.40253038741E+02  0.00000000000E+00 0.  1.
        -11    1    3    3    0    0  0.19389760446E+02 -0.42113702205E+02  0.23491481733E+02  0.51974767316E+02  0.00000000000E+00 0. -1.
         11    1    3    3    0    0 -0.43699356338E+02  0.23911951980E+02  0.17607497029E+02  0.52834071805E+02  0.00000000000E+00 0.  1.
         21    1    1    2  502  501  0.94756039078E+02  0.15375129515E+03  0.97448971157E+03  0.99108443921E+03  0.00000000000E+00 0.  1.
<scales pt_clust_5="13000.00000" pt_clust_6="13000.00000" pt_clust_7="13000.00000" pt_clust_8="13000.00000" pt_clust_9="169.52984"></scales>
<clustering>
<clus scale="   90.536">  5  6 -1 -1</clus>
<clus scale="   91.507">  7  8 -1 -1</clus>
<clus scale="   96.415">  2  7  1 -1</clus>
<clus scale="  169.530">  1  9  2 -1</clus>
<clus scale="  169.530">  1  5  2 -1</clus>
</clustering>
</event>
<event>
 9    1  0.2951046E-005  0.1066109E+03  0.7546771E-02  0.1271707E+00
          1   -1    0    0  502    0  0.00000000000E+00  0.00000000000E+00  0.58867003099E+03  0.58867003099E+03  0.00000000000E+00 0. -1.
         -2   -1    0    0    0  501 -0.00000000000E+00 -0.00000000000E+00 -0.28078060365E+02  0.28078060365E+02  0.00000000000E+00 0.  1.
        -24    2    1    2    0    0 -0.67818936066E+02  0.57184118430E+01  0.16320105324E+03  0.19407629299E+03  0.79993220953E+02 0.  0.
         23    2    1    2    0    0  0.31792193803E+02 -0.28306566314E+02  0.25668806143E+03  0.27568389222E+03  0.91108958196E+02 0.  0.
         11    1    3    3    0    0 -0.73969118435E+02 -0.16834282872E+02  0.92602008781E+02  0.11970779253E+03  0.00000000000E+00 0. -1.
        -12    1    3    3    0    0  0.61501823689E+01  0.22552694715E+02  0.70599044463E+02  0.74368500463E+02  0.00000000000E+00 0.  1.
        -11    1    4    4    0    0 -0.22657976810E+02 -0.21626841192E+02  0.17166423925E+03  0.17449846765E+03  0.00000000000E+00 0. -1.
         11    1    4    4    0    0  0.54450170614E+02 -0.66797251219E+01  0.85023822178E+02  0.10118542457E+03  0.00000000000E+00 0.  1.
         21    1    1    2  502  501  0.36026742263E+02  0.22588154471E+02  0.14070285595E+03  0.14698790614E+03  0.00000000000E+00 0.  1.
<scales pt_clust_5="13000.00000" pt_clust_6="13000.00000" pt_clust_7="13000.00000" pt_clust_8="13000.00000" pt_clust_9="42.52236"></scales>
<clustering>
<clus scale="   42.522">  1  9  2 -1</clus>
<clus scale="   79.993">  5  6 -1 -1</clus>
<clus scale="   91.109">  7  8 -1 -1</clus>
<clus scale="   97.283">  2  5  1 -1</clus>
<clus scale="   42.522">  1  5  2 -1</clus>
</clustering>
</event>
<event>
 9    1  0.2951046E-005  0.9480764E+02  0.7546771E-02  0.1299958E+00
          1   -1    0    0  502    0  0.00000000000E+00  0.00000000000E+00  0.23756301099E+03  0.23756301099E+03  0.00000000000E+00 0. -1.
         -2   -1    0    0    0  501 -0.00000000000E+00 -0.00000000000E+00 -0.45680952035E+02  0.45680952035E+02  0.00000000000E+00 0.  1.
        -24    2    1    2    0    0 -0.15968153109E+02  0.21680309351E+02  0.35913599256E+02  0.89627765828E+02  0.77577909668E+02 0.  0.
         23    2    1    2    0    0  0.22392003322E+02 -0.25997280499E+01  0.13202884954E+03  0.16233618171E+03  0.91723815787E+02 0.  0.
         11    1    3    3    0    0 -0.28166627392E+02 -0.18947481167E+02 -0.15497519204E+00  0.33946869643E+02  0.00000000000E+00 0. -1.
        -12    1    3    3    0    0  0.12198474283E+02  0.40627790518E+02  0.36068574448E+02  0.55680896184E+02  0.00000000000E+00 0.  1.
        -13    1    4    4    0    0 -0.20140348247E+00  0.29283169084E+02  0.11677015959E+03  0.12038610686E+03  0.00000000000E+00 0. -1.
         13    1    4    4    0    0  0.22593406805E+02 -0.31882897134E+02  0.15258689952E+02  0.41950074848E+02  0.00000000000E+00 0.  1.
         21    1    1    2  502  501 -0.64238502133E+01 -0.19080581301E+02  0.23939610153E+02  0.31280015483E+02  0.00000000000E+00 0. -1.
<scales pt_clust_5="13000.00000" pt_clust_6="13000.00000" pt_clust_7="13000.00000" pt_clust_8="13000.00000" pt_clust_9="20.13292"></scales>
<clustering>
<clus scale="   20.133">  1  9  2 -1</clus>
<clus scale="   77.578">  5  6 -1 -1</clus>
<clus scale="   81.201">  2  5  1 -1</clus>
<clus scale="   91.724">  7  8 -1 -1</clus>
<clus scale="   20.133">  1  5  2 -1</clus>
</clustering>
</event>
<event>
 9    1  0.2951046E-005  0.9188919E+02  0.7546771E-02  0.1299810E+00
          1   -1    0    0  502    0  0.00000000000E+00  0.00000000000E+00  0.34618678293E+03  0.34618678293E+03  0.00000000000E+00 0. -1.
         -2   -1    0    0    0  501 -0.00000000000E+00 -0.00000000000E+00 -0.35381386998E+03  0.35381386998E+03  0.00000000000E+00 0.  1.
         23    2    1    2    0    0  0.17132786297E+01  0.21190290809E+02 -0.28758976233E+03  0.30211928407E+03  0.90090103023E+02 0.  0.
        -24    2    1    2    0    0 -0.35135844600E+02  0.74161227982E+01 -0.18285936113E+02  0.96405616891E+02  0.87579341488E+02 0.  0.
         11    1    4    4    0    0  0.23069220654E+02  0.11743681727E+02 -0.26986640304E+02  0.37394942933E+02  0.00000000000E+00 0. -1.
        -12    1    4    4    0    0 -0.58205065255E+02 -0.43275589283E+01  0.87007041906E+01  0.59010673958E+02  0.00000000000E+00 0.  1.
        -11    1    3    3    0    0 -0.95198568602E+01  0.45660640569E+02 -0.25771318359E+03  0.26189999383E+03  0.00000000000E+00 0.  1.
         11    1    3    3    0    0  0.11233135490E+02 -0.24470349760E+02 -0.29876578737E+02  0.40219290239E+02  0.00000000000E+00 0. -1.
         21    1    1    2  502  501  0.33422565970E+02 -0.28606413607E+02  0.29824861139E+03  0.30147575195E+03  0.00000000000E+00 0. -1.
<scales pt_clust_5="13000.00000" pt_clust_6="13000.00000" pt_clust_7="13000.00000" pt_clust_8="13000.00000" pt_clust_9="43.99312"></scales>
<clustering>
<clus scale="   43.993">  1  9  2 -1</clus>
<clus scale="   87.579">  5  6 -1 -1</clus>
<clus scale="   89.429">  1  5  2 -1</clus>
<clus scale="   90.090">  7  8 -1 -1</clus>
<clus scale="   43.993">  1  5  2 -1</clus>
</clustering>
</event>
<event>
 9    1  0.2951046E-005  0.1312203E+03  0.7546771E-02  0.1228168E+00
          1   -1    0    0  502    0  0.00000000000E+00  0.00000000000E+00  0.60453247165E+03  0.60453247165E+03  0.00000000000E+00 0. -1.
         -2   -1    0    0    0  501 -0.00000000000E+00 -0.00000000000E+00 -0.62695841321E+02  0.62695841321E+02  0.00000000000E+00 0.  1.
        -24    2    1    2    0    0  0.54747522398E+02  0.73265647865E+02  0.29952578419E+02  0.12560725054E+03  0.80714794607E+02 0.  0.
         23    2    1    2    0    0 -0.56411790912E+02 -0.96172992822E+02  0.35370575720E+03  0.38178399177E+03  0.90662665895E+02 0.  0.
         13    1    3    3    0    0  0.55654535805E+02  0.90119677694E+01  0.23297712240E+02  0.61003494280E+02  0.00000000000E+00 0. -1.
        -14    1    3    3    0    0 -0.90701340634E+00  0.64253680096E+02  0.66548661798E+01  0.64603756261E+02  0.00000000000E+00 0.  1.
        -11    1    4    4    0    0 -0.49855137004E+02 -0.44560392922E+01  0.15390978806E+03  0.16184441242E+03  0.00000000000E+00 0.  1.
         11    1    4    4    0    0 -0.65566539081E+01 -0.91716953530E+02  0.19979596914E+03  0.21993957934E+03  0.00000000000E+00 0. -1.
         21    1    1    2  502  501  0.16642685140E+01  0.22907344957E+02  0.15817829471E+03  0.15983707067E+03  0.00000000000E+00 0. -1.
<scales pt_clust_5="13000.00000" pt_clust_6="13000.00000" pt_clust_7="13000.00000" pt_clust_8="13000.00000" pt_clust_9="22.96772"></scales>
<clustering>
<clus scale="   22.968">  1  9  2 -1</clus>
<clus scale="   80.715">  5  6 -1 -1</clus>
<clus scale="   90.663">  7  8 -1 -1</clus>
<clus scale="  124.555">  2  5  1 -1</clus>
<clus scale="   22.968">  1  5  2 -1</clus>
</clustering>
</event>
<event>
 9    1  0.2951046E-005  0.7773602E+02  0.7546771E-02  0.1336183E+00
          1   -1    0    0  502    0  0.00000000000E+00  0.00000000000E+00  0.50796372715E+03  0.50796372715E+03  0.00000000000E+00 0. -1.
         -2   -1    0    0    0  501 -0.00000000000E+00 -0.00000000000E+00 -0.68755273472E+02  0.68755273472E+02  0.00000000000E+00 0.  1.
        -24    2    1    2    0    0  0.20000679642E+01 -0.27959810533E+01 -0.21424602555E+02  0.79115488182E+02  0.76081726412E+02 0.  0.
         23    2    1    2    0    0 -0.48042938827E+02  0.61897739735E+02  0.22502161282E+03  0.25036735791E+03  0.76874140759E+02 0.  0.
         11    1    3    3    0    0  0.37679074427E+02  0.60423687936E+01 -0.18018530497E+02  0.42200596105E+02  0.00000000000E+00 0. -1.
        -12    1    3    3    0    0 -0.35679006463E+02 -0.88383498468E+01 -0.34060720584E+01  0.36914892077E+02  0.00000000000E+00 0.  1.
        -13    1    4    4    0    0 -0.55615290033E+02  0.21347088735E+02  0.80954379799E+02  0.10051054816E+03  0.00000000000E+00 0.  1.
         13    1    4    4    0    0  0.75723512058E+01  0.40550651000E+02  0.14406723302E+03  0.14985680975E+03  0.00000000000E+00 0. -1.
         21    1    1    2  502  501  0.46042870863E+02 -0.59101758682E+02  0.23561144342E+03  0.24723615453E+03  0.00000000000E+00 0. -1.
<scales pt_clust_5="13000.00000" pt_clust_6="13000.00000" pt_clust_7="13000.00000" pt_clust_8="13000.00000" pt_clust_9="74.91972"></scales>
<clustering>
<clus scale="   74.920">  1  9  2 -1</clus>
<clus scale="   76.082">  5  6 -1 -1</clus>
<clus scale="   76.874">  7  8 -1 -1</clus>
<clus scale="   76.952">  2  5  1 -1</clus>
<clus scale="   74.920">  1  5  2 -1</clus>
</clustering>
</event>
<event>
 9    1  0.2951046E-005  0.2978843E+03  0.7546771E-02  0.1095673E+00
         -2   -1    0    0    0  501 -0.00000000000E+00  0.00000000000E+00  0.34453073708E+03  0.34453073708E+03  0.00000000000E+00 0.  1.
          1   -1    0    0  502    0  0.00000000000E+00 -0.00000000000E+00 -0.20973642182E+04  0.20973642182E+04  0.00000000000E+00 0. -1.
         23    2    1    2    0    0  0.42216651118E+02  0.21278836667E+03  0.23609123779E+03  0.33144595454E+03  0.84001271408E+02 0.  0.
        -24    2    1    2    0    0 -0.19071637846E+03 -0.40244692806E+03 -0.10725272130E+04  0.11629222582E+04  0.61133372010E+02 0.  0.
         11    1    4    4    0    0 -0.45453227514E+02 -0.12384859861E+03 -0.38576948941E+03  0.40770402282E+03  0.00000000000E+00 0. -1.
        -12    1    4    4    0    0 -0.14526315095E+03 -0.27859832945E+03 -0.68675772359E+03  0.75521823542E+03  0.00000000000E+00 0.  1.
        -13    1    3    3    0    0 -0.14890351581E+02  0.12545053441E+03  0.10779263646E+03  0.16606869551E+03  0.00000000000E+00 0.  1.
         13    1    3    3    0    0  0.57107002699E+02  0.87337832264E+02  0.12829860132E+03  0.16537725903E+03  0.00000000000E+00 0. -1.
         21    1    1    2  502  501  0.14849972734E+03  0.18965856139E+03 -0.91639750596E+03  0.94752674255E+03  0.00000000000E+00 0. -1.
<scales pt_clust_5="13000.00000" pt_clust_6="13000.00000" pt_clust_7="13000.00000" pt_clust_8="13000.00000" pt_clust_9="291.54377"></scales>
<clustering>
<clus scale="   61.133">  5  6 -1 -1</clus>
<clus scale="   84.001">  7  8 -1 -1</clus>
<clus scale="  232.631">  1  7  2 -1</clus>
<clus scale="  291.544">  2  9  1 -1</clus>
<clus scale="  291.544">  2  5  1 -1</clus>
</clustering>
</event>
<event>
 9    1  0.2951046E-005  0.1045645E+03  0.7546771E-02  0.1276671E+00
          1   -1    0    0  502    0  0.00000000000E+00  0.00000000000E+00  0.35908899601E+03  0.35908899601E+03  0.00000000000E+00 0. -1.
         -2   -1    0    0    0  501 -0.00000000000E+00 -0.00000000000E+00 -0.73042133809E+02  0.73042133809E+02  0.00000000000E+00 0.  1.
         23    2    1    2    0    0  0.42756658778E+02  0.48111769279E+01 -0.51008445714E+01  0.10128834046E+03  0.91553427047E+02 0.  0.
        -24    2    1    2    0    0 -0.79156045755E+02  0.91413682076E+00  0.16415819430E+03  0.19861559523E+03  0.78953952953E+02 0.  0.
         11    1    4    4    0    0 -0.47898038873E+02 -0.38421827842E+02  0.85023103458E+02  0.10487796291E+03  0.00000000000E+00 0. -1.
        -12    1    4    4    0    0 -0.31258006883E+02  0.39335964663E+02  0.79135090841E+02  0.93737632319E+02  0.00000000000E+00 0.  1.
        -13    1    3    3    0    0  0.20629304180E+02 -0.39640388065E+02  0.15822683123E+02  0.47405546701E+02  0.00000000000E+00 0. -1.
         13    1    3    3    0    0  0.22127354598E+02  0.44451564993E+02 -0.20923527695E+02  0.53882793756E+02  0.00000000000E+00 0.  1.
         21    1    1    2  502  501  0.36399386978E+02 -0.57253137487E+01  0.12698951247E+03  0.13222719413E+03  0.00000000000E+00 0. -1.
<scales pt_clust_5="13000.00000" pt_clust_6="13000.00000" pt_clust_7="13000.00000" pt_clust_8="13000.00000" pt_clust_9="36.84691"></scales>
<clustering>
<clus scale="   36.847">  1  9  2 -1</clus>
<clus scale="   78.954">  5  6 -1 -1</clus>
<clus scale="   91.553">  7  8 -1 -1</clus>
<clus scale="   93.731">  1  5  2 -1</clus>
<clus scale="   36.847">  1  5  2 -1</clus>
</clustering>
</event>
<event>
 9    1  0.2951046E-005  0.1325758E+03  0.7546771E-02  0.1226674E+00
         -2   -1    0    0    0  501 -0.00000000000E+00  0.00000000000E+00  0.60838741052E+03  0.60838741052E+03  0.00000000000E+00 0.  1.
          1   -1    0    0  502    0  0.00000000000E+00 -0.00000000000E+00 -0.14093865371E+03  0.14093865371E+03  0.00000000000E+00 0. -1.
        -24    2    1    2    0    0 -0.85818316720E+02  0.50178592803E+02  0.55082738208E+03  0.56540624517E+03  0.79942120161E+02 0.  0.
         23    2    1    2    0    0  0.58661769108E+02 -0.11537640196E+02 -0.32198417811E+02  0.11427777047E+03  0.91914908577E+02 0.  0.
         13    1    3    3    0    0 -0.49981372880E+02  0.30435973299E+02  0.12963466947E+03  0.14223091659E+03  0.00000000000E+00 0. -1.
        -14    1    3    3    0    0 -0.35836943840E+02  0.19742619504E+02  0.42119271260E+03  0.42317532858E+03  0.00000000000E+00 0.  1.
        -11    1    4    4    0    0  0.41924321530E+02  0.37241899230E+02 -0.58943963090E+01  0.56385740235E+02  0.00000000000E+00 0.  1.
         11    1    4    4    0    0  0.16737447578E+02 -0.48779539426E+02 -0.26304021502E+02  0.57892030239E+02  0.00000000000E+00 0. -1.
         21    1    1    2  502  501  0.27156547612E+02 -0.38640952607E+02 -0.51180207456E+02  0.69642048590E+02  0.00000000000E+00 0. -1.
<scales pt_clust_5="13000.00000" pt_clust_6="13000.00000" pt_clust_7="13000.00000" pt_clust_8="13000.00000" pt_clust_9="47.22924"></scales>
<clustering>
<clus scale="   47.229">  2  9  1 -1</clus>
<clus scale="   79.942">  5  6 -1 -1</clus>
<clus scale="   91.915">  7  8 -1 -1</clus>
<clus scale="  124.574">  1  5  2 -1</clus>
<clus scale="   47.229">  2  5  1 -1</clus>
</clustering>
</event>
<event>
 9    1  0.2951046E-005  0.1000249E+03  0.7546771E-02  0.1285296E+00
          1   -1    0    0  502    0  0.00000000000E+00  0.00000000000E+00  0.41965886840E+03  0.41965886840E+03  0.00000000000E+00 0. -1.
         -2   -1    0    0    0  501 -0.00000000000E+00 -0.00000000000E+00 -0.92710699052E+02  0.92710699052E+02  0.00000000000E+00 0.  1.
         23    2    1    2    0    0  0.18035925497E+02  0.39200375294E+02 -0.50405464145E+02  0.11136791390E+03  0.89443487175E+02 0.  0.
        -24    2    1    2    0    0 -0.33624756656E+02 -0.55038381381E+02  0.35539516214E+03  0.36976019779E+03  0.79101421722E+02 0.  0.
         13    1    4    4    0    0 -0.14594613539E+02 -0.72632393695E+02  0.29246241352E+03  0.30169973596E+03  0.00000000000E+00 0. -1.
        -14    1    4    4    0    0 -0.19030143117E+02  0.17594012314E+02  0.62932748614E+02  0.68060461829E+02  0.00000000000E+00 0.  1.
        -13    1    3    3    0    0  0.44861602251E+02  0.48610104977E+01 -0.50592371406E+02  0.67792188518E+02  0.00000000000E+00 0.  1.
         13    1    3    3    0    0 -0.26825676753E+02  0.34339364796E+02  0.18690726062E+00  0.43575725378E+02  0.00000000000E+00 0. -1.
         21    1    1    2  502  501  0.15588831159E+02  0.15838006087E+02  0.21958471355E+02  0.31241455759E+02  0.00000000000E+00 0.  1.
<scales pt_clust_5="13000.00000" pt_clust_6="13000.00000" pt_clust_7="13000.00000" pt_clust_8="13000.00000" pt_clust_9="22.22283"></scales>
<clustering>
<clus scale="   22.223">  1  9  2 -1</clus>
<clus scale="   79.101">  5  6 -1 -1</clus>
<clus scale="   89.443">  7  8 -1 -1</clus>
<clus scale="   90.895">  1  5  2 -1</clus>
<clus scale="   22.223">  1  5  2 -1</clus>
</clustering>
</event>
<event>
 9    1  0.2951046E-005  0.3165805E+03  0.7546771E-02  0.1077553E+00
          1   -1    0    0  502    0  0.00000000000E+00  0.00000000000E+00  0.14422708401E+03  0.14422708401E+03  0.00000000000E+00 0. -1.
         -2   -1    0    0    0  501 -0.00000000000E+00 -0.00000000000E+00 -0.82117149030E+03  0.82117149030E+03  0.00000000000E+00 0.  1.
         23    2    1    2    0    0 -0.29684032337E+03 -0.12686642781E+03 -0.44630492202E+03  0.55815623994E+03  0.90227693550E+02 0.  0.
        -24    2    1    2    0    0  0.26789507712E+03  0.11794080291E+03 -0.19620565556E+03  0.36138186533E+03  0.80139802708E+02 0.  0.
         13    1    4    4    0    0  0.52150515431E+02  0.44478689432E+02 -0.14875148789E+02  0.70137722552E+02  0.00000000000E+00 0. -1.
        -14    1    4    4    0    0  0.21574456169E+03  0.73462113473E+02 -0.18133050677E+03  0.29124414278E+03  0.00000000000E+00 0.  1.
        -11    1    3    3    0    0 -0.46391942768E+02  0.12723755629E+02 -0.55389813066E+02  0.73363054070E+02  0.00000000000E+00 0.  1.
         11    1    3    3    0    0 -0.25044838060E+03 -0.13959018344E+03 -0.39091510895E+03  0.48479318587E+03  0.00000000000E+00 0. -1.
         21    1    1    2  502  501  0.28945246244E+02  0.89256249091E+01 -0.34433828720E+02  0.45860469039E+02  0.00000000000E+00 0. -1.
<scales pt_clust_5="13000.00000" pt_clust_6="13000.00000" pt_clust_7="13000.00000" pt_clust_8="13000.00000" pt_clust_9="30.29016"></scales>
<clustering>
<clus scale="   30.290">  2  9  1 -1</clus>
<clus scale="   80.140">  5  6 -1 -1</clus>
<clus scale="   90.228">  7  8 -1 -1</clus>
<clus scale="  313.854">  1  5  2 -1</clus>
<clus scale="  313.854">  1  5  2 -1</clus>
</clustering>
</event>
<event>
 9    1  0.2951046E-005  0.9987725E+02  0.7546771E-02  0.1285468E+00
         -2   -1    0    0    0  501 -0.00000000000E+00  0.00000000000E+00  0.17295399532E+03  0.17295399532E+03  0.00000000000E+00 0.  1.
          1   -1    0    0  502    0  0.00000000000E+00 -0.00000000000E+00 -0.14815175512E+03  0.14815175512E+03  0.00000000000E+00 0. -1.
        -24    2    1    2    0    0  0.38112716761E+02 -0.31522753212E+02  0.11939460919E+03  0.15190977138E+03  0.79845117487E+02 0.  0.
         23    2    1    2    0    0 -0.41366020609E+01  0.42938621253E+01 -0.86620144898E+02  0.12493148724E+03  0.89829161591E+02 0.  0.
         13    1    3    3    0    0  0.50962881568E+02  0.69740290318E+01  0.51356628829E+02  0.72686695505E+02  0.00000000000E+00 0. -1.
        -14    1    3    3    0    0 -0.12850164807E+02 -0.38496782244E+02  0.68037980365E+02  0.79223075873E+02  0.00000000000E+00 0.  1.
        -11    1    4    4    0    0  0.23021412167E+02 -0.28381810711E+02 -0.70647938947E+02  0.79540202884E+02  0.00000000000E+00 0.  1.
         11    1    4    4    0    0 -0.27158014228E+02  0.32675672836E+02 -0.15972205951E+02  0.45391284351E+02  0.00000000000E+00 0. -1.
         21    1    1    2  502  501 -0.33976114700E+02  0.27228891087E+02 -0.79722240988E+01  0.44264491830E+02  0.00000000000E+00 0.  1.
<scales pt_clust_5="13000.00000" pt_clust_6="13000.00000" pt_clust_7="13000.00000" pt_clust_8="13000.00000" pt_clust_9="43.54066"></scales>
<clustering>
<clus scale="   43.541">  2  9  1 -1</clus>
<clus scale="   79.845">  5  6 -1 -1</clus>
<clus scale="   89.829">  7  8 -1 -1</clus>
<clus scale="   91.002">  1  5  2 -1</clus>
<clus scale="   43.541">  2  5  1 -1</clus>
</clustering>
</event>
<event>
 9    1  0.2951046E-005  0.1153623E+03  0.7546771E-02  0.1253774E+00
          1   -1    0    0  502    0  0.00000000000E+00  0.00000000000E+00  0.27325999024E+03  0.27325999024E+03  0.00000000000E+00 0. -1.
         -2   -1    0    0    0  501 -0.00000000000E+00 -0.00000000000E+00 -0.18461916571E+03  0.18461916571E+03  0.00000000000E+00 0.  1.
        -24    2    1    2    0    0  0.70914688874E+02  0.27178964049E+02 -0.13498529251E+03  0.17498152163E+03  0.81424287122E+02 0.  0.
         23    2    1    2    0    0 -0.23003943303E+02 -0.63713253121E+02  0.13393103662E+03  0.17484486355E+03  0.89691937813E+02 0.  0.
         13    1    3    3    0    0  0.41891215192E+01  0.22918121028E+02  0.11362887749E+01  0.23325525991E+02  0.00000000000E+00 0. -1.
        -14    1    3    3    0    0  0.66725567355E+02  0.42608430203E+01 -0.13612158128E+03  0.15165599564E+03  0.00000000000E+00 0.  1.
        -11    1    4    4    0    0  0.28421016989E+02 -0.94406265706E+01  0.71220194732E+02  0.77260570632E+02  0.00000000000E+00 0.  1.
         11    1    4    4    0    0 -0.51424960292E+02 -0.54272626551E+02  0.62710841886E+02  0.97584292916E+02  0.00000000000E+00 0. -1.
         21    1    1    2  502  501 -0.47910745572E+02  0.36534289073E+02  0.89695080417E+02  0.10805277077E+03  0.00000000000E+00 0. -1.
<scales pt_clust_5="13000.00000" pt_clust_6="13000.00000" pt_clust_7="13000.00000" pt_clust_8="13000.00000" pt_clust_9="60.25109"></scales>
<clustering>
<clus scale="   60.251">  1  9  2 -1</clus>
<clus scale="   81.424">  5  6 -1 -1</clus>
<clus scale="   89.692">  7  8 -1 -1</clus>
<clus scale="  109.058">  2  5  1 -1</clus>
<clus scale="   60.251">  1  5  2 -1</clus>
</clustering>
</event>
<event>
 9    1  0.2951046E-005  0.9469633E+02  0.7546771E-02  0.1299188E+00
         -2   -1    0    0    0  501 -0.00000000000E+00  0.00000000000E+00  0.19403659740E+03  0.19403659740E+03  0.00000000000E+00 0.  1.
          1   -1    0    0  502    0  0.00000000000E+00 -0.00000000000E+00 -0.57529811291E+03  0.57529811291E+03  0.00000000000E+00 0. -1.
        -24    2    1    2    0    0  0.59442728770E+01 -0.17951260475E+02  0.17249938683E+03  0.19115315885E+03  0.80161771109E+02 0.  0.
         23    2    1    2    0    0 -0.33775523221E+02  0.59019706734E+02 -0.34506170038E+03  0.36366686042E+03  0.92530516843E+02 0.  0.
         11    1    3    3    0    0 -0.93491489339E+01  0.30268051220E+02  0.70973520481E+02  0.77722597228E+02  0.00000000000E+00 0. -1.
        -12    1    3    3    0    0  0.15293421811E+02 -0.48219311695E+02  0.10152586635E+03  0.11343056162E+03  0.00000000000E+00 0.  1.
        -11    1    4    4    0    0 -0.37424933757E+02  0.81938592709E+02 -0.24751562711E+03  0.26339807195E+03  0.00000000000E+00 0. -1.
         11    1    4    4    0    0  0.36494105353E+01 -0.22918885975E+02 -0.97546073268E+02  0.10026878847E+03  0.00000000000E+00 0.  1.
         21    1    1    2  502  501  0.27831250345E+02 -0.41068446259E+02 -0.20869920196E+03  0.21451469104E+03  0.00000000000E+00 0. -1.
<scales pt_clust_5="13000.00000" pt_clust_6="13000.00000" pt_clust_7="13000.00000" pt_clust_8="13000.00000" pt_clust_9="49.61044"></scales>
<clustering>
<clus scale="   49.610">  2  9  1 -1</clus>
<clus scale="   80.162">  5  6 -1 -1</clus>
<clus scale="   82.652">  1  5  2 -1</clus>
<clus scale="   92.531">  7  8 -1 -1</clus>
<clus scale="   49.610">  2  5  1 -1</clus>
</clustering>
</event>
<event>
 9    1  0.3316018E-005  0.2306096E+03  0.7546771E-02  0.1126807E+00
          1   -1    0    0  502    0  0.00000000000E+00  0.00000000000E+00  0.76333571764E+03  0.76333571764E+03  0.00000000000E+00 0. -1.
         -2   -1    0    0    0  501 -0.00000000000E+00 -0.00000000000E+00 -0.41613430801E+03  0.41613430801E+03  0.00000000000E+00 0.  1.
         23    2    1    2    0    0  0.20051480538E+03 -0.72371941191E+02 -0.36266761117E+03  0.43005927242E+03  0.89326908367E+02 0.  0.
        -24    2    1    2    0    0 -0.18289309385E+03  0.86483956287E+02  0.64345656133E+03  0.67926598535E+03  0.80228262234E+02 0.  0.
         13    1    4    4    0    0 -0.95619746616E+02  0.70070617378E+02  0.26139524583E+03  0.28702003746E+03  0.00000000000E+00 0. -1.
        -14    1    4    4    0    0 -0.87273347230E+02  0.16413338908E+02  0.38206131550E+03  0.39224594789E+03  0.00000000000E+00 0.  1.
        -11    1    3    3    0    0  0.15431979888E+03 -0.55488977263E+02 -0.33653257393E+03  0.37436319295E+03  0.00000000000E+00 0. -1.
         11    1    3    3    0    0  0.46195006503E+02 -0.16882963928E+02 -0.26135037239E+02  0.55696079470E+02  0.00000000000E+00 0.  1.
         21    1    1    2  502  501 -0.17621711532E+02 -0.14112015096E+02  0.66412459469E+02  0.70144767874E+02  0.00000000000E+00 0. -1.
<scales pt_clust_5="13000.00000" pt_clust_6="13000.00000" pt_clust_7="13000.00000" pt_clust_8="13000.00000" pt_clust_9="22.57595"></scales>
<clustering>
<clus scale="   22.576">  1  9  2 -1</clus>
<clus scale="   80.228">  5  6 -1 -1</clus>
<clus scale="   89.327">  7  8 -1 -1</clus>
<clus scale="  227.240">  1  5  2 -1</clus>
<clus scale="   22.576">  1  5  2 -1</clus>
</clustering>
</event>
<event>
 9    1  0.2951046E-005  0.4014730E+03  0.7546771E-02  0.1043577E+00
         -2   -1    0    0    0  501 -0.00000000000E+00  0.00000000000E+00  0.19463946241E+03  0.19463946241E+03  0.00000000000E+00 0.  1.
          1   -1    0    0  502    0  0.00000000000E+00 -0.00000000000E+00 -0.19217836735E+04  0.19217836735E+04  0.00000000000E+00 0. -1.
         23    2    1    2    0    0  0.13098170656E+03  0.37150287124E+03 -0.78194023772E+02  0.41158992794E+03  0.90118658638E+02 0.  0.
        -24    2    1    2    0    0 -0.16571798224E+03 -0.33911610528E+03 -0.14275394736E+04  0.14783862702E+04  0.72765602320E+02 0.  0.
         13    1    4    4    0    0 -0.14967474689E+03 -0.26446669851E+03 -0.10443425159E+04  0.10876564049E+04  0.00000000000E+00 0. -1.
        -14    1    4    4    0    0 -0.16043235342E+02 -0.74649406766E+02 -0.38319695766E+03  0.39072986537E+03  0.00000000000E+00 0.  1.
        -13    1    3    3    0    0  0.12988697280E+03  0.24532081430E+03 -0.46104631064E+02  0.28138685939E+03  0.00000000000E+00 0.  1.
         13    1    3    3    0    0  0.10947337644E+01  0.12618205694E+03 -0.32089392708E+02  0.13020306855E+03  0.00000000000E+00 0. -1.
         21    1    1    2  502  501  0.34736275671E+02 -0.32386765962E+02 -0.22141071370E+03  0.22644693771E+03  0.00000000000E+00 0.  1.
<scales pt_clust_5="13000.00000" pt_clust_6="13000.00000" pt_clust_7="13000.00000" pt_clust_8="13000.00000" pt_clust_9="47.49223"></scales>
<clustering>
<clus scale="   47.492">  2  9  1 -1</clus>
<clus scale="   72.766">  5  6 -1 -1</clus>
<clus scale="   90.119">  7  8 -1 -1</clus>
<clus scale="  397.937">  2  5  1 -1</clus>
<clus scale="   47.492">  2  5  1 -1</clus>
</clustering>
</event>
<event>
 9    1  0.2951046E-005  0.9594738E+02  0.7546771E-02  0.1296718E+00
          1   -1    0    0  502    0  0.00000000000E+00  0.00000000000E+00  0.50440011938E+02  0.50440011938E+02  0.00000000000E+00 0. -1.
         -2   -1    0    0    0  501 -0.00000000000E+00 -0.00000000000E+00 -0.29527844934E+03  0.29527844934E+03  0.00000000000E+00 0.  1.
        -24    2    1    2    0    0  0.12950529186E+01  0.22441692829E+02 -0.15001878134E+03  0.17080473728E+03  0.78506794504E+02 0.  0.
         23    2    1    2    0    0 -0.25470374348E+02 -0.32165845113E+02 -0.10633109929E+03  0.14642655795E+03  0.91929606970E+02 0.  0.
         13    1    3    3    0    0  0.34252164006E+02  0.22842629635E+02 -0.46213440282E+02  0.61892475556E+02  0.00000000000E+00 0. -1.
        -14    1    3    3    0    0 -0.32957111087E+02 -0.40093680599E+00 -0.10380534106E+03  0.10891226173E+03  0.00000000000E+00 0.  1.
        -11    1    4    4    0    0 -0.22826979570E+01 -0.59313782850E+02 -0.88385551487E+02  0.10646755965E+03  0.00000000000E+00 0. -1.
         11    1    4    4    0    0 -0.23187676391E+02  0.27147937737E+02 -0.17945547800E+02  0.39958998306E+02  0.00000000000E+00 0.  1.
         21    1    1    2  502  501  0.24175321430E+02  0.97241522840E+01  0.11511443228E+02  0.28487166041E+02  0.00000000000E+00 0. -1.
<scales pt_clust_5="13000.00000" pt_clust_6="13000.00000" pt_clust_7="13000.00000" pt_clust_8="13000.00000" pt_clust_9="26.05773"></scales>
<clustering>
<clus scale="   26.058">  1  9  2 -1</clus>
<clus scale="   78.507">  5  6 -1 -1</clus>
<clus scale="   83.175">  2  5  1 -1</clus>
<clus scale="   91.930">  7  8 -1 -1</clus>
<clus scale="   26.058">  1  5  2 -1</clus>
</clustering>
</event>
<event>
 9    1  0.2951046E-005  0.9318945E+02  0.7546771E-02  0.1298379E+00
          1   -1    0    0  502    0  0.00000000000E+00  0.00000000000E+00  0.17169254644E+03  0.17169254644E+03  0.00000000000E+00 0. -1.
         -2   -1    0    0    0  501 -0.00000000000E+00 -0.00000000000E+00 -0.64181626755E+02  0.64181626755E+02  0.00000000000E+00 0.  1.
         23    2    1    2    0    0  0.10842639822E+02 -0.41823072502E+02  0.28208267378E+02  0.10115857537E+03  0.87009302897E+02 0.  0.
        -24    2    1    2    0    0 -0.73593211471E+01  0.21091092921E+02  0.48442628671E+02  0.97375411094E+02  0.81463418814E+02 0.  0.
         13    1    4    4    0    0 -0.37117830207E+02  0.27103018303E+02  0.77552960674E+01  0.46609564872E+02  0.00000000000E+00 0. -1.
        -14    1    4    4    0    0  0.29758509060E+02 -0.60119253820E+01  0.40687332604E+02  0.50765846223E+02  0.00000000000E+00 0.  1.
        -13    1    3    3    0    0  0.11694472883E+02 -0.16344693436E+02 -0.30858143960E+02  0.36825734863E+02  0.00000000000E+00 0.  1.
         13    1    3    3    0    0 -0.85183306088E+00 -0.25478379066E+02  0.59066411338E+02  0.64332840507E+02  0.00000000000E+00 0. -1.
         21    1    1    2  502  501 -0.34833186746E+01  0.20731979581E+02  0.30860023633E+02  0.37340186729E+02  0.00000000000E+00 0.  1.
<scales pt_clust_5="13000.00000" pt_clust_6="13000.00000" pt_clust_7="13000.00000" pt_clust_8="13000.00000" pt_clust_9="21.02257"></scales>
<clustering>
<clus scale="   21.023">  1  9  2 -1</clus>
<clus scale="   81.463">  5  6 -1 -1</clus>
<clus scale="   87.009">  7  8 -1 -1</clus>
<clus scale="   88.034">  1  5  2 -1</clus>
<clus scale="   21.023">  1  5  2 -1</clus>
</clustering>
</event>
<event>
 9    1  0.2951046E-005  0.3544735E+03  0.7546771E-02  0.1061001E+00
         -2   -1    0    0    0  501 -0.00000000000E+00  0.00000000000E+00  0.12725740709E+04  0.12725740709E+04  0.00000000000E+00 0.  1.
          1   -1    0    0  502    0  0.00000000000E+00 -0.00000000000E+00 -0.12780998475E+03  0.12780998475E+03  0.00000000000E+00 0. -1.
        -24    2    1    2    0    0 -0.33035910137E+02 -0.35574513224E+03  0.70197021002E+03  0.79212851553E+03  0.84020467043E+02 0.  0.
         23    2    1    2    0    0  0.31892952126E+02  0.32237601934E+03  0.46044407610E+03  0.57048870800E+03  0.92223427065E+02 0.  0.
         13    1    3    3    0    0 -0.26716854155E+02 -0.69340593388E+02  0.92205378255E+02  0.11842187284E+03  0.00000000000E+00 0. -1.
        -14    1    3    3    0    0 -0.63190559820E+01 -0.28640453885E+03  0.60976483177E+03  0.67370664269E+03  0.00000000000E+00 0.  1.
        -13    1    4    4    0    0 -0.19238369134E+02  0.25270237148E+02  0.72704519581E+02  0.79338810806E+02  0.00000000000E+00 0. -1.
         13    1    4    4    0    0  0.51131321261E+02  0.29710578219E+03  0.38773955652E+03  0.49114989720E+03  0.00000000000E+00 0.  1.
         21    1    1    2  502  501  0.11429580110E+01  0.33369112901E+02 -0.17650199981E+02  0.37766832117E+02  0.00000000000E+00 0. -1.
<scales pt_clust_5="13000.00000" pt_clust_6="13000.00000" pt_clust_7="13000.00000" pt_clust_8="13000.00000" pt_clust_9="33.38868"></scales>
<clustering>
<clus scale="   33.389">  2  9  1 -1</clus>
<clus scale="   84.020">  5  6 -1 -1</clus>
<clus scale="   92.223">  7  8 -1 -1</clus>
<clus scale="  352.428">  1  5  2 -1</clus>
<clus scale="   33.389">  2  5  1 -1</clus>
</clustering>
</event>
<event>
 9    1  0.2951046E-005  0.1103523E+03  0.7546771E-02  0.1263868E+00
         -2   -1    0    0    0  501 -0.00000000000E+00  0.00000000000E+00  0.12198728251E+04  0.12198728251E+04  0.00000000000E+00 0.  1.
          1   -1    0    0  502    0  0.00000000000E+00 -0.00000000000E+00 -0.15664381328E+02  0.15664381328E+02  0.00000000000E+00 0. -1.
        -24    2    1    2    0    0 -0.44233246650E+02  0.45039488440E+02  0.76721713669E+03  0.77372800209E+03  0.77767285920E+02 0.  0.
         23    2    1    2    0    0  0.31697199314E+02 -0.72858383140E+02  0.34197148173E+03  0.36201035367E+03  0.88283324638E+02 0.  0.
         11    1    3    3    0    0 -0.20237393137E+02  0.18492715857E+02  0.64293725246E+02  0.69894318272E+02  0.00000000000E+00 0. -1.
        -12    1    3    3    0    0 -0.23995853513E+02  0.26546772583E+02  0.70292341144E+03  0.70383368381E+03  0.00000000000E+00 0.  1.
        -11    1    4    4    0    0  0.57787292573E+02 -0.25759939285E+02  0.15428665005E+03  0.16675525791E+03  0.00000000000E+00 0.  1.
         11    1    4    4    0    0 -0.26090093258E+02 -0.47098443855E+02  0.18768483168E+03  0.19525509577E+03  0.00000000000E+00 0. -1.
         21    1    1    2  502  501  0.12536047335E+02  0.27818894700E+02  0.95019825381E+02  0.99798850698E+02  0.00000000000E+00 0.  1.
<scales pt_clust_5="13000.00000" pt_clust_6="13000.00000" pt_clust_7="13000.00000" pt_clust_8="13000.00000" pt_clust_9="30.51300"></scales>
<clustering>
<clus scale="   30.513">  2  9  1 -1</clus>
<clus scale="   77.767">  5  6 -1 -1</clus>
<clus scale="   88.283">  7  8 -1 -1</clus>
<clus scale="  102.134">  1  5  2 -1</clus>
<clus scale="   30.513">  2  5  1 -1</clus>
</clustering>
</event>
<event>
 9    1  0.2951046E-005  0.1719994E+03  0.7546771E-02  0.1176408E+00
          1   -1    0    0  502    0  0.00000000000E+00  0.00000000000E+00  0.35911468756E+03  0.35911468756E+03  0.00000000000E+00 0. -1.
         -2   -1    0    0    0  501 -0.00000000000E+00 -0.00000000000E+00 -0.22259188391E+03  0.22259188391E+03  0.00000000000E+00 0.  1.
        -24    2    1    2    0    0  0.12388962518E+03  0.79285201867E+02 -0.14440309650E+03  0.22326331260E+03  0.85787353442E+02 0.  0.
         23    2    1    2    0    0 -0.14023935407E+03 -0.39847782554E+02  0.25836218725E+03  0.31015511522E+03  0.90500019277E+02 0.  0.
         13    1    3    3    0    0  0.74362715289E+02  0.79680457922E+01 -0.10241717051E+03  0.12681711239E+03  0.00000000000E+00 0. -1.
        -14    1    3    3    0    0  0.49526909890E+02  0.71317156075E+02 -0.41985925996E+02  0.96446200213E+02  0.00000000000E+00 0.  1.
        -13    1    4    4    0    0 -0.91434481621E+02 -0.19262130269E+02  0.23377532506E+03  0.25175821079E+03  0.00000000000E+00 0.  1.
         13    1    4    4    0    0 -0.48804872447E+02 -0.20585652285E+02  0.24586862195E+02  0.58396904431E+02  0.00000000000E+00 0. -1.
         21    1    1    2  502  501  0.16349728890E+02 -0.39437419313E+02  0.22563712902E+02  0.48288143646E+02  0.00000000000E+00 0. -1.
<scales pt_clust_5="13000.00000" pt_clust_6="13000.00000" pt_clust_7="13000.00000" pt_clust_8="13000.00000" pt_clust_9="42.69220"></scales>
<clustering>
<clus scale="   42.692">  1  9  2 -1</clus>
<clus scale="   85.787">  5  6 -1 -1</clus>
<clus scale="   90.500">  7  8 -1 -1</clus>
<clus scale="  169.567">  2  5  1 -1</clus>
<clus scale="   42.692">  1  5  2 -1</clus>
</clustering>
</event>
<event>
 9    1  0.2951046E-005  0.1541547E+03  0.7546771E-02  0.1203488E+00
          1   -1    0    0  502    0  0.00000000000E+00  0.00000000000E+00  0.63365142219E+03  0.63365142219E+03  0.00000000000E+00 0. -1.
         -2   -1    0    0    0  501 -0.00000000000E+00 -0.00000000000E+00 -0.79267436864E+02  0.79267436864E+02  0.00000000000E+00 0.  1.
         23    2    1    2    0    0  0.10132004077E+03  0.10512078933E+02  0.30443234381E+02  0.15719450838E+03  0.11578889618E+03 0.  0.
        -24    2    1    2    0    0 -0.93571125754E+02 -0.58345194945E+02  0.36714720638E+03  0.39161381387E+03  0.80028686838E+02 0.  0.
         13    1    4    4    0    0 -0.86808235180E+02 -0.33343568337E+02  0.34569290027E+03  0.35798190532E+03  0.00000000000E+00 0. -1.
        -14    1    4    4    0    0 -0.67628905744E+01 -0.25001626607E+02  0.21454306110E+02  0.33631908548E+02  0.00000000000E+00 0.  1.
        -11    1    3    3    0    0  0.97008479584E+02 -0.30693495780E+02 -0.61269517850E+01  0.10193270002E+03  0.00000000000E+00 0.  1.
         11    1    3    3    0    0  0.43115611911E+01  0.41205574713E+02  0.36570186166E+02  0.55261808363E+02  0.00000000000E+00 0. -1.
         21    1    1    2  502  501 -0.77489150205E+01  0.47833116012E+02  0.15679354456E+03  0.16411053680E+03  0.00000000000E+00 0.  1.
<scales pt_clust_5="13000.00000" pt_clust_6="13000.00000" pt_clust_7="13000.00000" pt_clust_8="13000.00000" pt_clust_9="48.45671"></scales>
<clustering>
<clus scale="   48.457">  1  9  2 -1</clus>
<clus scale="   80.029">  5  6 -1 -1</clus>
<clus scale="  115.789">  7  8 -1 -1</clus>
<clus scale="  129.465">  1  5  2 -1</clus>
<clus scale="   48.457">  1  5  2 -1</clus>
</clustering>
</event>
<event>
 9    1  0.2951046E-005  0.1149585E+03  0.7546771E-02  0.1259899E+00
          1   -1    0    0  502    0  0.00000000000E+00  0.00000000000E+00  0.20994652239E+03  0.20994652239E+03  0.00000000000E+00 0. -1.
         -2   -1    0    0    0  501 -0.00000000000E+00 -0.00000000000E+00 -0.27178643270E+03  0.27178643270E+03  0.00000000000E+00 0.  1.
        -24    2    1    2    0    0  0.29399723963E+02 -0.44398113993E+02 -0.21841121806E+03  0.23867742949E+03  0.80174303095E+02 0.  0.
         23    2    1    2    0    0 -0.41159305222E+02  0.87444571114E+02  0.13243911599E+03  0.19232439214E+03  0.10053810694E+03 0.  0.
         13    1    3    3    0    0  0.50501736209E+02 -0.25411342346E+02 -0.83675549895E+02  0.10098395581E+03  0.00000000000E+00 0. -1.
        -14    1    3    3    0    0 -0.21102012246E+02 -0.18986771647E+02 -0.13473566817E+03  0.13769347368E+03  0.00000000000E+00 0.  1.
        -13    1    4    4    0    0 -0.48657674469E+02  0.28028573888E+01  0.23341308288E+02  0.54039263197E+02  0.00000000000E+00 0.  1.
         13    1    4    4    0    0  0.74983692472E+01  0.84641713725E+02  0.10909780770E+03  0.13828512895E+03  0.00000000000E+00 0. -1.
         21    1    1    2  502  501  0.11759581259E+02 -0.43046457121E+02  0.24132191771E+02  0.50731133456E+02  0.00000000000E+00 0.  1.
<scales pt_clust_5="13000.00000" pt_clust_6="13000.00000" pt_clust_7="13000.00000" pt_clust_8="13000.00000" pt_clust_9="44.62382"></scales>
<clustering>
<clus scale="   44.624">  1  9  2 -1</clus>
<clus scale="   80.174">  5  6 -1 -1</clus>
<clus scale="   97.650">  2  5  1 -1</clus>
<clus scale="  100.538">  7  8 -1 -1</clus>
<clus scale="   44.624">  1  5  2 -1</clus>
</clustering>
</event>
<event>
 9    1  0.2951046E-005  0.1089080E+03  0.7546771E-02  0.1266808E+00
          1   -1    0    0  502    0  0.00000000000E+00  0.00000000000E+00  0.40538117354E+03  0.40538117354E+03  0.00000000000E+00 0. -1.
         -2   -1    0    0    0  501 -0.00000000000E+00 -0.00000000000E+00 -0.41628879640E+02  0.41628879640E+02  0.00000000000E+00 0.  1.
        -24    2    1    2    0    0  0.47854341791E+00  0.60196543594E+02  0.91704198049E+02  0.13540583713E+03  0.79380274158E+02 0.  0.
         23    2    1    2    0    0  0.33062899042E+02 -0.60065072361E+02  0.17008737357E+03  0.20426813388E+03  0.89971037896E+02 0.  0.
         13    1    3    3    0    0  0.16111047054E+02  0.64517439490E+02  0.97640946372E+02  0.11813475460E+03  0.00000000000E+00 0. -1.
        -14    1    3    3    0    0 -0.15632503636E+02 -0.43208958960E+01 -0.59367483232E+01  0.17271082535E+02  0.00000000000E+00 0.  1.
        -13    1    4    4    0    0  0.29131569490E+02  0.99465495627E+01  0.15380354025E+02  0.34411298712E+02  0.00000000000E+00 0.  1.
         13    1    4    4    0    0  0.39313295525E+01 -0.70011621923E+02  0.15470701955E+03  0.16985683517E+03  0.00000000000E+00 0. -1.
         21    1    1    2  502  501 -0.33541442460E+02 -0.13147123327E+00  0.10196072228E+03  0.10733608216E+03  0.00000000000E+00 0.  1.
<scales pt_clust_5="13000.00000" pt_clust_6="13000.00000" pt_clust_7="13000.00000" pt_clust_8="13000.00000" pt_clust_9="33.54170"></scales>
<clustering>
<clus scale="   33.542">  1  9  2 -1</clus>
<clus scale="   79.380">  5  6 -1 -1</clus>
<clus scale="   89.971">  7  8 -1 -1</clus>
<clus scale="  100.336">  2  5  1 -1</clus>
<clus scale="   33.542">  1  5  2 -1</clus>
</clustering>
</event>
<event>
 9    1  0.2951046E-005  0.1335628E+03  0.7546771E-02  0.1225232E+00
          1   -1    0    0  502    0  0.00000000000E+00  0.00000000000E+00  0.22902770474E+03  0.22902770474E+03  0.00000000000E+00 0. -1.
         -2   -1    0    0    0  501 -0.00000000000E+00 -0.00000000000E+00 -0.11376422305E+03  0.11376422305E+03  0.00000000000E+00 0.  1.
        -24    2    1    2    0    0  0.10144348548E+03  0.35457000651E+02  0.79334833165E+01  0.13408034192E+03  0.79791091548E+02 0.  0.
         23    2    1    2    0    0 -0.79607434020E+02 -0.30000861364E+02  0.30831687659E+02  0.12897091781E+03  0.91899452899E+02 0.  0.
         13    1    3    3    0    0  0.92556129011E+02  0.24194436007E+02  0.36276422201E+02  0.10231317881E+03  0.00000000000E+00 0. -1.
        -14    1    3    3    0    0  0.88873564735E+01  0.11262564644E+02 -0.28342938885E+02  0.31767163110E+02  0.00000000000E+00 0.  1.
        -11    1    4    4    0    0 -0.59194257311E+02 -0.39108027376E+01  0.60332399122E+02  0.84612368247E+02  0.00000000000E+00 0. -1.
         11    1    4    4    0    0 -0.20413176710E+02 -0.26090058626E+02 -0.29500711463E+02  0.44358549563E+02  0.00000000000E+00 0.  1.
         21    1    1    2  502  501 -0.21836051464E+02 -0.54561392871E+01  0.76498310712E+02  0.79740668051E+02  0.00000000000E+00 0.  1.
<scales pt_clust_5="13000.00000" pt_clust_6="13000.00000" pt_clust_7="13000.00000" pt_clust_8="13000.00000" pt_clust_9="22.50739"></scales>
<clustering>
<clus scale="   22.507">  1  9  2 -1</clus>
<clus scale="   79.791">  5  6 -1 -1</clus>
<clus scale="   91.899">  7  8 -1 -1</clus>
<clus scale="  125.539">  2  5  1 -1</clus>
<clus scale="   22.507">  1  5  2 -1</clus>
</clustering>
</event>
<event>
 9    1  0.2951046E-005  0.1113454E+03  0.7546771E-02  0.1265467E+00
          3   -1    0    0  502    0  0.00000000000E+00  0.00000000000E+00  0.65666422899E+03  0.65666422899E+03  0.00000000000E+00 0. -1.
         -4   -1    0    0    0  501 -0.00000000000E+00 -0.00000000000E+00 -0.48697885226E+02  0.48697885226E+02  0.00000000000E+00 0.  1.
        -24    2    1    2    0    0  0.41771528161E+02 -0.43691682025E+02  0.83383069104E+02  0.12535213393E+03  0.71460461973E+02 0.  0.
         23    2    1    2    0    0  0.34777625898E+02  0.70056644158E+02  0.46316226411E+03  0.47838604239E+03  0.90644944729E+02 0.  0.
         11    1    3    3    0    0  0.51881252584E+02 -0.40758008416E+02  0.90969977759E+02  0.11237622735E+03  0.00000000000E+00 0. -1.
        -12    1    3    3    0    0 -0.10109724423E+02 -0.29336736095E+01 -0.75869086553E+01  0.12975906585E+02  0.00000000000E+00 0.  1.
        -13    1    4    4    0    0 -0.19875649840E+02 -0.40106256221E+01  0.35071935017E+02  0.40511321878E+02  0.00000000000E+00 0. -1.
         13    1    4    4    0    0  0.54653275737E+02  0.74067269780E+02  0.42809032910E+03  0.43787472052E+03  0.00000000000E+00 0.  1.
         21    1    1    2  502  501 -0.76549154059E+02 -0.26364962132E+02  0.61421010546E+02  0.10162393789E+03  0.00000000000E+00 0. -1.
<scales pt_clust_5="13000.00000" pt_clust_6="13000.00000" pt_clust_7="13000.00000" pt_clust_8="13000.00000" pt_clust_9="80.96224"></scales>
<clustering>
<clus scale="   71.460">  5  6 -1 -1</clus>
<clus scale="   80.962">  2  9  1 -1</clus>
<clus scale="   90.645">  7  8 -1 -1</clus>
<clus scale="   96.374">  2  5  1 -1</clus>
<clus scale="  111.345">  1  5  2 -1</clus>
</clustering>
</event>
<event>
 9    1  0.2951046E-005  0.9787575E+02  0.7546771E-02  0.1290862E+00
          1   -1    0    0  502    0  0.00000000000E+00  0.00000000000E+00  0.13375360800E+03  0.13375360800E+03  0.00000000000E+00 0. -1.
         -2   -1    0    0    0  501 -0.00000000000E+00 -0.00000000000E+00 -0.14944477625E+03  0.14944477625E+03  0.00000000000E+00 0.  1.
        -24    2    1    2    0    0 -0.40035484064E+02  0.21242698435E+02 -0.66809137752E+02  0.11427115786E+03  0.80872395850E+02 0.  0.
         23    2    1    2    0    0 -0.10260167045E+02 -0.27655388871E+02 -0.29454700488E+00  0.96719041448E+02  0.92110773850E+02 0.  0.
         11    1    3    3    0    0 -0.97786197193E+01  0.42589996996E+02 -0.74788198911E+01  0.44333531268E+02  0.00000000000E+00 0. -1.
        -12    1    3    3    0    0 -0.30256864345E+02 -0.21347298562E+02 -0.59330317861E+02  0.69937626592E+02  0.00000000000E+00 0.  1.
        -11    1    4    4    0    0 -0.51187474360E+02 -0.16225087854E+02 -0.51750869575E+01  0.53946200350E+02  0.00000000000E+00 0.  1.
         11    1    4    4    0    0  0.40927307315E+02 -0.11430301017E+02  0.48805399526E+01  0.42772841098E+02  0.00000000000E+00 0. -1.
         21    1    1    2  502  501  0.50295651109E+02  0.64126904357E+01  0.51412516502E+02  0.72208184939E+02  0.00000000000E+00 0. -1.
<scales pt_clust_5="13000.00000" pt_clust_6="13000.00000" pt_clust_7="13000.00000" pt_clust_8="13000.00000" pt_clust_9="50.70281"></scales>
<clustering>
<clus scale="   50.703">  1  9  2 -1</clus>
<clus scale="   80.872">  5  6 -1 -1</clus>
<clus scale="   87.382">  2  5  1 -1</clus>
<clus scale="   92.111">  7  8 -1 -1</clus>
<clus scale="   50.703">  1  5  2 -1</clus>
</clustering>
</event>
<event>
 9    1  0.2951046E-005  0.1012392E+03  0.7546771E-02  0.1281980E+00
          1   -1    0    0  502    0  0.00000000000E+00  0.00000000000E+00  0.47725945425E+03  0.47725945425E+03  0.00000000000E+00 0. -1.
         -2   -1    0    0    0  501 -0.00000000000E+00 -0.00000000000E+00 -0.30182457721E+02  0.30182457721E+02  0.00000000000E+00 0.  1.
        -24    2    1    2    0    0 -0.94599476784E+01  0.50795831163E+02  0.89044951427E+02  0.13071335253E+03  0.80543591184E+02 0.  0.
         23    2    1    2    0    0  0.16160140056E+02 -0.31551573541E+02  0.30765445558E+03  0.32238579953E+03  0.89580621667E+02 0.  0.
         11    1    3    3    0    0 -0.32676054593E+02 -0.26127519916E+01  0.52709642506E+02  0.62071389785E+02  0.00000000000E+00 0. -1.
        -12    1    3    3    0    0  0.23216106914E+02  0.53408583154E+02  0.36335308921E+02  0.68641962743E+02  0.00000000000E+00 0.  1.
        -13    1    4    4    0    0  0.97469839485E+00  0.29001279154E+02  0.55614924559E+02  0.62729929565E+02  0.00000000000E+00 0.  1.
         13    1    4    4    0    0  0.15185441661E+02 -0.60552852694E+02  0.25203953103E+03  0.25965586996E+03  0.00000000000E+00 0. -1.
         21    1    1    2  502  501 -0.67001923771E+01 -0.19244257622E+02  0.50377589516E+02  0.54342759911E+02  0.00000000000E+00 0. -1.
<scales pt_clust_5="13000.00000" pt_clust_6="13000.00000" pt_clust_7="13000.00000" pt_clust_8="13000.00000" pt_clust_9="20.37729"></scales>
<clustering>
<clus scale="   20.377">  1  9  2 -1</clus>
<clus scale="   80.544">  5  6 -1 -1</clus>
<clus scale="   89.581">  7  8 -1 -1</clus>
<clus scale="   93.338">  2  5  1 -1</clus>
<clus scale="   20.377">  1  5  2 -1</clus>
</clustering>
</event>
<event>
 9    1  0.2951046E-005  0.1191140E+03  0.7546771E-02  0.1249060E+00
          1   -1    0    0  502    0  0.00000000000E+00  0.00000000000E+00  0.68588114590E+03  0.68588114590E+03  0.00000000000E+00 0. -1.
         -2   -1    0    0    0  501 -0.00000000000E+00 -0.00000000000E+00 -0.61582662360E+02  0.61582662360E+02  0.00000000000E+00 0.  1.
         23    2    1    2    0    0  0.61052078341E+02 -0.42102774480E+02  0.11383072792E+02  0.12031314980E+03  0.94051474094E+02 0.  0.
        -24    2    1    2    0    0 -0.66081147275E+02  0.16949839540E+02  0.52732585561E+03  0.53780003664E+03  0.80636879501E+02 0.  0.
         13    1    4    4    0    0  0.67545923714E+01 -0.21937373086E+02  0.12480340653E+03  0.12689666322E+03  0.00000000000E+00 0. -1.
        -14    1    4    4    0    0 -0.72835739646E+02  0.38887212626E+02  0.40252244908E+03  0.41090337342E+03  0.00000000000E+00 0.  1.
        -11    1    3    3    0    0 -0.10666514133E+02 -0.19472228436E+02  0.35034601557E+02  0.41477289090E+02  0.00000000000E+00 0. -1.
         11    1    3    3    0    0  0.71718592473E+02 -0.22630546044E+02 -0.23651528764E+02  0.78835860708E+02  0.00000000000E+00 0.  1.
         21    1    1    2  502  501  0.50290689338E+01  0.25152934941E+02  0.85589555145E+02  0.89350621824E+02  0.00000000000E+00 0.  1.
<scales pt_clust_5="13000.00000" pt_clust_6="13000.00000" pt_clust_7="13000.00000" pt_clust_8="13000.00000" pt_clust_9="25.65076"></scales>
<clustering>
<clus scale="   25.651">  1  9  2 -1</clus>
<clus scale="   80.637">  5  6 -1 -1</clus>
<clus scale="   94.051">  7  8 -1 -1</clus>
<clus scale="  108.834">  1  5  2 -1</clus>
<clus scale="   25.651">  1  5  2 -1</clus>
</clustering>
</event>
<event>
 9    1  0.2951046E-005  0.1017782E+03  0.7546771E-02  0.1287710E+00
          1   -1    0    0  502    0  0.00000000000E+00  0.00000000000E+00  0.54016406131E+02  0.54016406131E+02  0.00000000000E+00 0. -1.
         -2   -1    0    0    0  501 -0.00000000000E+00 -0.00000000000E+00 -0.50237746844E+03  0.50237746844E+03  0.00000000000E+00 0.  1.
        -24    2    1    2    0    0  0.39825152473E+01  0.30420630242E+02 -0.29913263856E+03  0.31006912921E+03  0.75638973181E+02 0.  0.
         23    2    1    2    0    0 -0.34386682271E+02 -0.30591809193E+02 -0.17597035939E+03  0.20583309441E+03  0.96350364122E+02 0.  0.
         11    1    3    3    0    0 -0.15193438122E+02  0.13169521861E+02 -0.15818471557E+02  0.25583215405E+02  0.00000000000E+00 0. -1.
        -12    1    3    3    0    0  0.19175953370E+02  0.17251108381E+02 -0.28331416700E+03  0.28448591380E+03  0.00000000000E+00 0.  1.
        -13    1    4    4    0    0  0.27283839130E+02  0.88055536333E+01 -0.24908273335E+02  0.37978516730E+02  0.00000000000E+00 0.  1.
         13    1    4    4    0    0 -0.61670521402E+02 -0.39397362826E+02 -0.15106208605E+03  0.16785457769E+03  0.00000000000E+00 0. -1.
         21    1    1    2  502  501  0.30404167024E+02  0.17117895046E+00  0.26741935639E+02  0.40491650946E+02  0.00000000000E+00 0. -1.
<scales pt_clust_5="13000.00000" pt_clust_6="13000.00000" pt_clust_7="13000.00000" pt_clust_8="13000.00000" pt_clust_9="30.40465"></scales>
<clustering>
<clus scale="   30.405">  1  9  2 -1</clus>
<clus scale="   75.639">  5  6 -1 -1</clus>
<clus scale="   82.442">  2  5  1 -1</clus>
<clus scale="   96.350">  7  8 -1 -1</clus>
<clus scale="   30.405">  1  5  2 -1</clus>
</clustering>
</event>
<event>
 9    1  0.2951046E-005  0.2100171E+03  0.7546771E-02  0.1183150E+00
          1   -1    0    0  502    0  0.00000000000E+00  0.00000000000E+00  0.19080638080E+03  0.19080638080E+03  0.00000000000E+00 0. -1.
         -2   -1    0    0    0  501 -0.00000000000E+00 -0.00000000000E+00 -0.52414261527E+03  0.52414261527E+03  0.00000000000E+00 0.  1.
        -24    2    1    2    0    0  0.68637871053E+01  0.45330234940E+00 -0.28009396502E+03  0.29130588784E+03  0.79744429223E+02 0.  0.
         23    2    1    2    0    0 -0.34356163543E+02  0.18712664482E+03 -0.92754577717E+02  0.22998544677E+03  0.89962030126E+02 0.  0.
         13    1    3    3    0    0  0.14106267313E+02 -0.37012502359E+02 -0.17696115778E+03  0.18133991142E+03  0.00000000000E+00 0. -1.
        -14    1    3    3    0    0 -0.72424802074E+01  0.37465804708E+02 -0.10313280724E+03  0.10996597642E+03  0.00000000000E+00 0.  1.
        -13    1    4    4    0    0 -0.64904675305E+02  0.12891625100E+03 -0.57264249893E+02  0.15527785085E+03  0.00000000000E+00 0. -1.
         13    1    4    4    0    0  0.30548511762E+02  0.58210393813E+02 -0.35490327823E+02  0.74707595917E+02  0.00000000000E+00 0.  1.
         21    1    1    2  502  501  0.27492376437E+02 -0.18757994717E+03  0.39512308263E+02  0.19365766147E+03  0.00000000000E+00 0. -1.
<scales pt_clust_5="13000.00000" pt_clust_6="13000.00000" pt_clust_7="13000.00000" pt_clust_8="13000.00000" pt_clust_9="189.77363"></scales>
<clustering>
<clus scale="   79.744">  5  6 -1 -1</clus>
<clus scale="   80.041">  2  5  1 -1</clus>
<clus scale="   89.962">  7  8 -1 -1</clus>
<clus scale="  189.774">  1  9  2 -1</clus>
<clus scale="  189.774">  1  5  2 -1</clus>
</clustering>
</event>
<event>
 9    1  0.2951046E-005  0.1610735E+03  0.7546771E-02  0.1188802E+00
         -2   -1    0    0    0  501 -0.00000000000E+00  0.00000000000E+00  0.11627419417E+03  0.11627419417E+03  0.00000000000E+00 0.  1.
          1   -1    0    0  502    0  0.00000000000E+00 -0.00000000000E+00 -0.81033656809E+03  0.81033656809E+03  0.00000000000E+00 0. -1.
        -24    2    1    2    0    0 -0.67821420743E+02  0.11789599526E+03  0.47974367089E+02  0.16486887503E+03  0.79881131990E+02 0.  0.
         23    2    1    2    0    0  0.70205271418E+02 -0.96835558893E+02 -0.60290079108E+03  0.62100085808E+03  0.88582144096E+02 0.  0.
         13    1    3    3    0    0 -0.26486716862E+02  0.87294575986E+02 -0.45767463090E+01  0.91339125097E+02  0.00000000000E+00 0. -1.
        -14    1    3    3    0    0 -0.41334703881E+02  0.30601419271E+02  0.52551113398E+02  0.73529749936E+02  0.00000000000E+00 0.  1.
        -11    1    4    4    0    0 -0.21065333523E+02 -0.14357140835E+02 -0.88782115902E+02  0.92369583053E+02  0.00000000000E+00 0.  1.
         11    1    4    4    0    0  0.91270604941E+02 -0.82478418058E+02 -0.51411867518E+03  0.52863127503E+03  0.00000000000E+00 0. -1.
         21    1    1    2  502  501 -0.23838506752E+01 -0.21060436364E+02 -0.13913594993E+03  0.14074102915E+03  0.00000000000E+00 0.  1.
<scales pt_clust_5="13000.00000" pt_clust_6="13000.00000" pt_clust_7="13000.00000" pt_clust_8="13000.00000" pt_clust_9="21.19492"></scales>
<clustering>
<clus scale="   21.195">  2  9  1 -1</clus>
<clus scale="   79.881">  5  6 -1 -1</clus>
<clus scale="   88.582">  7  8 -1 -1</clus>
<clus scale="  156.457">  1  5  2 -1</clus>
<clus scale="   21.195">  2  5  1 -1</clus>
</clustering>
</event>
<event>
 9    1  0.2951046E-005  0.1035910E+03  0.7546771E-02  0.1274724E+00
          3   -1    0    0  502    0  0.00000000000E+00  0.00000000000E+00  0.64558589524E+02  0.64558589524E+02  0.00000000000E+00 0. -1.
         -4   -1    0    0    0  501 -0.00000000000E+00 -0.00000000000E+00 -0.47380674594E+03  0.47380674594E+03  0.00000000000E+00 0.  1.
         23    2    1    2    0    0  0.52408334949E+02  0.15664753930E+02 -0.36273899978E+03  0.37820901539E+03  0.92035098060E+02 0.  0.
        -24    2    1    2    0    0  0.44563360760E+00 -0.37269939152E+02 -0.22542354754E+02  0.98231094091E+02  0.88045119881E+02 0.  0.
         13    1    4    4    0    0  0.89212243491E+01  0.26850255092E+02 -0.17696237676E+02  0.33371863452E+02  0.00000000000E+00 0. -1.
        -14    1    4    4    0    0 -0.84755907415E+01 -0.64120194244E+02 -0.48461170778E+01  0.64859230639E+02  0.00000000000E+00 0.  1.
        -11    1    3    3    0    0  0.11537957519E+02 -0.37931699418E+02 -0.13728554616E+03  0.14289597430E+03  0.00000000000E+00 0. -1.
         11    1    3    3    0    0  0.40870377429E+02  0.53596453348E+02 -0.22545345361E+03  0.23531304109E+03  0.00000000000E+00 0.  1.
         21    1    1    2  502  501 -0.52853968556E+02  0.21605185222E+02 -0.23966801886E+02  0.61925225985E+02  0.00000000000E+00 0. -1.
<scales pt_clust_5="13000.00000" pt_clust_6="13000.00000" pt_clust_7="13000.00000" pt_clust_8="13000.00000" pt_clust_9="57.09926"></scales>
<clustering>
<clus scale="   57.099">  1  9  2 -1</clus>
<clus scale="   88.045">  5  6 -1 -1</clus>
<clus scale="   92.035">  7  8 -1 -1</clus>
<clus scale="  100.063">  1  5  2 -1</clus>
<clus scale="   57.099">  1  5  2 -1</clus>
</clustering>
</event>
<event>
 9    1  0.2951046E-005  0.2350870E+03  0.7546771E-02  0.1154231E+00
          1   -1    0    0  502    0  0.00000000000E+00  0.00000000000E+00  0.11815884766E+04  0.11815884766E+04  0.00000000000E+00 0. -1.
         -2   -1    0    0    0  501 -0.00000000000E+00 -0.00000000000E+00 -0.14931779112E+03  0.14931779112E+03  0.00000000000E+00 0.  1.
         23    2    1    2    0    0  0.99972706051E+01 -0.57344088433E+02 -0.73761741786E+02  0.13307132223E+03  0.94227874596E+02 0.  0.
        -24    2    1    2    0    0 -0.85826561676E+02 -0.17592969295E+03  0.44279775314E+03  0.49069495126E+03  0.79963925965E+02 0.  0.
         13    1    4    4    0    0 -0.54191197141E+02 -0.17010416360E+03  0.35913121402E+03  0.40105777789E+03  0.00000000000E+00 0. -1.
        -14    1    4    4    0    0 -0.31635364534E+02 -0.58255293460E+01  0.83666539118E+02  0.89637173368E+02  0.00000000000E+00 0.  1.
        -13    1    3    3    0    0 -0.36920106445E+02 -0.51605813176E+02 -0.40554817827E+02  0.75305693427E+02  0.00000000000E+00 0. -1.
         13    1    3    3    0    0  0.46917377050E+02 -0.57382752566E+01 -0.33206923959E+02  0.57765628803E+02  0.00000000000E+00 0.  1.
         21    1    1    2  502  501  0.75829291070E+02  0.23327378138E+03  0.66323467410E+03  0.70713999420E+03  0.00000000000E+00 0.  1.
<scales pt_clust_5="13000.00000" pt_clust_6="13000.00000" pt_clust_7="13000.00000" pt_clust_8="13000.00000" pt_clust_9="221.06937"></scales>
<clustering>
<clus scale="   79.964">  5  6 -1 -1</clus>
<clus scale="   94.228">  7  8 -1 -1</clus>
<clus scale="  110.757">  2  7  1 -1</clus>
<clus scale="  221.069">  1  9  2 -1</clus>
<clus scale="  221.069">  1  5  2 -1</clus>
</clustering>
</event>
<event>
 9    1  0.2951046E-005  0.2078268E+03  0.7546771E-02  0.1144374E+00
          1   -1    0    0  502    0  0.00000000000E+00  0.00000000000E+00  0.96955384777E+03  0.96955384777E+03  0.00000000000E+00 0. -1.
         -2   -1    0    0    0  501 -0.00000000000E+00 -0.00000000000E+00 -0.94878765287E+02  0.94878765287E+02  0.00000000000E+00 0.  1.
         23    2    1    2    0    0 -0.14426151054E+03 -0.10585617567E+03  0.74166234375E+02  0.21409693403E+03  0.91213779032E+02 0.  0.
        -24    2    1    2    0    0  0.16550446691E+03  0.15033350645E+03  0.64136409887E+03  0.68373271580E+03  0.78425937042E+02 0.  0.
         11    1    4    4    0    0  0.80818588741E+02  0.28352334100E+02  0.28715579948E+03  0.29965639040E+03  0.00000000000E+00 0. -1.
        -12    1    4    4    0    0  0.84685878171E+02  0.12198117235E+03  0.35420829939E+03  0.38407632539E+03  0.00000000000E+00 0.  1.
        -13    1    3    3    0    0 -0.14999541868E+03 -0.75599252864E+02  0.50938493889E+02  0.17552379559E+03  0.00000000000E+00 0.  1.
         13    1    3    3    0    0  0.57339081406E+01 -0.30256922808E+02  0.23227740486E+02  0.38573138432E+02  0.00000000000E+00 0. -1.
         21    1    1    2  502  501 -0.21242956369E+02 -0.44477330782E+02  0.15914474924E+03  0.16660296324E+03  0.00000000000E+00 0. -1.
<scales pt_clust_5="13000.00000" pt_clust_6="13000.00000" pt_clust_7="13000.00000" pt_clust_8="13000.00000" pt_clust_9="49.28992"></scales>
<clustering>
<clus scale="   49.290">  1  9  2 -1</clus>
<clus scale="   78.426">  5  6 -1 -1</clus>
<clus scale="   91.214">  7  8 -1 -1</clus>
<clus scale="  202.540">  1  5  2 -1</clus>
<clus scale="   49.290">  1  5  2 -1</clus>
</clustering>
</event>
<event>
 9    1  0.2951046E-005  0.9736569E+02  0.7546771E-02  0.1288122E+00
         -2   -1    0    0    0  501 -0.00000000000E+00  0.00000000000E+00  0.33424324932E+02  0.33424324932E+02  0.00000000000E+00 0.  1.
          1   -1    0    0  502    0  0.00000000000E+00 -0.00000000000E+00 -0.48667528627E+03  0.48667528627E+03  0.00000000000E+00 0. -1.
         23    2    1    2    0    0 -0.56864395459E+02  0.63099324966E+01 -0.12609324188E+03  0.16159256933E+03  0.83302329476E+02 0.  0.
        -24    2    1    2    0    0  0.37430033139E+02  0.39354790970E+02 -0.19108348653E+03  0.21366520305E+03  0.78677272536E+02 0.  0.
         13    1    4    4    0    0  0.56409075430E+02  0.12999929930E+02 -0.15316610827E+03  0.16374015601E+03  0.00000000000E+00 0. -1.
        -14    1    4    4    0    0 -0.18979042291E+02  0.26354861040E+02 -0.37917378267E+02  0.49925047035E+02  0.00000000000E+00 0.  1.
        -13    1    3    3    0    0 -0.48527134712E+02 -0.15338065796E+02 -0.12855675445E+03  0.13826416087E+03  0.00000000000E+00 0. -1.
         13    1    3    3    0    0 -0.83372607468E+01  0.21647998293E+02  0.24635125789E+01  0.23328408456E+02  0.00000000000E+00 0.  1.
         21    1    1    2  502  501  0.19434362320E+02 -0.45664723467E+02 -0.13607423293E+03  0.14484183883E+03  0.00000000000E+00 0. -1.
<scales pt_clust_5="13000.00000" pt_clust_6="13000.00000" pt_clust_7="13000.00000" pt_clust_8="13000.00000" pt_clust_9="49.62823"></scales>
<clustering>
<clus scale="   49.628">  2  9  1 -1</clus>
<clus scale="   78.677">  5  6 -1 -1</clus>
<clus scale="   83.302">  7  8 -1 -1</clus>
<clus scale="   93.439">  2  5  1 -1</clus>
<clus scale="   49.628">  2  5  1 -1</clus>
</clustering>
</event>
<event>
 9    1  0.2951046E-005  0.1642456E+03  0.7546771E-02  0.1216017E+00
         -2   -1    0    0    0  501 -0.00000000000E+00  0.00000000000E+00  0.15948586918E+03  0.15948586918E+03  0.00000000000E+00 0.  1.
          1   -1    0    0  502    0  0.00000000000E+00 -0.00000000000E+00 -0.93810083655E+03  0.93810083655E+03  0.00000000000E+00 0. -1.
        -24    2    1    2    0    0 -0.48856269155E+01  0.75912984192E+01 -0.77635499701E+02  0.11285116403E+03  0.81404037043E+02 0.  0.
         23    2    1    2    0    0 -0.51789356464E+02 -0.13224942267E+03  0.83832997811E+02  0.18806603202E+03  0.90381489457E+02 0.  0.
         13    1    3    3    0    0 -0.33245787043E+02  0.30094241590E+02 -0.34777973637E+02  0.56749036849E+02  0.00000000000E+00 0. -1.
        -14    1    3    3    0    0  0.28360160128E+02 -0.22502943171E+02 -0.42857526064E+02  0.56102127180E+02  0.00000000000E+00 0.  1.
        -11    1    4    4    0    0 -0.50604305518E+02 -0.10313261567E+03  0.10208331081E+03  0.15368192638E+03  0.00000000000E+00 0.  1.
         11    1    4    4    0    0 -0.11850509456E+01 -0.29116807003E+02 -0.18250312995E+02  0.34384105634E+02  0.00000000000E+00 0. -1.
         21    1    1    2  502  501  0.56674983380E+02  0.12465812425E+03 -0.78481246548E+03  0.79666950968E+03  0.00000000000E+00 0. -1.
<scales pt_clust_5="13000.00000" pt_clust_6="13000.00000" pt_clust_7="13000.00000" pt_clust_8="13000.00000" pt_clust_9="137.14149"></scales>
<clustering>
<clus scale="   81.404">  5  6 -1 -1</clus>
<clus scale="   81.903">  1  5  2 -1</clus>
<clus scale="   90.381">  7  8 -1 -1</clus>
<clus scale="  137.141">  2  9  1 -1</clus>
<clus scale="  137.141">  2  5  1 -1</clus>
</clustering>
</event>
<event>
 9    1  0.2951046E-005  0.1461014E+03  0.7546771E-02  0.1208452E+00
          1   -1    0    0  502    0  0.00000000000E+00  0.00000000000E+00  0.44730229343E+03  0.44730229343E+03  0.00000000000E+00 0. -1.
         -2   -1    0    0    0  501 -0.00000000000E+00 -0.00000000000E+00 -0.53200526273E+02  0.53200526273E+02  0.00000000000E+00 0.  1.
        -24    2    1    2    0    0  0.15168249057E+02  0.10489910379E+03  0.14537180427E+03  0.19484549218E+03  0.74819159235E+02 0.  0.
         23    2    1    2    0    0 -0.25683183910E+02 -0.12334826342E+03  0.20678839269E+03  0.25864636437E+03  0.90895997865E+02 0.  0.
         13    1    3    3    0    0  0.38654845173E+02  0.41385780205E+02  0.94421561102E+02  0.11010182133E+03  0.00000000000E+00 0. -1.
        -14    1    3    3    0    0 -0.23486596117E+02  0.63513323584E+02  0.50950243170E+02  0.84743670849E+02  0.00000000000E+00 0.  1.
        -13    1    4    4    0    0  0.28800792097E+02 -0.39250315196E+02  0.10537971208E+03  0.11608168067E+03  0.00000000000E+00 0. -1.
         13    1    4    4    0    0 -0.54483976007E+02 -0.84097948228E+02  0.10140868061E+03  0.14256468371E+03  0.00000000000E+00 0.  1.
         21    1    1    2  502  501  0.10514934854E+02  0.18449159634E+02  0.41941570200E+02  0.47010963157E+02  0.00000000000E+00 0.  1.
<scales pt_clust_5="13000.00000" pt_clust_6="13000.00000" pt_clust_7="13000.00000" pt_clust_8="13000.00000" pt_clust_9="21.23524"></scales>
<clustering>
<clus scale="   21.235">  1  9  2 -1</clus>
<clus scale="   74.819">  5  6 -1 -1</clus>
<clus scale="   90.896">  7  8 -1 -1</clus>
<clus scale="  136.680">  2  5  1 -1</clus>
<clus scale="   21.235">  1  5  2 -1</clus>
</clustering>
</event>
<event>
 9    1  0.2951046E-005  0.9581165E+02  0.7546771E-02  0.1294644E+00
          1   -1    0    0  502    0  0.00000000000E+00  0.00000000000E+00  0.13202296391E+03  0.13202296391E+03  0.00000000000E+00 0. -1.
         -2   -1    0    0    0  501 -0.00000000000E+00 -0.00000000000E+00 -0.18303100512E+03  0.18303100512E+03  0.00000000000E+00 0.  1.
        -24    2    1    2    0    0 -0.37650079093E+02 -0.11263224183E-01 -0.13253765967E+03  0.15829391323E+03  0.77930758714E+02 0.  0.
         23    2    1    2    0    0  0.41188341932E+02  0.30949833932E+02  0.69881730002E+02  0.12351268347E+03  0.87849616152E+02 0.  0.
         11    1    3    3    0    0 -0.19942514316E+02  0.38866483882E+02 -0.71574988903E+02  0.83852766699E+02  0.00000000000E+00 0. -1.
        -12    1    3    3    0    0 -0.17707564777E+02 -0.38877747107E+02 -0.60962670762E+02  0.74441146531E+02  0.00000000000E+00 0.  1.
        -13    1    4    4    0    0 -0.20016677974E+02  0.35184322209E+02  0.28695413125E+02  0.49618853885E+02  0.00000000000E+00 0. -1.
         13    1    4    4    0    0  0.61205019907E+02 -0.42344882768E+01  0.41186316876E+02  0.73893829584E+02  0.00000000000E+00 0.  1.
         21    1    1    2  502  501 -0.35382628392E+01 -0.30938570708E+02  0.11647888458E+02  0.33247372331E+02  0.00000000000E+00 0.  1.
<scales pt_clust_5="13000.00000" pt_clust_6="13000.00000" pt_clust_7="13000.00000" pt_clust_8="13000.00000" pt_clust_9="31.14024"></scales>
<clustering>
<clus scale="   31.140">  1  9  2 -1</clus>
<clus scale="   77.931">  5  6 -1 -1</clus>
<clus scale="   86.807">  2  5  1 -1</clus>
<clus scale="   87.850">  7  8 -1 -1</clus>
<clus scale="   31.140">  1  5  2 -1</clus>
</clustering>
</event>
<event>
 9    1  0.2951046E-005  0.1058298E+03  0.7546771E-02  0.1281264E+00
          1   -1    0    0  502    0  0.00000000000E+00  0.00000000000E+00  0.18977526058E+03  0.18977526058E+03  0.00000000000E+00 0. -1.
         -2   -1    0    0    0  501 -0.00000000000E+00 -0.00000000000E+00 -0.90108633380E+02  0.90108633380E+02  0.00000000000E+00 0.  1.
         23    2    1    2    0    0 -0.61676179899E+01  0.12157015125E+02 -0.31242290848E+02  0.10960302694E+03  0.10416770252E+03 0.  0.
        -24    2    1    2    0    0  0.91070783446E+01 -0.32998137703E+02  0.10140570301E+03  0.13403955751E+03  0.80694921810E+02 0.  0.
         11    1    4    4    0    0 -0.10523109246E+02 -0.54508656981E+02  0.48815398101E+02  0.73924776671E+02  0.00000000000E+00 0. -1.
        -12    1    4    4    0    0  0.19630187591E+02  0.21510519279E+02  0.52590304910E+02  0.60114780837E+02  0.00000000000E+00 0.  1.
        -11    1    3    3    0    0 -0.40087967411E+02  0.40505353730E+02 -0.32062084936E+02  0.65388883630E+02  0.00000000000E+00 0.  1.
         11    1    3    3    0    0  0.33920349421E+02 -0.28348338605E+02  0.81979408766E+00  0.44214143312E+02  0.00000000000E+00 0. -1.
         21    1    1    2  502  501 -0.29394603547E+01  0.20841122578E+02  0.29503215036E+02  0.36241309509E+02  0.00000000000E+00 0.  1.
<scales pt_clust_5="13000.00000" pt_clust_6="13000.00000" pt_clust_7="13000.00000" pt_clust_8="13000.00000" pt_clust_9="21.04739"></scales>
<clustering>
<clus scale="   21.047">  1  9  2 -1</clus>
<clus scale="   80.695">  5  6 -1 -1</clus>
<clus scale="   82.829">  1  5  2 -1</clus>
<clus scale="  104.168">  7  8 -1 -1</clus>
<clus scale="   21.047">  1  5  2 -1</clus>
</clustering>
</event>
<event>
 9    1  0.2951046E-005  0.1396986E+03  0.7546771E-02  0.1216035E+00
         -2   -1    0    0    0  501 -0.00000000000E+00  0.00000000000E+00  0.15410458998E+03  0.15410458998E+03  0.00000000000E+00 0.  1.
          1   -1    0    0  502    0  0.00000000000E+00 -0.00000000000E+00 -0.43259728576E+03  0.43259728576E+03  0.00000000000E+00 0. -1.
         23    2    1    2    0    0  0.10304959143E+03 -0.91784677311E+01  0.88371242770E+02  0.16412779767E+03  0.91787770740E+02 0.  0.
        -24    2    1    2    0    0 -0.12473976888E+03 -0.31727385870E+02 -0.32986647513E+03  0.36330718211E+03  0.81323921457E+02 0.  0.
         11    1    4    4    0    0 -0.92011292992E+02  0.46050930764E+01 -0.27394572010E+03  0.28902169898E+03  0.00000000000E+00 0. -1.
        -12    1    4    4    0    0 -0.32728475887E+02 -0.36332478946E+02 -0.55920755036E+02  0.74285483131E+02  0.00000000000E+00 0.  1.
        -11    1    3    3    0    0  0.27632495837E+02  0.39384728794E+02  0.24337055583E+02  0.53916639017E+02  0.00000000000E+00 0.  1.
         11    1    3    3    0    0  0.75417095589E+02 -0.48563196525E+02  0.64034187188E+02  0.11021115866E+03  0.00000000000E+00 0. -1.
         21    1    1    2  502  501  0.21690177452E+02  0.40905853601E+02 -0.36997463416E+02  0.59266895953E+02  0.00000000000E+00 0. -1.
<scales pt_clust_5="13000.00000" pt_clust_6="13000.00000" pt_clust_7="13000.00000" pt_clust_8="13000.00000" pt_clust_9="46.30068"></scales>
<clustering>
<clus scale="   46.301">  2  9  1 -1</clus>
<clus scale="   81.324">  5  6 -1 -1</clus>
<clus scale="   91.788">  7  8 -1 -1</clus>
<clus scale="  133.057">  2  5  1 -1</clus>
<clus scale="   46.301">  2  5  1 -1</clus>
</clustering>
</event>
<event>
 9    1  0.2951046E-005  0.9407328E+02  0.7546771E-02  0.1297954E+00
          1   -1    0    0  502    0  0.00000000000E+00  0.00000000000E+00  0.10019417993E+03  0.10019417993E+03  0.00000000000E+00 0. -1.
         -2   -1    0    0    0  501 -0.00000000000E+00 -0.00000000000E+00 -0.26048379575E+03  0.26048379575E+03  0.00000000000E+00 0.  1.
         23    2    1    2    0    0 -0.13479939954E+02 -0.31911942971E+02 -0.20955815594E+03  0.23032079628E+03  0.89067208290E+02 0.  0.
        -24    2    1    2    0    0 -0.74233854289E+01  0.14132944537E+02  0.10690141587E+02  0.83014443611E+02  0.80760584126E+02 0.  0.
         13    1    4    4    0    0 -0.40841789852E+02 -0.39468879233E+01 -0.60842981474E+01  0.41480699205E+02  0.00000000000E+00 0. -1.
        -14    1    4    4    0    0  0.33418404423E+02  0.18079832460E+02  0.16774439735E+02  0.41533744406E+02  0.00000000000E+00 0.  1.
        -11    1    3    3    0    0  0.26159980983E+02 -0.34481059921E+00 -0.16985191099E+02  0.31192310207E+02  0.00000000000E+00 0. -1.
         11    1    3    3    0    0 -0.39639920937E+02 -0.31567132372E+02 -0.19257296484E+03  0.19912848607E+03  0.00000000000E+00 0.  1.
         21    1    1    2  502  501  0.20903325383E+02  0.17778998434E+02  0.38578398535E+02  0.47342735777E+02  0.00000000000E+00 0. -1.
<scales pt_clust_5="13000.00000" pt_clust_6="13000.00000" pt_clust_7="13000.00000" pt_clust_8="13000.00000" pt_clust_9="27.44161"></scales>
<clustering>
<clus scale="   27.442">  1  9  2 -1</clus>
<clus scale="   80.761">  5  6 -1 -1</clus>
<clus scale="   86.250">  1  5  2 -1</clus>
<clus scale="   89.067">  7  8 -1 -1</clus>
<clus scale="   27.442">  1  5  2 -1</clus>
</clustering>
</event>
<event>
 9    1  0.2951046E-005  0.1323003E+03  0.7546771E-02  0.1226648E+00
         -2   -1    0    0    0  501 -0.00000000000E+00  0.00000000000E+00  0.24005817657E+03  0.24005817657E+03  0.00000000000E+00 0.  1.
          1   -1    0    0  502    0  0.00000000000E+00 -0.00000000000E+00 -0.17470501900E+03  0.17470501900E+03  0.00000000000E+00 0. -1.
         23    2    1    2    0    0 -0.47355148977E+02 -0.86689637626E+02  0.18364533186E+03  0.22751303146E+03  0.90988835372E+02 0.  0.
        -24    2    1    2    0    0  0.58315423131E+02  0.60060722811E+02 -0.91865374502E+02  0.14816560884E+03  0.80658673495E+02 0.  0.
         13    1    4    4    0    0  0.62159431661E+02  0.63907289263E+02 -0.42965869342E+02  0.98964652749E+02  0.00000000000E+00 0. -1.
        -14    1    4    4    0    0 -0.38440085302E+01 -0.38465664518E+01 -0.48899505160E+02  0.49200956088E+02  0.00000000000E+00 0.  1.
        -11    1    3    3    0    0 -0.48274158518E+02 -0.29149921482E+02  0.30936378807E+02  0.64320850715E+02  0.00000000000E+00 0. -1.
         11    1    3    3    0    0  0.91900954115E+00 -0.57539716143E+02  0.15270895306E+03  0.16319218074E+03  0.00000000000E+00 0.  1.
         21    1    1    2  502  501 -0.10960274154E+02  0.26628914815E+02 -0.26426799796E+02  0.39084555277E+02  0.00000000000E+00 0. -1.
<scales pt_clust_5="13000.00000" pt_clust_6="13000.00000" pt_clust_7="13000.00000" pt_clust_8="13000.00000" pt_clust_9="28.79630"></scales>
<clustering>
<clus scale="   28.796">  2  9  1 -1</clus>
<clus scale="   80.659">  5  6 -1 -1</clus>
<clus scale="   90.989">  7  8 -1 -1</clus>
<clus scale="  125.420">  2  5  1 -1</clus>
<clus scale="   28.796">  2  5  1 -1</clus>
</clustering>
</event>
<event>
 9    1  0.2951046E-005  0.1696795E+03  0.7546771E-02  0.1179574E+00
          1   -1    0    0  502    0  0.00000000000E+00  0.00000000000E+00  0.26523255978E+03  0.26523255978E+03  0.00000000000E+00 0. -1.
         -2   -1    0    0    0  501 -0.00000000000E+00 -0.00000000000E+00 -0.41313332121E+03  0.41313332121E+03  0.00000000000E+00 0.  1.
        -24    2    1    2    0    0  0.17957348504E+03 -0.71148169667E+02 -0.28882417737E+03  0.35685528448E+03  0.81348571276E+02 0.  0.
         23    2    1    2    0    0 -0.11422270559E+03  0.77975183434E+02  0.18026550426E+03  0.24492644408E+03  0.91467782741E+02 0.  0.
         11    1    3    3    0    0  0.18000772172E+03 -0.49357495748E+02 -0.24591583529E+03  0.30872891072E+03  0.00000000000E+00 0. -1.
        -12    1    3    3    0    0 -0.43423667927E+00 -0.21790673919E+02 -0.42908342080E+02  0.48126373761E+02  0.00000000000E+00 0.  1.
        -13    1    4    4    0    0 -0.11609730151E+03  0.35614372237E+02  0.11603128815E+03  0.16795900320E+03  0.00000000000E+00 0. -1.
         13    1    4    4    0    0  0.18745959246E+01  0.42360811197E+02  0.64234216111E+02  0.76967440873E+02  0.00000000000E+00 0.  1.
         21    1    1    2  502  501 -0.65350779449E+02 -0.68270137670E+01 -0.39342088309E+02  0.76584152435E+02  0.00000000000E+00 0. -1.
<scales pt_clust_5="13000.00000" pt_clust_6="13000.00000" pt_clust_7="13000.00000" pt_clust_8="13000.00000" pt_clust_9="65.70641"></scales>
<clustering>
<clus scale="   65.706">  2  9  1 -1</clus>
<clus scale="   81.349">  5  6 -1 -1</clus>
<clus scale="   91.468">  7  8 -1 -1</clus>
<clus scale="  164.446">  2  5  1 -1</clus>
<clus scale="  169.680">  1  5  2 -1</clus>
</clustering>
</event>
<event>
 9    1  0.2951046E-005  0.1212010E+03  0.7546771E-02  0.1244302E+00
          1   -1    0    0  502    0  0.00000000000E+00  0.00000000000E+00  0.49237561854E+03  0.49237561854E+03  0.00000000000E+00 0. -1.
         -2   -1    0    0    0  501 -0.00000000000E+00 -0.00000000000E+00 -0.51418438092E+02  0.51418438092E+02  0.00000000000E+00 0.  1.
        -24    2    1    2    0    0  0.36409911209E+02 -0.57903636132E+02  0.41451134252E+02  0.11407060265E+03  0.81335067138E+02 0.  0.
         23    2    1    2    0    0 -0.61935451411E+02  0.55307835835E+02  0.37249666251E+03  0.39247029051E+03  0.91565323688E+02 0.  0.
         13    1    3    3    0    0  0.38680047134E+02 -0.14080479613E+02  0.54492026195E+02  0.68291923909E+02  0.00000000000E+00 0. -1.
        -14    1    3    3    0    0 -0.22701359252E+01 -0.43823156520E+02 -0.13040891943E+02  0.45778678740E+02  0.00000000000E+00 0.  1.
        -11    1    4    4    0    0  0.11024783519E+02  0.33393891050E+02  0.50196569170E+02  0.61289422966E+02  0.00000000000E+00 0.  1.
         11    1    4    4    0    0 -0.72960234930E+02  0.21913944786E+02  0.32230009334E+03  0.33118086754E+03  0.00000000000E+00 0. -1.
         21    1    1    2  502  501  0.25525540202E+02  0.25958002970E+01  0.27009383679E+02  0.37253163470E+02  0.00000000000E+00 0. -1.
<scales pt_clust_5="13000.00000" pt_clust_6="13000.00000" pt_clust_7="13000.00000" pt_clust_8="13000.00000" pt_clust_9="25.65719"></scales>
<clustering>
<clus scale="   25.657">  2  9  1 -1</clus>
<clus scale="   81.335">  5  6 -1 -1</clus>
<clus scale="   91.565">  7  8 -1 -1</clus>
<clus scale="  113.670">  2  5  1 -1</clus>
<clus scale="  121.201">  1  5  2 -1</clus>
</clustering>
</event>
<event>
 9    1  0.2951046E-005  0.1289397E+03  0.7546771E-02  0.1231207E+00
         -2   -1    0    0    0  501 -0.00000000000E+00  0.00000000000E+00  0.12774761745E+03  0.12774761745E+03  0.00000000000E+00 0.  1.
          1   -1    0    0  502    0  0.00000000000E+00 -0.00000000000E+00 -0.45517201497E+03  0.45517201497E+03  0.00000000000E+00 0. -1.
        -24    2    1    2    0    0 -0.65943241897E+02 -0.78397709752E+02  0.67711773989E+02  0.14692485946E+03  0.80667948673E+02 0.  0.
         23    2    1    2    0    0  0.56322030406E+02  0.86100114960E-01 -0.22721358690E+03  0.25045968103E+03  0.89060985995E+02 0.  0.
         11    1    3    3    0    0 -0.27767175036E+02 -0.16281599077E+02 -0.15973129519E+02  0.35933930270E+02  0.00000000000E+00 0. -1.
        -12    1    3    3    0    0 -0.38176066861E+02 -0.62116110676E+02  0.83684903509E+02  0.11099092919E+03  0.00000000000E+00 0.  1.
        -11    1    4    4    0    0  0.10886946103E+02 -0.41596004323E+02 -0.79239487481E+02  0.90153477733E+02  0.00000000000E+00 0.  1.
         11    1    4    4    0    0  0.45435084303E+02  0.41682104438E+02 -0.14797409942E+03  0.16030620330E+03  0.00000000000E+00 0. -1.
         21    1    1    2  502  501  0.96212114918E+01  0.78311609637E+02 -0.16792258461E+03  0.18553509193E+03  0.00000000000E+00 0. -1.
<scales pt_clust_5="13000.00000" pt_clust_6="13000.00000" pt_clust_7="13000.00000" pt_clust_8="13000.00000" pt_clust_9="78.90042"></scales>
<clustering>
<clus scale="   78.900">  2  9  1 -1</clus>
<clus scale="   80.668">  5  6 -1 -1</clus>
<clus scale="   89.061">  7  8 -1 -1</clus>
<clus scale="  123.292">  1  5  2 -1</clus>
<clus scale="   78.900">  2  5  1 -1</clus>
</clustering>
</event>
<event>
 9    1  0.2951046E-005  0.9726555E+02  0.7546771E-02  0.1290972E+00
         -2   -1    0    0    0  501 -0.00000000000E+00  0.00000000000E+00  0.30588721903E+03  0.30588721903E+03  0.00000000000E+00 0.  1.
          1   -1    0    0  502    0  0.00000000000E+00 -0.00000000000E+00 -0.97782000702E+02  0.97782000702E+02  0.00000000000E+00 0. -1.
         23    2    1    2    0    0  0.37960990849E+02 -0.18227514681E+02  0.23836968446E+03  0.25802579438E+03  0.89352811820E+02 0.  0.
        -24    2    1    2    0    0 -0.30692680965E+02 -0.32110541143E+02 -0.19491791506E+02  0.93654977485E+02  0.80113652733E+02 0.  0.
         11    1    4    4    0    0 -0.55316087038E+02 -0.24155288228E+02 -0.27831637107E+02  0.66467642193E+02  0.00000000000E+00 0. -1.
        -12    1    4    4    0    0  0.24623406073E+02 -0.79552529150E+01  0.83398456015E+01  0.27187335291E+02  0.00000000000E+00 0.  1.
        -13    1    3    3    0    0  0.44817184135E+02  0.19640896129E+02  0.19007859236E+03  0.19627586726E+03  0.00000000000E+00 0.  1.
         13    1    3    3    0    0 -0.68561932857E+01 -0.37868410811E+02  0.48291092097E+02  0.61749927122E+02  0.00000000000E+00 0. -1.
         21    1    1    2  502  501 -0.72683098840E+01  0.50338055825E+02 -0.10772674626E+02  0.51988447865E+02  0.00000000000E+00 0. -1.
<scales pt_clust_5="13000.00000" pt_clust_6="13000.00000" pt_clust_7="13000.00000" pt_clust_8="13000.00000" pt_clust_9="50.86008"></scales>
<clustering>
<clus scale="   50.860">  2  9  1 -1</clus>
<clus scale="   80.114">  5  6 -1 -1</clus>
<clus scale="   88.853">  2  5  1 -1</clus>
<clus scale="   89.353">  7  8 -1 -1</clus>
<clus scale="   50.860">  2  5  1 -1</clus>
</clustering>
</event>
<event>
 9    1  0.2951046E-005  0.1510080E+03  0.7546771E-02  0.1201626E+00
          3   -1    0    0  502    0  0.00000000000E+00  0.00000000000E+00  0.51499928842E+03  0.51499928842E+03  0.00000000000E+00 0. -1.
         -4   -1    0    0    0  501 -0.00000000000E+00 -0.00000000000E+00 -0.92211198469E+02  0.92211198469E+02  0.00000000000E+00 0.  1.
        -24    2    1    2    0    0 -0.96511622237E+02  0.46221738114E+02  0.42018865780E+02  0.14017142302E+03  0.80196636140E+02 0.  0.
         23    2    1    2    0    0  0.13816060446E+03 -0.37720151177E+02  0.13533189620E+03  0.21794792259E+03  0.93141893920E+02 0.  0.
         13    1    3    3    0    0  0.67882885749E+01  0.19652942483E+02  0.24411115646E+02  0.32065894298E+02  0.00000000000E+00 0. -1.
        -14    1    3    3    0    0 -0.10329991081E+03  0.26568795631E+02  0.17607750133E+02  0.10810552872E+03  0.00000000000E+00 0.  1.
        -11    1    4    4    0    0 -0.67961276070E+01 -0.24080583614E+02  0.16031812170E+02  0.29716676447E+02  0.00000000000E+00 0.  1.
         11    1    4    4    0    0  0.14495673207E+03 -0.13639567563E+02  0.11930008403E+03  0.18823124615E+03  0.00000000000E+00 0. -1.
         21    1    1    2  502  501 -0.41648982228E+02 -0.85015869375E+01  0.24543732798E+03  0.24909114128E+03  0.00000000000E+00 0. -1.
<scales pt_clust_5="13000.00000" pt_clust_6="13000.00000" pt_clust_7="13000.00000" pt_clust_8="13000.00000" pt_clust_9="42.50782"></scales>
<clustering>
<clus scale="   42.508">  1  9  2 -1</clus>
<clus scale="   80.197">  5  6 -1 -1</clus>
<clus scale="   93.142">  7  8 -1 -1</clus>
<clus scale="  143.386">  2  5  1 -1</clus>
<clus scale="   42.508">  1  5  2 -1</clus>
</clustering>
</event>
<event>
 9    1  0.2951046E-005  0.1440880E+03  0.7546771E-02  0.1208821E+00
         -2   -1    0    0    0  501 -0.00000000000E+00  0.00000000000E+00  0.54282547273E+03  0.54282547273E+03  0.00000000000E+00 0.  1.
          1   -1    0    0  502    0  0.00000000000E+00 -0.00000000000E+00 -0.28489460130E+03  0.28489460130E+03  0.00000000000E+00 0. -1.
        -24    2    1    2    0    0  0.49060759308E+02 -0.10350937548E+03  0.50290859045E+03  0.52290664079E+03  0.85983461866E+02 0.  0.
         23    2    1    2    0    0 -0.67715828416E+01  0.82703693714E+02 -0.12162797970E+03  0.17276643771E+03  0.90383191284E+02 0.  0.
         13    1    3    3    0    0  0.59401594343E+02 -0.80421570607E+02  0.25800243020E+03  0.27669736613E+03  0.00000000000E+00 0. -1.
        -14    1    3    3    0    0 -0.10340835036E+02 -0.23087804874E+02  0.24490616025E+03  0.24620927466E+03  0.00000000000E+00 0.  1.
        -11    1    4    4    0    0 -0.44325367610E+02  0.32919957748E+02 -0.82085331263E+02  0.98926555790E+02  0.00000000000E+00 0.  1.
         11    1    4    4    0    0  0.37553784769E+02  0.49783735966E+02 -0.39542648434E+02  0.73839881923E+02  0.00000000000E+00 0. -1.
         21    1    1    2  502  501 -0.42289176466E+02  0.20805681767E+02 -0.12334973931E+03  0.13204699553E+03  0.00000000000E+00 0. -1.
<scales pt_clust_5="13000.00000" pt_clust_6="13000.00000" pt_clust_7="13000.00000" pt_clust_8="13000.00000" pt_clust_9="47.13015"></scales>
<clustering>
<clus scale="   47.130">  2  9  1 -1</clus>
<clus scale="   85.983">  5  6 -1 -1</clus>
<clus scale="   90.383">  7  8 -1 -1</clus>
<clus scale="  141.370">  1  5  2 -1</clus>
<clus scale="   47.130">  2  5  1 -1</clus>
</clustering>
</event>
<event>
 9    1  0.2951046E-005  0.2089583E+03  0.7546771E-02  0.1173119E+00
         -2   -1    0    0    0  501 -0.00000000000E+00  0.00000000000E+00  0.59187994310E+03  0.59187994310E+03  0.00000000000E+00 0.  1.
          1   -1    0    0  502    0  0.00000000000E+00 -0.00000000000E+00 -0.33733354158E+03  0.33733354158E+03  0.00000000000E+00 0. -1.
         23    2    1    2    0    0  0.42739539700E+02 -0.15857038472E+02  0.45436993396E+03  0.46565461321E+03  0.91126659057E+02 0.  0.
        -24    2    1    2    0    0 -0.10166591876E+03  0.17884934158E+03 -0.18718124955E+03  0.28978132304E+03  0.81322499810E+02 0.  0.
         11    1    4    4    0    0 -0.10041572492E+03  0.18738096464E+03 -0.18011964746E+03  0.27863601907E+03  0.00000000000E+00 0. -1.
        -12    1    4    4    0    0 -0.12501938401E+01 -0.85316230522E+01 -0.70616020933E+01  0.11145303974E+02  0.00000000000E+00 0.  1.
        -11    1    3    3    0    0  0.14278147638E+01  0.31986328800E+02  0.83344323934E+02  0.89282922315E+02  0.00000000000E+00 0.  1.
         11    1    3    3    0    0  0.41311724937E+02 -0.47843367272E+02  0.37102561003E+03  0.37637169090E+03  0.00000000000E+00 0. -1.
         21    1    1    2  502  501  0.58926379063E+02 -0.16299230311E+03 -0.12642282896E+02  0.17377754843E+03  0.00000000000E+00 0.  1.
<scales pt_clust_5="13000.00000" pt_clust_6="13000.00000" pt_clust_7="13000.00000" pt_clust_8="13000.00000" pt_clust_9="192.48432"></scales>
<clustering>
<clus scale="   81.322">  5  6 -1 -1</clus>
<clus scale="   91.127">  7  8 -1 -1</clus>
<clus scale="  101.893">  1  7  2 -1</clus>
<clus scale="  192.484">  1  9  2 -1</clus>
<clus scale="  208.958">  2  5  1 -1</clus>
</clustering>
</event>
<event>
 9    1  0.2951046E-005  0.2440283E+03  0.7546771E-02  0.1117735E+00
         -2   -1    0    0    0  501 -0.00000000000E+00  0.00000000000E+00  0.42159038641E+03  0.42159038641E+03  0.00000000000E+00 0.  1.
          1   -1    0    0  502    0  0.00000000000E+00 -0.00000000000E+00 -0.42408794487E+03  0.42408794487E+03  0.00000000000E+00 0. -1.
         23    2    1    2    0    0 -0.16928242122E+03  0.16198690033E+03  0.33043258969E+03  0.41471870310E+03  0.88936001502E+02 0.  0.
        -24    2    1    2    0    0  0.10144675091E+03 -0.14471780562E+03 -0.29095540533E+03  0.34933990732E+03  0.78413241379E+02 0.  0.
         13    1    4    4    0    0  0.93510274336E+02 -0.92123203506E+02 -0.24942258605E+03  0.28185542830E+03  0.00000000000E+00 0. -1.
        -14    1    4    4    0    0  0.79364765742E+01 -0.52594602111E+02 -0.41532819288E+02  0.67484479027E+02  0.00000000000E+00 0.  1.
        -13    1    3    3    0    0 -0.43140876559E+02  0.47828444566E+02  0.16623393074E+03  0.17827623248E+03  0.00000000000E+00 0.  1.
         13    1    3    3    0    0 -0.12614154466E+03  0.11415845577E+03  0.16419865895E+03  0.23644247062E+03  0.00000000000E+00 0. -1.
         21    1    1    2  502  501  0.67835670310E+02 -0.17269094716E+02 -0.41974742810E+02  0.81619720856E+02  0.00000000000E+00 0. -1.
<scales pt_clust_5="13000.00000" pt_clust_6="13000.00000" pt_clust_7="13000.00000" pt_clust_8="13000.00000" pt_clust_9="69.99928"></scales>
<clustering>
<clus scale="   69.999">  2  9  1 -1</clus>
<clus scale="   78.413">  5  6 -1 -1</clus>
<clus scale="   88.936">  7  8 -1 -1</clus>
<clus scale="  240.393">  2  5  1 -1</clus>
<clus scale="   69.999">  2  5  1 -1</clus>
</clustering>
</event>
<event>
 9    1  0.2951046E-005  0.1343207E+03  0.7546771E-02  0.1223857E+00
          3   -1    0    0  502    0  0.00000000000E+00  0.00000000000E+00  0.21389133127E+03  0.21389133127E+03  0.00000000000E+00 0. -1.
         -4   -1    0    0    0  501 -0.00000000000E+00 -0.00000000000E+00 -0.19903753232E+03  0.19903753232E+03  0.00000000000E+00 0.  1.
         23    2    1    2    0    0 -0.58836172582E+02 -0.10307276194E+03 -0.12992071434E+03  0.19825655513E+03  0.91326776901E+02 0.  0.
        -24    2    1    2    0    0  0.52265764217E+02  0.80120300929E+02  0.14429130780E+03  0.19079304506E+03  0.80193714275E+02 0.  0.
         11    1    4    4    0    0  0.59956729026E+02  0.90746006170E+02  0.13936129168E+03  0.17678013636E+03  0.00000000000E+00 0. -1.
        -12    1    4    4    0    0 -0.76909648090E+01 -0.10625705241E+02  0.49300161165E+01  0.14012908709E+02  0.00000000000E+00 0.  1.
        -11    1    3    3    0    0 -0.80692314137E+02 -0.83281206344E+02 -0.82122336065E+02  0.14209534465E+03  0.00000000000E+00 0.  1.
         11    1    3    3    0    0  0.21856141555E+02 -0.19791555600E+02 -0.47798378280E+02  0.56161210483E+02  0.00000000000E+00 0. -1.
         21    1    1    2  502  501  0.65704083654E+01  0.22952461015E+02  0.48320549311E+00  0.23879263395E+02  0.00000000000E+00 0. -1.
<scales pt_clust_5="13000.00000" pt_clust_6="13000.00000" pt_clust_7="13000.00000" pt_clust_8="13000.00000" pt_clust_9="23.87437"></scales>
<clustering>
<clus scale="   23.874">  2  9  1 -1</clus>
<clus scale="   80.194">  5  6 -1 -1</clus>
<clus scale="   91.327">  7  8 -1 -1</clus>
<clus scale="  127.014">  1  5  2 -1</clus>
<clus scale="  127.014">  1  5  2 -1</clus>
</clustering>
</event>
<event>
 9    1  0.2951046E-005  0.1159397E+03  0.7546771E-02  0.1253333E+00
         -2   -1    0    0    0  501 -0.00000000000E+00  0.00000000000E+00  0.14703445930E+03  0.14703445930E+03  0.00000000000E+00 0.  1.
          1   -1    0    0  502    0  0.00000000000E+00 -0.00000000000E+00 -0.19081042686E+03  0.19081042686E+03  0.00000000000E+00 0. -1.
        -24    2    1    2    0    0  0.13029737754E+02  0.74947494614E+02  0.70634746214E+02  0.13069479491E+03  0.79403784735E+02 0.  0.
         23    2    1    2    0    0 -0.51394060972E+02 -0.56245770832E+02 -0.45308752507E+02  0.12593028565E+03  0.89446171248E+02 0.  0.
         11    1    3    3    0    0  0.30092479680E+02  0.76755622699E+02  0.32027255098E+02  0.88446187133E+02  0.00000000000E+00 0. -1.
        -12    1    3    3    0    0 -0.17062741927E+02 -0.18081280854E+01  0.38607491116E+02  0.42248607782E+02  0.00000000000E+00 0.  1.
        -13    1    4    4    0    0 -0.73884205277E+02 -0.39278131164E+02 -0.15841263309E+02  0.85162157091E+02  0.00000000000E+00 0.  1.
         13    1    4    4    0    0  0.22490144305E+02 -0.16967639667E+02 -0.29467489198E+02  0.40768128561E+02  0.00000000000E+00 0. -1.
         21    1    1    2  502  501  0.38364323218E+02 -0.18701723782E+02 -0.69101961272E+02  0.81219805589E+02  0.00000000000E+00 0. -1.
<scales pt_clust_5="13000.00000" pt_clust_6="13000.00000" pt_clust_7="13000.00000" pt_clust_8="13000.00000" pt_clust_9="42.67992"></scales>
<clustering>
<clus scale="   42.680">  2  9  1 -1</clus>
<clus scale="   79.404">  5  6 -1 -1</clus>
<clus scale="   89.446">  7  8 -1 -1</clus>
<clus scale="  108.381">  1  5  2 -1</clus>
<clus scale="   42.680">  2  5  1 -1</clus>
</clustering>
</event>
<event>
 9    1  0.2951046E-005  0.1657859E+03  0.7546771E-02  0.1202670E+00
          1   -1    0    0  502    0  0.00000000000E+00  0.00000000000E+00  0.63950574047E+03  0.63950574047E+03  0.00000000000E+00 0. -1.
         -2   -1    0    0    0  501 -0.00000000000E+00 -0.00000000000E+00 -0.16516879622E+03  0.16516879622E+03  0.00000000000E+00 0.  1.
         23    2    1    2    0    0  0.52494263913E+02  0.87279618556E+02  0.50404833200E+02  0.14535852375E+03  0.90637043512E+02 0.  0.
        -24    2    1    2    0    0  0.40016677762E+02  0.44154019048E+02  0.47810803833E+03  0.48970437855E+03  0.87590925106E+02 0.  0.
         11    1    4    4    0    0  0.61668087720E+02  0.22324559622E+02  0.21431281940E+03  0.22412345607E+03  0.00000000000E+00 0. -1.
        -12    1    4    4    0    0 -0.21651409958E+02  0.21829459427E+02  0.26379521893E+03  0.26558092248E+03  0.00000000000E+00 0.  1.
        -13    1    3    3    0    0  0.36278619306E+02 -0.94456771808E+01  0.71288535708E+01  0.38159921245E+02  0.00000000000E+00 0.  1.
         13    1    3    3    0    0  0.16215644607E+02  0.96725295737E+02  0.43275979629E+02  0.10719860250E+03  0.00000000000E+00 0. -1.
         21    1    1    2  502  501 -0.92510941675E+02 -0.13143363760E+03 -0.54175927279E+02  0.16961163439E+03  0.00000000000E+00 0.  1.
<scales pt_clust_5="13000.00000" pt_clust_6="13000.00000" pt_clust_7="13000.00000" pt_clust_8="13000.00000" pt_clust_9="138.81606"></scales>
<clustering>
<clus scale="   87.591">  5  6 -1 -1</clus>
<clus scale="   90.637">  7  8 -1 -1</clus>
<clus scale="  105.939">  1  5  2 -1</clus>
<clus scale="  138.816">  2  9  1 -1</clus>
<clus scale="  105.939">  1  5  2 -1</clus>
</clustering>
</event>
<event>
 9    1  0.2951046E-005  0.9548311E+02  0.7546771E-02  0.1295839E+00
          1   -1    0    0  502    0  0.00000000000E+00  0.00000000000E+00  0.28249585249E+02  0.28249585249E+02  0.00000000000E+00 0. -1.
         -2   -1    0    0    0  501 -0.00000000000E+00 -0.00000000000E+00 -0.49330918138E+03  0.49330918138E+03  0.00000000000E+00 0.  1.
        -24    2    1    2    0    0  0.27556455530E+02  0.52046329425E+01 -0.30700168357E+03  0.31869717121E+03  0.80817119304E+02 0.  0.
         23    2    1    2    0    0 -0.21833449291E+02 -0.32586256205E+02 -0.12085721994E+03  0.15631701868E+03  0.91049322435E+02 0.  0.
         13    1    3    3    0    0  0.50136223657E+02  0.23312905504E+02 -0.17363428393E+03  0.18222512736E+03  0.00000000000E+00 0. -1.
        -14    1    3    3    0    0 -0.22579768127E+02 -0.18108272561E+02 -0.13336739965E+03  0.13647204385E+03  0.00000000000E+00 0.  1.
        -13    1    4    4    0    0 -0.22335909772E+02 -0.61718438906E+02 -0.60366740604E+02  0.89175119497E+02  0.00000000000E+00 0.  1.
         13    1    4    4    0    0  0.50246048093E+00  0.29132182701E+02 -0.60490479338E+02  0.67141899183E+02  0.00000000000E+00 0. -1.
         21    1    1    2  502  501 -0.57230062393E+01  0.27381623263E+02 -0.37200692617E+02  0.46544576742E+02  0.00000000000E+00 0. -1.
<scales pt_clust_5="13000.00000" pt_clust_6="13000.00000" pt_clust_7="13000.00000" pt_clust_8="13000.00000" pt_clust_9="27.97331"></scales>
<clustering>
<clus scale="   27.973">  1  9  2 -1</clus>
<clus scale="   80.817">  5  6 -1 -1</clus>
<clus scale="   85.781">  2  5  1 -1</clus>
<clus scale="   91.049">  7  8 -1 -1</clus>
<clus scale="   27.973">  1  5  2 -1</clus>
</clustering>
</event>
<event>
 9    1  0.2951046E-005  0.9661101E+02  0.7546771E-02  0.1292645E+00
         -2   -1    0    0    0  501 -0.00000000000E+00  0.00000000000E+00  0.13715224647E+03  0.13715224647E+03  0.00000000000E+00 0.  1.
          1   -1    0    0  502    0  0.00000000000E+00 -0.00000000000E+00 -0.13745483793E+03  0.13745483793E+03  0.00000000000E+00 0. -1.
         23    2    1    2    0    0  0.15751017768E+02  0.29494460824E+02  0.87236094538E+02  0.13002292894E+03  0.90431233991E+02 0.  0.
        -24    2    1    2    0    0 -0.35080616076E+02 -0.21646200421E+02 -0.83268004246E+02  0.12328938416E+03  0.81040138808E+02 0.  0.
         11    1    4    4    0    0  0.21805415389E+02 -0.26735973271E+01 -0.50230187487E+02  0.54824228201E+02  0.00000000000E+00 0. -1.
        -12    1    4    4    0    0 -0.56886031464E+02 -0.18972603094E+02 -0.33037816759E+02  0.68465155956E+02  0.00000000000E+00 0.  1.
        -11    1    3    3    0    0 -0.33282645429E+02  0.20561766743E+02  0.64050560920E+02  0.75053281691E+02  0.00000000000E+00 0. -1.
         11    1    3    3    0    0  0.49033663197E+02  0.89326940806E+01  0.23185533618E+02  0.54969647254E+02  0.00000000000E+00 0.  1.
         21    1    1    2  502  501  0.19329598307E+02 -0.78482604024E+01 -0.42706817433E+01  0.21294771298E+02  0.00000000000E+00 0. -1.
<scales pt_clust_5="13000.00000" pt_clust_6="13000.00000" pt_clust_7="13000.00000" pt_clust_8="13000.00000" pt_clust_9="20.86213"></scales>
<clustering>
<clus scale="   20.862">  2  9  1 -1</clus>
<clus scale="   81.040">  5  6 -1 -1</clus>
<clus scale="   87.883">  2  5  1 -1</clus>
<clus scale="   90.431">  7  8 -1 -1</clus>
<clus scale="   20.862">  2  5  1 -1</clus>
</clustering>
</event>
<event>
 9    1  0.2951046E-005  0.1043895E+03  0.7546771E-02  0.1276743E+00
         -2   -1    0    0    0  501 -0.00000000000E+00  0.00000000000E+00  0.21430265709E+03  0.21430265709E+03  0.00000000000E+00 0.  1.
          1   -1    0    0  502    0  0.00000000000E+00 -0.00000000000E+00 -0.10609614610E+03  0.10609614610E+03  0.00000000000E+00 0. -1.
         23    2    1    2    0    0 -0.13741224592E+02 -0.44532807548E+02  0.16334104431E+03  0.19470297350E+03  0.95168056256E+02 0.  0.
        -24    2    1    2    0    0  0.33824766448E-01  0.25603461842E+02 -0.52725104948E+02  0.10220076034E+03  0.83722878112E+02 0.  0.
         13    1    4    4    0    0  0.36495574634E+02  0.26075475136E+02 -0.47555865472E+02  0.65371382977E+02  0.00000000000E+00 0. -1.
        -14    1    4    4    0    0 -0.36461749868E+02 -0.47201329432E+00 -0.51692394754E+01  0.36829377360E+02  0.00000000000E+00 0.  1.
        -13    1    3    3    0    0 -0.49958606949E+02 -0.32211957653E+02  0.59787950516E+02  0.84309380564E+02  0.00000000000E+00 0.  1.
         13    1    3    3    0    0  0.36217382357E+02 -0.12320849895E+02  0.10355309379E+03  0.11039359293E+03  0.00000000000E+00 0. -1.
         21    1    1    2  502  501  0.13707399825E+02  0.18929345706E+02 -0.24094283703E+01  0.23495069353E+02  0.00000000000E+00 0. -1.
<scales pt_clust_5="13000.00000" pt_clust_6="13000.00000" pt_clust_7="13000.00000" pt_clust_8="13000.00000" pt_clust_9="23.37120"></scales>
<clustering>
<clus scale="   23.371">  2  9  1 -1</clus>
<clus scale="   83.723">  5  6 -1 -1</clus>
<clus scale="   94.073">  2  5  1 -1</clus>
<clus scale="   95.168">  7  8 -1 -1</clus>
<clus scale="   23.371">  2  5  1 -1</clus>
</clustering>
</event>
<event>
 9    1  0.2951046E-005  0.1391900E+03  0.7546771E-02  0.1234297E+00
         -2   -1    0    0    0  501 -0.00000000000E+00  0.00000000000E+00  0.14160058704E+03  0.14160058704E+03  0.00000000000E+00 0.  1.
          1   -1    0    0  502    0  0.00000000000E+00 -0.00000000000E+00 -0.28447681921E+03  0.28447681921E+03  0.00000000000E+00 0. -1.
         23    2    1    2    0    0 -0.42080884936E+02  0.93723304443E+02  0.32368804917E+02  0.14029918588E+03  0.89895847257E+02 0.  0.
        -24    2    1    2    0    0 -0.44573964335E+02 -0.14477970660E+02 -0.13148492219E+03  0.16046328317E+03  0.79143733483E+02 0.  0.
         13    1    4    4    0    0 -0.49738778874E+02 -0.21563154308E+02 -0.13882122249E+03  0.14903102886E+03  0.00000000000E+00 0. -1.
        -14    1    4    4    0    0  0.51648145393E+01  0.70851836474E+01  0.73363002994E+01  0.11432254311E+02  0.00000000000E+00 0.  1.
        -11    1    3    3    0    0 -0.69634556374E+02  0.67748148116E+02  0.32458243805E+02  0.10243202920E+03  0.00000000000E+00 0. -1.
         11    1    3    3    0    0  0.27553671438E+02  0.25975156327E+02 -0.89438888079E-01  0.37867156683E+02  0.00000000000E+00 0.  1.
         21    1    1    2  502  501  0.86654849271E+02 -0.79245333783E+02 -0.43760114895E+02  0.12531493720E+03  0.00000000000E+00 0.  1.
<scales pt_clust_5="13000.00000" pt_clust_6="13000.00000" pt_clust_7="13000.00000" pt_clust_8="13000.00000" pt_clust_9="106.26657"></scales>
<clustering>
<clus scale="   79.144">  5  6 -1 -1</clus>
<clus scale="   89.896">  7  8 -1 -1</clus>
<clus scale="   91.979">  2  5  1 -1</clus>
<clus scale="  106.267">  2  9  1 -1</clus>
<clus scale="   91.979">  2  5  1 -1</clus>
</clustering>
</event>
<event>
 9    1  0.2951046E-005  0.1181289E+03  0.7546771E-02  0.1253512E+00
          1   -1    0    0  502    0  0.00000000000E+00  0.00000000000E+00  0.28943733241E+03  0.28943733241E+03  0.00000000000E+00 0. -1.
         -2   -1    0    0    0  501 -0.00000000000E+00 -0.00000000000E+00 -0.99676374123E+02  0.99676374123E+02  0.00000000000E+00 0.  1.
         23    2    1    2    0    0 -0.16351243241E+01  0.80705967034E+02 -0.20141564877E+01  0.12845546949E+03  0.99903073367E+02 0.  0.
        -24    2    1    2    0    0  0.22055298322E+02 -0.41550323026E+02  0.37779878081E+02  0.10045623678E+03  0.80319803245E+02 0.  0.
         11    1    4    4    0    0 -0.29472526216E+02 -0.22815319409E+02  0.82194538009E+01  0.38167106546E+02  0.00000000000E+00 0. -1.
        -12    1    4    4    0    0  0.51527824538E+02 -0.18735003617E+02  0.29560424281E+02  0.62289130238E+02  0.00000000000E+00 0.  1.
        -11    1    3    3    0    0 -0.15522987170E+02 -0.15156948536E+02 -0.20494158344E+02  0.29844710516E+02  0.00000000000E+00 0.  1.
         11    1    3    3    0    0  0.13887862846E+02  0.95862915570E+02  0.18480001856E+02  0.98610758970E+02  0.00000000000E+00 0. -1.
         21    1    1    2  502  501 -0.20420173998E+02 -0.39155644008E+02  0.15399523669E+03  0.16020200026E+03  0.00000000000E+00 0. -1.
<scales pt_clust_5="13000.00000" pt_clust_6="13000.00000" pt_clust_7="13000.00000" pt_clust_8="13000.00000" pt_clust_9="44.16048"></scales>
<clustering>
<clus scale="   44.160">  1  9  2 -1</clus>
<clus scale="   80.320">  5  6 -1 -1</clus>
<clus scale="   99.903">  7  8 -1 -1</clus>
<clus scale="  102.103">  1  5  2 -1</clus>
<clus scale="   44.160">  1  5  2 -1</clus>
</clustering>
</event>
<event>
 9    1  0.2951046E-005  0.1985174E+03  0.7546771E-02  0.1155525E+00
          3   -1    0    0  502    0  0.00000000000E+00  0.00000000000E+00  0.10113588729E+03  0.10113588729E+03  0.00000000000E+00 0. -1.
         -4   -1    0    0    0  501 -0.00000000000E+00 -0.00000000000E+00 -0.86351356501E+03  0.86351356501E+03  0.00000000000E+00 0.  1.
         23    2    1    2    0    0 -0.13681561787E+01 -0.19857431018E+03 -0.31000152434E+03  0.37831561383E+03  0.87109873491E+02 0.  0.
        -24    2    1    2    0    0  0.14428144651E+03  0.69425052795E+02 -0.18757286582E+03  0.25888228429E+03  0.78736798035E+02 0.  0.
         13    1    4    4    0    0  0.32610425298E+02  0.45546231900E+01 -0.22559975268E+01  0.33004150577E+02  0.00000000000E+00 0. -1.
        -14    1    4    4    0    0  0.11167102122E+03  0.64870429605E+02 -0.18531686829E+03  0.22587813372E+03  0.00000000000E+00 0.  1.
        -11    1    3    3    0    0 -0.17448952242E+02 -0.32695921581E+02 -0.16005676383E+02  0.40369182539E+02  0.00000000000E+00 0.  1.
         11    1    3    3    0    0  0.16080796063E+02 -0.16587838859E+03 -0.29399584796E+03  0.33794643129E+03  0.00000000000E+00 0. -1.
         21    1    1    2  502  501 -0.14291329034E+03  0.12914925738E+03 -0.26480328755E+03  0.32745155418E+03  0.00000000000E+00 0. -1.
<scales pt_clust_5="13000.00000" pt_clust_6="13000.00000" pt_clust_7="13000.00000" pt_clust_8="13000.00000" pt_clust_9="178.38452"></scales>
<clustering>
<clus scale="   78.737">  5  6 -1 -1</clus>
<clus scale="   87.110">  7  8 -1 -1</clus>
<clus scale="  178.428">  1  5  2 -1</clus>
<clus scale="  178.385">  1  9  2 -1</clus>
<clus scale="  178.428">  1  5  2 -1</clus>
</clustering>
</event>
<event>
 9    1  0.2951046E-005  0.1223745E+03  0.7546771E-02  0.1251739E+00
          1   -1    0    0  502    0  0.00000000000E+00  0.00000000000E+00  0.11163524687E+03  0.11163524687E+03  0.00000000000E+00 0. -1.
         -2   -1    0    0    0  501 -0.00000000000E+00 -0.00000000000E+00 -0.43783430826E+03  0.43783430826E+03  0.00000000000E+00 0.  1.
         23    2    1    2    0    0  0.71154566634E-01 -0.76090945692E+02 -0.29442065133E+03  0.31740004052E+03  0.90936399290E+02 0.  0.
        -24    2    1    2    0    0 -0.31222641517E+02 -0.41404300797E+02 -0.52651360764E+02  0.10873570676E+03  0.79762890291E+02 0.  0.
         13    1    4    4    0    0 -0.83893547515E+01  0.22088927439E+02 -0.28611918457E+02  0.37107194266E+02  0.00000000000E+00 0. -1.
        -14    1    4    4    0    0 -0.22833286765E+02 -0.63493228236E+02 -0.24039442308E+02  0.71628512499E+02  0.00000000000E+00 0.  1.
        -11    1    3    3    0    0 -0.16722662746E+02 -0.50096752205E+02 -0.27678872244E+03  0.28178241411E+03  0.00000000000E+00 0.  1.
         11    1    3    3    0    0  0.16793817312E+02 -0.25994193486E+02 -0.17631928884E+02  0.35617626410E+02  0.00000000000E+00 0. -1.
         21    1    1    2  502  501  0.31151486950E+02  0.11749524649E+03  0.20872950708E+02  0.12333380785E+03  0.00000000000E+00 0. -1.
<scales pt_clust_5="13000.00000" pt_clust_6="13000.00000" pt_clust_7="13000.00000" pt_clust_8="13000.00000" pt_clust_9="81.89070"></scales>
<clustering>
<clus scale="   79.763">  5  6 -1 -1</clus>
<clus scale="   90.936">  7  8 -1 -1</clus>
<clus scale="   95.138">  1  5  2 -1</clus>
<clus scale="   81.891">  1  9  2 -1</clus>
<clus scale="   95.138">  1  5  2 -1</clus>
</clustering>
</event>
<event>
 9    1  0.2951046E-005  0.4070919E+03  0.7546771E-02  0.1041460E+00
         -2   -1    0    0    0  501 -0.00000000000E+00  0.00000000000E+00  0.66993689263E+03  0.66993689263E+03  0.00000000000E+00 0.  1.
          1   -1    0    0  502    0  0.00000000000E+00 -0.00000000000E+00 -0.48049339761E+03  0.48049339761E+03  0.00000000000E+00 0. -1.
        -24    2    1    2    0    0 -0.38874585986E+03 -0.44952711187E+02  0.45328115577E+03  0.60481892859E+03  0.84841265903E+02 0.  0.
         23    2    1    2    0    0  0.42261935292E+03  0.46501392554E+02 -0.26909374286E+03  0.51129754017E+03  0.90797770737E+02 0.  0.
         11    1    3    3    0    0 -0.62517952109E+02 -0.14083483476E+02  0.33588584545E+02  0.72353519986E+02  0.00000000000E+00 0. -1.
        -12    1    3    3    0    0 -0.32622790776E+03 -0.30869227711E+02  0.41969257122E+03  0.53246540860E+03  0.00000000000E+00 0.  1.
        -11    1    4    4    0    0  0.32310099445E+03  0.65330185969E+02 -0.23342010278E+03  0.40391487989E+03  0.00000000000E+00 0. -1.
         11    1    4    4    0    0  0.99518358465E+02 -0.18828793415E+02 -0.35673640083E+02  0.10738266028E+03  0.00000000000E+00 0.  1.
         21    1    1    2  502  501 -0.33873493053E+02 -0.15486813666E+01  0.52560821103E+01  0.34313821483E+02  0.00000000000E+00 0. -1.
<scales pt_clust_5="13000.00000" pt_clust_6="13000.00000" pt_clust_7="13000.00000" pt_clust_8="13000.00000" pt_clust_9="33.90888"></scales>
<clustering>
<clus scale="   33.909">  2  9  1 -1</clus>
<clus scale="   84.841">  5  6 -1 -1</clus>
<clus scale="   90.798">  7  8 -1 -1</clus>
<clus scale="  405.805">  1  5  2 -1</clus>
<clus scale="   33.909">  2  5  1 -1</clus>
</clustering>
</event>
<event>
 9    1  0.2951046E-005  0.1536704E+03  0.7546771E-02  0.1222426E+00
         -2   -1    0    0    0  501 -0.00000000000E+00  0.00000000000E+00  0.69329273903E+02  0.69329273903E+02  0.00000000000E+00 0.  1.
          1   -1    0    0  502    0  0.00000000000E+00 -0.00000000000E+00 -0.51224963666E+03  0.51224963666E+03  0.00000000000E+00 0. -1.
        -24    2    1    2    0    0  0.23029714356E+02 -0.24601109336E+02 -0.55599903955E+02  0.10358307465E+03  0.80638214952E+02 0.  0.
         23    2    1    2    0    0 -0.13729068812E+03  0.16221478853E+02 -0.24152087690E+03  0.29256847435E+03  0.90289029160E+02 0.  0.
         11    1    3    3    0    0 -0.19773922848E+02 -0.11934918918E+02  0.92291927728E+01  0.24872239819E+02  0.00000000000E+00 0. -1.
        -12    1    3    3    0    0  0.42803637204E+02 -0.12666190418E+02 -0.64829096728E+02  0.78710834833E+02  0.00000000000E+00 0.  1.
        -13    1    4    4    0    0 -0.80464377693E+02  0.14326931807E+02 -0.21464509993E+03  0.22967867985E+03  0.00000000000E+00 0. -1.
         13    1    4    4    0    0 -0.56826310425E+02  0.18945470459E+01 -0.26875776966E+02  0.62889794502E+02  0.00000000000E+00 0.  1.
         21    1    1    2  502  501  0.11426097376E+03  0.83796304830E+01 -0.14579958191E+03  0.18542736156E+03  0.00000000000E+00 0.  1.
<scales pt_clust_5="13000.00000" pt_clust_6="13000.00000" pt_clust_7="13000.00000" pt_clust_8="13000.00000" pt_clust_9="124.34825"></scales>
<clustering>
<clus scale="   80.638">  5  6 -1 -1</clus>
<clus scale="   87.396">  1  5  2 -1</clus>
<clus scale="   90.289">  7  8 -1 -1</clus>
<clus scale="  124.348">  2  9  1 -1</clus>
<clus scale="  124.348">  2  5  1 -1</clus>
</clustering>
</event>
<event>
 9    1  0.2951046E-005  0.1289578E+03  0.7546771E-02  0.1233408E+00
          1   -1    0    0  502    0  0.00000000000E+00  0.00000000000E+00  0.23396321232E+03  0.23396321232E+03  0.00000000000E+00 0. -1.
         -2   -1    0    0    0  501 -0.00000000000E+00 -0.00000000000E+00 -0.10951910198E+03  0.10951910198E+03  0.00000000000E+00 0.  1.
        -24    2    1    2    0    0 -0.48304211133E+02 -0.66658558364E+02  0.97637768808E+01  0.11489293163E+03  0.79551204793E+02 0.  0.
         23    2    1    2    0    0  0.12941743156E+02  0.10030363743E+03  0.50295278727E+02  0.14779377165E+03  0.95315662290E+02 0.  0.
         13    1    3    3    0    0  0.15796992242E+02 -0.43536176905E+02  0.49983727513E+01  0.46582479469E+02  0.00000000000E+00 0. -1.
        -14    1    3    3    0    0 -0.64101203374E+02 -0.23122381459E+02  0.47654041295E+01  0.68310452164E+02  0.00000000000E+00 0.  1.
        -11    1    4    4    0    0 -0.29377536301E+02  0.77538061547E+02  0.71701406320E+01  0.83226207076E+02  0.00000000000E+00 0.  1.
         11    1    4    4    0    0  0.42319279457E+02  0.22765575887E+02  0.43125138095E+02  0.64567564574E+02  0.00000000000E+00 0. -1.
         21    1    1    2  502  501  0.35362467977E+02 -0.33645079070E+02  0.64385054728E+02  0.80795611016E+02  0.00000000000E+00 0. -1.
<scales pt_clust_5="13000.00000" pt_clust_6="13000.00000" pt_clust_7="13000.00000" pt_clust_8="13000.00000" pt_clust_9="48.81081"></scales>
<clustering>
<clus scale="   48.811">  1  9  2 -1</clus>
<clus scale="   79.551">  5  6 -1 -1</clus>
<clus scale="   95.316">  7  8 -1 -1</clus>
<clus scale="  117.785">  2  5  1 -1</clus>
<clus scale="   48.811">  1  5  2 -1</clus>
</clustering>
</event>
<event>
 9    1  0.2951046E-005  0.1108386E+03  0.7546771E-02  0.1267979E+00
         -2   -1    0    0    0  501 -0.00000000000E+00  0.00000000000E+00  0.15510561446E+03  0.15510561446E+03  0.00000000000E+00 0.  1.
          1   -1    0    0  502    0  0.00000000000E+00 -0.00000000000E+00 -0.31384838059E+03  0.31384838059E+03  0.00000000000E+00 0. -1.
        -24    2    1    2    0    0 -0.47835259684E+02  0.16811140452E+02  0.11906752095E+03  0.15050422861E+03  0.76835029578E+02 0.  0.
         23    2    1    2    0    0  0.73355560400E+02 -0.19678661461E+02 -0.18801573596E+03  0.22505506724E+03  0.97629802642E+02 0.  0.
         13    1    3    3    0    0 -0.54114661830E+02 -0.16978333484E+02  0.63246729395E+02  0.84951805232E+02  0.00000000000E+00 0. -1.
        -14    1    3    3    0    0  0.62794021460E+01  0.33789473936E+02  0.55820791560E+02  0.65552423377E+02  0.00000000000E+00 0.  1.
        -13    1    4    4    0    0  0.11725378156E+02  0.37095238002E+02 -0.46900565653E+02  0.60936066774E+02  0.00000000000E+00 0.  1.
         13    1    4    4    0    0  0.61630182244E+02 -0.56773899463E+02 -0.14111517030E+03  0.16411900047E+03  0.00000000000E+00 0. -1.
         21    1    1    2  502  501 -0.25520300716E+02  0.28675210091E+01 -0.89794551131E+02  0.93394699197E+02  0.00000000000E+00 0. -1.
<scales pt_clust_5="13000.00000" pt_clust_6="13000.00000" pt_clust_7="13000.00000" pt_clust_8="13000.00000" pt_clust_9="25.68090"></scales>
<clustering>
<clus scale="   25.681">  2  9  1 -1</clus>
<clus scale="   76.835">  5  6 -1 -1</clus>
<clus scale="   93.044">  1  5  2 -1</clus>
<clus scale="   97.630">  7  8 -1 -1</clus>
<clus scale="   25.681">  2  5  1 -1</clus>
</clustering>
</event>
<event>
 9    1  0.2951046E-005  0.1009026E+03  0.7546771E-02  0.1286071E+00
         -2   -1    0    0    0  501 -0.00000000000E+00  0.00000000000E+00  0.41745308357E+03  0.41745308357E+03  0.00000000000E+00 0.  1.
          1   -1    0    0  502    0  0.00000000000E+00 -0.00000000000E+00 -0.78851664055E+02  0.78851664055E+02  0.00000000000E+00 0. -1.
        -24    2    1    2    0    0 -0.33714072326E+02  0.38725595867E+01  0.35284953431E+03  0.36351539213E+03  0.80554398164E+02 0.  0.
         23    2    1    2    0    0  0.30135072769E+02  0.16910322422E+02 -0.30969569274E+02  0.10587570724E+03  0.95165485064E+02 0.  0.
         11    1    3    3    0    0 -0.20822818114E+02  0.70998703967E+00  0.15658110240E+02  0.26062813587E+02  0.00000000000E+00 0. -1.
        -12    1    3    3    0    0 -0.12891254212E+02  0.31625725471E+01  0.33719142407E+03  0.33745257855E+03  0.00000000000E+00 0.  1.
        -11    1    4    4    0    0  0.50445429429E+02 -0.12119727025E+02  0.87906521730E+01  0.52620382924E+02  0.00000000000E+00 0. -1.
         11    1    4    4    0    0 -0.20310356660E+02  0.29030049447E+02 -0.39760221447E+02  0.53255324317E+02  0.00000000000E+00 0.  1.
         21    1    1    2  502  501  0.35789995572E+01 -0.20782882009E+02  0.16721454481E+02  0.26913648254E+02  0.00000000000E+00 0. -1.
<scales pt_clust_5="13000.00000" pt_clust_6="13000.00000" pt_clust_7="13000.00000" pt_clust_8="13000.00000" pt_clust_9="21.08880"></scales>
<clustering>
<clus scale="   21.089">  2  9  1 -1</clus>
<clus scale="   80.554">  5  6 -1 -1</clus>
<clus scale="   87.258">  1  5  2 -1</clus>
<clus scale="   95.165">  7  8 -1 -1</clus>
<clus scale="   21.089">  2  5  1 -1</clus>
</clustering>
</event>
<event>
 9    1  0.2951046E-005  0.1760820E+03  0.7546771E-02  0.1202308E+00
         -2   -1    0    0    0  501 -0.00000000000E+00  0.00000000000E+00  0.40240034769E+02  0.40240034769E+02  0.00000000000E+00 0.  1.
          1   -1    0    0  502    0  0.00000000000E+00 -0.00000000000E+00 -0.15354871796E+04  0.15354871796E+04  0.00000000000E+00 0. -1.
        -24    2    1    2    0    0 -0.41604637251E+02  0.19236296511E+02 -0.95967417467E+02  0.13096302467E+03  0.76423737613E+02 0.  0.
         23    2    1    2    0    0 -0.11999043429E+03 -0.18516783374E+02 -0.32930075440E+03  0.36265121619E+03  0.91303571512E+02 0.  0.
         11    1    3    3    0    0 -0.37116359476E+02  0.69057322759E+01 -0.10722278475E+03  0.11367514613E+03  0.00000000000E+00 0. -1.
        -12    1    3    3    0    0 -0.44882777747E+01  0.12330564235E+02  0.11255367279E+02  0.17287878537E+02  0.00000000000E+00 0.  1.
        -13    1    4    4    0    0 -0.87807645929E+02 -0.52295558928E+02 -0.18996931124E+03  0.21571589505E+03  0.00000000000E+00 0.  1.
         13    1    4    4    0    0 -0.32182788363E+02  0.33778775554E+02 -0.13933144316E+03  0.14693532114E+03  0.00000000000E+00 0. -1.
         21    1    1    2  502  501  0.16159507154E+03 -0.71951313682E+00 -0.10699789730E+04  0.10821129735E+04  0.00000000000E+00 0. -1.
<scales pt_clust_5="13000.00000" pt_clust_6="13000.00000" pt_clust_7="13000.00000" pt_clust_8="13000.00000" pt_clust_9="150.56077"></scales>
<clustering>
<clus scale="   76.424">  5  6 -1 -1</clus>
<clus scale="   89.115">  1  5  2 -1</clus>
<clus scale="   91.304">  7  8 -1 -1</clus>
<clus scale="  150.561">  2  9  1 -1</clus>
<clus scale="  150.561">  2  5  1 -1</clus>
</clustering>
</event>
<event>
 9    1  0.2951046E-005  0.9341514E+02  0.7546771E-02  0.1300888E+00
          1   -1    0    0  502    0  0.00000000000E+00  0.00000000000E+00  0.79414646537E+02  0.79414646537E+02  0.00000000000E+00 0. -1.
         -2   -1    0    0    0  501 -0.00000000000E+00 -0.00000000000E+00 -0.22172764558E+03  0.22172764558E+03  0.00000000000E+00 0.  1.
        -24    2    1    2    0    0 -0.78863940196E+01  0.49692433909E+01 -0.15309493724E+03  0.17331792601E+03  0.80710315813E+02 0.  0.
         23    2    1    2    0    0  0.21532448057E+02  0.12015989384E+02  0.29842956227E+02  0.98875526202E+02  0.90982071448E+02 0.  0.
         11    1    3    3    0    0  0.25087051723E+02  0.96793035334E+01 -0.14049576687E+02  0.30338748921E+02  0.00000000000E+00 0. -1.
        -12    1    3    3    0    0 -0.32973445742E+02 -0.47100601425E+01 -0.13904536055E+03  0.14297917709E+03  0.00000000000E+00 0.  1.
        -13    1    4    4    0    0  0.53722604819E+02 -0.47552357337E+01  0.35374641691E+01  0.54048535485E+02  0.00000000000E+00 0. -1.
         13    1    4    4    0    0 -0.32190156761E+02  0.16771225118E+02  0.26305492058E+02  0.44826990716E+02  0.00000000000E+00 0.  1.
         21    1    1    2  502  501 -0.13646054038E+02 -0.16985232775E+02 -0.19061018025E+02  0.28948839897E+02  0.00000000000E+00 0. -1.
<scales pt_clust_5="13000.00000" pt_clust_6="13000.00000" pt_clust_7="13000.00000" pt_clust_8="13000.00000" pt_clust_9="21.78791"></scales>
<clustering>
<clus scale="   21.788">  2  9  1 -1</clus>
<clus scale="   80.710">  5  6 -1 -1</clus>
<clus scale="   83.443">  2  5  1 -1</clus>
<clus scale="   90.982">  7  8 -1 -1</clus>
<clus scale="   93.415">  1  5  2 -1</clus>
</clustering>
</event>
<event>
 9    1  0.2951046E-005  0.2024563E+03  0.7546771E-02  0.1181614E+00
         -2   -1    0    0    0  501 -0.00000000000E+00  0.00000000000E+00  0.86590960052E+02  0.86590960052E+02  0.00000000000E+00 0.  1.
          1   -1    0    0  502    0  0.00000000000E+00 -0.00000000000E+00 -0.10371920185E+04  0.10371920185E+04  0.00000000000E+00 0. -1.
        -24    2    1    2    0    0 -0.44304888900E+02  0.11350528703E+02  0.54717216427E+01  0.92635644391E+02  0.80372042351E+02 0.  0.
         23    2    1    2    0    0  0.12036463970E+03  0.14610371182E+03 -0.56232661377E+03  0.60031910036E+03  0.91311886417E+02 0.  0.
         11    1    3    3    0    0  0.86741970439E+01 -0.25380526893E+02 -0.51156402766E+01  0.27305358726E+02  0.00000000000E+00 0. -1.
        -12    1    3    3    0    0 -0.52979085944E+02  0.36731055596E+02  0.10587361919E+02  0.65330285665E+02  0.00000000000E+00 0.  1.
        -11    1    4    4    0    0  0.57596889687E+02  0.84381349723E+01 -0.17832420827E+03  0.18758498628E+03  0.00000000000E+00 0. -1.
         11    1    4    4    0    0  0.62767750016E+02  0.13766557685E+03 -0.38400240550E+03  0.41273411407E+03  0.00000000000E+00 0.  1.
         21    1    1    2  502  501 -0.76059750803E+02 -0.15745424053E+03 -0.39374616635E+03  0.43082823383E+03  0.00000000000E+00 0. -1.
<scales pt_clust_5="13000.00000" pt_clust_6="13000.00000" pt_clust_7="13000.00000" pt_clust_8="13000.00000" pt_clust_9="180.69503"></scales>
<clustering>
<clus scale="   80.372">  5  6 -1 -1</clus>
<clus scale="   91.312">  7  8 -1 -1</clus>
<clus scale="   92.474">  1  5  2 -1</clus>
<clus scale="  180.695">  1  9  2 -1</clus>
<clus scale="  202.456">  2  5  1 -1</clus>
</clustering>
</event>
<event>
 9    1  0.2951046E-005  0.1746125E+03  0.7546771E-02  0.1174382E+00
          1   -1    0    0  502    0  0.00000000000E+00  0.00000000000E+00  0.27076709642E+03  0.27076709642E+03  0.00000000000E+00 0. -1.
         -2   -1    0    0    0  501 -0.00000000000E+00 -0.00000000000E+00 -0.17181600904E+03  0.17181600904E+03  0.00000000000E+00 0.  1.
        -24    2    1    2    0    0 -0.10117895533E+03  0.12204121461E+03 -0.53646671911E+02  0.18575351096E+03  0.80592570133E+02 0.  0.
         23    2    1    2    0    0  0.10078790582E+03 -0.85076287398E+02  0.88444630092E+02  0.18278783095E+03  0.90513876902E+02 0.  0.
         11    1    3    3    0    0 -0.52493478944E+02  0.11748385460E+03 -0.34336064068E+02  0.13318027902E+03  0.00000000000E+00 0. -1.
        -12    1    3    3    0    0 -0.48685476390E+02  0.45573600101E+01 -0.19310607844E+02  0.52573231942E+02  0.00000000000E+00 0.  1.
        -13    1    4    4    0    0 -0.49811910630E+01 -0.47319799623E+02  0.28949327090E+02  0.55695953531E+02  0.00000000000E+00 0.  1.
         13    1    4    4    0    0  0.10576909689E+03 -0.37756487775E+02  0.59495303003E+02  0.12709187742E+03  0.00000000000E+00 0. -1.
         21    1    1    2  502  501  0.39104950923E+00 -0.36964927215E+02  0.64153129195E+02  0.74041763547E+02  0.00000000000E+00 0.  1.
<scales pt_clust_5="13000.00000" pt_clust_6="13000.00000" pt_clust_7="13000.00000" pt_clust_8="13000.00000" pt_clust_9="36.96700"></scales>
<clustering>
<clus scale="   36.967">  1  9  2 -1</clus>
<clus scale="   80.593">  5  6 -1 -1</clus>
<clus scale="   90.514">  7  8 -1 -1</clus>
<clus scale="  169.682">  2  5  1 -1</clus>
<clus scale="   36.967">  1  5  2 -1</clus>
</clustering>
</event>
<event>
 9    1  0.2951046E-005  0.1027356E+03  0.7546771E-02  0.1280811E+00
         -2   -1    0    0    0  501 -0.00000000000E+00  0.00000000000E+00  0.42075693895E+02  0.42075693895E+02  0.00000000000E+00 0.  1.
          1   -1    0    0  502    0  0.00000000000E+00 -0.00000000000E+00 -0.75351847576E+03  0.75351847576E+03  0.00000000000E+00 0. -1.
         23    2    1    2    0    0 -0.21446010999E+02 -0.29947123161E+02 -0.56359083346E+02  0.11462706309E+03  0.92769907529E+02 0.  0.
        -24    2    1    2    0    0  0.40949138847E+02 -0.28291481207E+02 -0.55937374033E+03  0.56724594262E+03  0.79948346820E+02 0.  0.
         13    1    4    4    0    0  0.31220700361E+02 -0.43786430368E+02 -0.19122483140E+03  0.19864269370E+03  0.00000000000E+00 0. -1.
        -14    1    4    4    0    0  0.97284384857E+01  0.15494949161E+02 -0.36814890893E+03  0.36860324892E+03  0.00000000000E+00 0.  1.
        -13    1    3    3    0    0 -0.64495793866E+01 -0.62818889663E+02 -0.41470447391E+02  0.75548712626E+02  0.00000000000E+00 0. -1.
         13    1    3    3    0    0 -0.14996431613E+02  0.32871766502E+02 -0.14888635955E+02  0.39078350460E+02  0.00000000000E+00 0.  1.
         21    1    1    2  502  501 -0.19503127847E+02  0.58238604368E+02 -0.95709958184E+02  0.11372116395E+03  0.00000000000E+00 0.  1.
<scales pt_clust_5="13000.00000" pt_clust_6="13000.00000" pt_clust_7="13000.00000" pt_clust_8="13000.00000" pt_clust_9="61.41748"></scales>
<clustering>
<clus scale="   61.417">  1  9  2 -1</clus>
<clus scale="   79.948">  5  6 -1 -1</clus>
<clus scale="   91.324">  2  5  1 -1</clus>
<clus scale="   92.770">  7  8 -1 -1</clus>
<clus scale="   91.324">  2  5  1 -1</clus>
</clustering>
</event>
<event>
 9    1  0.2951046E-005  0.1204445E+03  0.7546771E-02  0.1243713E+00
          1   -1    0    0  502    0  0.00000000000E+00  0.00000000000E+00  0.45976937232E+03  0.45976937232E+03  0.00000000000E+00 0. -1.
         -2   -1    0    0    0  501 -0.00000000000E+00 -0.00000000000E+00 -0.12514586594E+03  0.12514586594E+03  0.00000000000E+00 0.  1.
        -24    2    1    2    0    0  0.77230452537E+02  0.38931021083E+02 -0.84580538244E+02  0.14561590905E+03  0.81055279382E+02 0.  0.
         23    2    1    2    0    0 -0.54262944209E+02 -0.31490106349E+02  0.36083796785E+03  0.37613705749E+03  0.85667689732E+02 0.  0.
         13    1    3    3    0    0  0.35897631019E+02  0.39902865363E+02 -0.25251372484E+01  0.53733182440E+02  0.00000000000E+00 0. -1.
        -14    1    3    3    0    0  0.41332821518E+02 -0.97184427967E+00 -0.82055400995E+02  0.91882726605E+02  0.00000000000E+00 0.  1.
        -13    1    4    4    0    0 -0.13266214192E+01 -0.45617052484E+02  0.22657749013E+03  0.23112774485E+03  0.00000000000E+00 0.  1.
         13    1    4    4    0    0 -0.52936322790E+02  0.14126946134E+02  0.13426047771E+03  0.14500931264E+03  0.00000000000E+00 0. -1.
         21    1    1    2  502  501 -0.22967508328E+02 -0.74409147338E+01  0.58366076776E+02  0.63162271722E+02  0.00000000000E+00 0. -1.
<scales pt_clust_5="13000.00000" pt_clust_6="13000.00000" pt_clust_7="13000.00000" pt_clust_8="13000.00000" pt_clust_9="24.14278"></scales>
<clustering>
<clus scale="   24.143">  1  9  2 -1</clus>
<clus scale="   81.055">  5  6 -1 -1</clus>
<clus scale="   85.668">  7  8 -1 -1</clus>
<clus scale="  117.209">  2  5  1 -1</clus>
<clus scale="   24.143">  1  5  2 -1</clus>
</clustering>
</event>
<event>
 9    1  0.2951046E-005  0.9455193E+02  0.7546771E-02  0.1300170E+00
         -2   -1    0    0    0  501 -0.00000000000E+00  0.00000000000E+00  0.89206706723E+02  0.89206706723E+02  0.00000000000E+00 0.  1.
          1   -1    0    0  502    0  0.00000000000E+00 -0.00000000000E+00 -0.17851805829E+03  0.17851805829E+03  0.00000000000E+00 0. -1.
        -24    2    1    2    0    0 -0.21741139417E+01 -0.31510076663E+02  0.24341124458E+02  0.88307739026E+02  0.78791844307E+02 0.  0.
         23    2    1    2    0    0 -0.12435319116E+02 -0.11151426677E+02 -0.74606903813E+02  0.11976808542E+03  0.92191174796E+02 0.  0.
         13    1    3    3    0    0  0.24282612522E+02 -0.46918564146E+02  0.74845466031E+01  0.53357430319E+02  0.00000000000E+00 0. -1.
        -14    1    3    3    0    0 -0.26456726464E+02  0.15408487483E+02  0.16856577855E+02  0.34950308706E+02  0.00000000000E+00 0.  1.
        -13    1    4    4    0    0 -0.50051631225E+02 -0.21594042182E+02 -0.40203886483E+02  0.67733455060E+02  0.00000000000E+00 0. -1.
         13    1    4    4    0    0  0.37616312109E+02  0.10442615505E+02 -0.34403017330E+02  0.52034630360E+02  0.00000000000E+00 0.  1.
         21    1    1    2  502  501  0.14609433058E+02  0.42661503340E+02 -0.39045572216E+02  0.59648940570E+02  0.00000000000E+00 0.  1.
<scales pt_clust_5="13000.00000" pt_clust_6="13000.00000" pt_clust_7="13000.00000" pt_clust_8="13000.00000" pt_clust_9="45.09367"></scales>
<clustering>
<clus scale="   45.094">  2  9  1 -1</clus>
<clus scale="   78.792">  5  6 -1 -1</clus>
<clus scale="   81.541">  1  5  2 -1</clus>
<clus scale="   92.191">  7  8 -1 -1</clus>
<clus scale="   45.094">  2  5  1 -1</clus>
</clustering>
</event>
<event>
 9    1  0.2951046E-005  0.1483371E+03  0.7546771E-02  0.1204657E+00
          1   -1    0    0  502    0  0.00000000000E+00  0.00000000000E+00  0.38419328312E+03  0.38419328312E+03  0.00000000000E+00 0. -1.
         -2   -1    0    0    0  501 -0.00000000000E+00 -0.00000000000E+00 -0.24244495745E+03  0.24244495745E+03  0.00000000000E+00 0.  1.
        -24    2    1    2    0    0 -0.53811343091E+02  0.34432880618E+02 -0.16300912696E+03  0.19281078501E+03  0.80763478327E+02 0.  0.
         23    2    1    2    0    0  0.12223863086E+03  0.13906503749E+02  0.31399210867E+03  0.34954063177E+03  0.91934407198E+02 0.  0.
         13    1    3    3    0    0 -0.30167144470E+02  0.58161693416E+02 -0.80715932773E+02  0.10396105516E+03  0.00000000000E+00 0. -1.
        -14    1    3    3    0    0 -0.23644198620E+02 -0.23728812798E+02 -0.82293194183E+02  0.88849729848E+02  0.00000000000E+00 0.  1.
        -13    1    4    4    0    0  0.20284393494E+02  0.36274338121E+02  0.14566081109E+03  0.15147394533E+03  0.00000000000E+00 0.  1.
         13    1    4    4    0    0  0.10195423737E+03 -0.22367834372E+02  0.16833129758E+03  0.19806668644E+03  0.00000000000E+00 0. -1.
         21    1    1    2  502  501 -0.68427287774E+02 -0.48339384367E+02 -0.92346560378E+01  0.84286823794E+02  0.00000000000E+00 0.  1.
<scales pt_clust_5="13000.00000" pt_clust_6="13000.00000" pt_clust_7="13000.00000" pt_clust_8="13000.00000" pt_clust_9="83.77941"></scales>
<clustering>
<clus scale="   80.763">  5  6 -1 -1</clus>
<clus scale="   83.779">  2  9  1 -1</clus>
<clus scale="   91.934">  7  8 -1 -1</clus>
<clus scale="  141.685">  2  5  1 -1</clus>
<clus scale="  148.337">  1  5  2 -1</clus>
</clustering>
</event>
<event>
 9    1  0.2951046E-005  0.9621335E+02  0.7546771E-02  0.1295478E+00
          1   -1    0    0  502    0  0.00000000000E+00  0.00000000000E+00  0.11377477883E+03  0.11377477883E+03  0.00000000000E+00 0. -1.
         -2   -1    0    0    0  501 -0.00000000000E+00 -0.00000000000E+00 -0.21736570256E+03  0.21736570256E+03  0.00000000000E+00 0.  1.
        -24    2    1    2    0    0  0.15436231645E+02 -0.28281365129E+02 -0.16485491454E+03  0.18600795712E+03  0.79898087596E+02 0.  0.
         23    2    1    2    0    0  0.87029761559E+01  0.83223833401E+00  0.31205484721E+02  0.97807375533E+02  0.92282533653E+02 0.  0.
         11    1    3    3    0    0 -0.78064742397E+01 -0.50586410470E+02 -0.12274148202E+03  0.13298645559E+03  0.00000000000E+00 0. -1.
        -12    1    3    3    0    0  0.23242705885E+02  0.22305045341E+02 -0.42113432525E+02  0.53021501521E+02  0.00000000000E+00 0.  1.
        -11    1    4    4    0    0 -0.29178591536E+02  0.31060146377E+02  0.55621084258E+01  0.42977435325E+02  0.00000000000E+00 0.  1.
         11    1    4    4    0    0  0.37881567692E+02 -0.30227908043E+02  0.25643376295E+02  0.54829940208E+02  0.00000000000E+00 0. -1.
         21    1    1    2  502  501 -0.24139207801E+02  0.27449126795E+02  0.30058506087E+02  0.47325148740E+02  0.00000000000E+00 0. -1.
<scales pt_clust_5="13000.00000" pt_clust_6="13000.00000" pt_clust_7="13000.00000" pt_clust_8="13000.00000" pt_clust_9="36.55347"></scales>
<clustering>
<clus scale="   36.553">  1  9  2 -1</clus>
<clus scale="   79.898">  5  6 -1 -1</clus>
<clus scale="   84.408">  2  5  1 -1</clus>
<clus scale="   92.283">  7  8 -1 -1</clus>
<clus scale="   36.553">  1  5  2 -1</clus>
</clustering>
</event>
<event>
 9    1  0.2951046E-005  0.9131591E+02  0.7546771E-02  0.1305372E+00
          1   -1    0    0  502    0  0.00000000000E+00  0.00000000000E+00  0.99803933120E+02  0.99803933120E+02  0.00000000000E+00 0. -1.
         -2   -1    0    0    0  501 -0.00000000000E+00 -0.00000000000E+00 -0.12990394319E+03  0.12990394319E+03  0.00000000000E+00 0.  1.
         23    2    1    2    0    0  0.14112612326E+02 -0.10908593737E+02 -0.65862330652E+02  0.11285056856E+03  0.89884598131E+02 0.  0.
        -24    2    1    2    0    0  0.97763659737E+01  0.22992439809E+02  0.26367051303E+02  0.88485249230E+02  0.80685738002E+02 0.  0.
         11    1    4    4    0    0  0.25625052030E+02 -0.23647784556E+02  0.70567952511E+01  0.35576106661E+02  0.00000000000E+00 0. -1.
        -12    1    4    4    0    0 -0.15848686057E+02  0.46640224365E+02  0.19310256052E+02  0.52909142569E+02  0.00000000000E+00 0.  1.
        -11    1    3    3    0    0  0.39927382734E+02  0.24285705654E+02 -0.43334986651E+02  0.63733134703E+02  0.00000000000E+00 0.  1.
         11    1    3    3    0    0 -0.25814770408E+02 -0.35194299391E+02 -0.22527344002E+02  0.49117433856E+02  0.00000000000E+00 0. -1.
         21    1    1    2  502  501 -0.23888978299E+02 -0.12083846073E+02  0.93952692766E+01  0.28372058524E+02  0.00000000000E+00 0. -1.
<scales pt_clust_5="13000.00000" pt_clust_6="13000.00000" pt_clust_7="13000.00000" pt_clust_8="13000.00000" pt_clust_9="26.77130"></scales>
<clustering>
<clus scale="   26.771">  1  9  2 -1</clus>
<clus scale="   80.686">  5  6 -1 -1</clus>
<clus scale="   82.277">  1  5  2 -1</clus>
<clus scale="   89.885">  7  8 -1 -1</clus>
<clus scale="   26.771">  1  5  2 -1</clus>
</clustering>
</event>
<event>
 9    1  0.2951046E-005  0.1477361E+03  0.7546771E-02  0.1206908E+00
         -4   -1    0    0    0  501 -0.00000000000E+00  0.00000000000E+00  0.13170060280E+04  0.13170060280E+04  0.00000000000E+00 0.  1.
          3   -1    0    0  502    0  0.00000000000E+00 -0.00000000000E+00 -0.90782407904E+02  0.90782407904E+02  0.00000000000E+00 0. -1.
        -24    2    1    2    0    0  0.11689403414E+03 -0.72663106073E+02  0.87434860790E+03  0.88874541858E+03  0.80242063229E+02 0.  0.
         23    2    1    2    0    0 -0.64774263110E+02  0.40422178301E+02  0.41373078078E+03  0.43196785399E+03  0.97945955773E+02 0.  0.
         13    1    3    3    0    0  0.33984736781E+02 -0.60766477849E+02  0.28012523792E+03  0.28864801417E+03  0.00000000000E+00 0. -1.
        -14    1    3    3    0    0  0.82909297355E+02 -0.11896628223E+02  0.59422336998E+03  0.60009740441E+03  0.00000000000E+00 0.  1.
        -13    1    4    4    0    0 -0.30741915664E+02  0.66728542479E+02  0.32705719477E+03  0.33520765566E+03  0.00000000000E+00 0. -1.
         13    1    4    4    0    0 -0.34032347446E+02 -0.26306364177E+02  0.86673586013E+02  0.96760198332E+02  0.00000000000E+00 0.  1.
         21    1    1    2  502  501 -0.52119771026E+02  0.32240927771E+02 -0.61855768610E+02  0.87075163311E+02  0.00000000000E+00 0. -1.
<scales pt_clust_5="13000.00000" pt_clust_6="13000.00000" pt_clust_7="13000.00000" pt_clust_8="13000.00000" pt_clust_9="61.28579"></scales>
<clustering>
<clus scale="   61.286">  2  9  1 -1</clus>
<clus scale="   80.242">  5  6 -1 -1</clus>
<clus scale="   97.946">  7  8 -1 -1</clus>
<clus scale="  136.643">  1  5  2 -1</clus>
<clus scale="   61.286">  2  5  1 -1</clus>
</clustering>
</event>
<event>
 9    1  0.2951046E-005  0.1357127E+03  0.7546771E-02  0.1221787E+00
         -2   -1    0    0    0  501 -0.00000000000E+00  0.00000000000E+00  0.21472537123E+03  0.21472537123E+03  0.00000000000E+00 0.  1.
          1   -1    0    0  502    0  0.00000000000E+00 -0.00000000000E+00 -0.36947875769E+03  0.36947875769E+03  0.00000000000E+00 0. -1.
        -24    2    1    2    0    0  0.46324731444E+02 -0.88333545702E+02  0.17223082537E+03  0.21437330932E+03  0.79647112315E+02 0.  0.
         23    2    1    2    0    0 -0.42759054356E+02  0.10965468429E+03 -0.26023275916E+03  0.29966628841E+03  0.90699001942E+02 0.  0.
         11    1    3    3    0    0  0.41189443607E+02 -0.48349520892E+02  0.37541991939E+02  0.73781078834E+02  0.00000000000E+00 0. -1.
        -12    1    3    3    0    0  0.51352878371E+01 -0.39984024809E+02  0.13468883343E+03  0.14059223048E+03  0.00000000000E+00 0.  1.
        -11    1    4    4    0    0 -0.69039998309E+02  0.93210777704E+02 -0.22169423323E+03  0.25020612201E+03  0.00000000000E+00 0. -1.
         11    1    4    4    0    0  0.26280943953E+02  0.16443906585E+02 -0.38538525928E+02  0.49460166392E+02  0.00000000000E+00 0.  1.
         21    1    1    2  502  501 -0.35656770878E+01 -0.21321138587E+02 -0.66751452673E+02  0.70164531194E+02  0.00000000000E+00 0.  1.
<scales pt_clust_5="13000.00000" pt_clust_6="13000.00000" pt_clust_7="13000.00000" pt_clust_8="13000.00000" pt_clust_9="21.61724"></scales>
<clustering>
<clus scale="   21.617">  2  9  1 -1</clus>
<clus scale="   79.647">  5  6 -1 -1</clus>
<clus scale="   90.699">  7  8 -1 -1</clus>
<clus scale="  128.590">  1  5  2 -1</clus>
<clus scale="   21.617">  2  5  1 -1</clus>
</clustering>
</event>
<event>
 9    1  0.2951046E-005  0.1167461E+03  0.7546771E-02  0.1252903E+00
          1   -1    0    0  502    0  0.00000000000E+00  0.00000000000E+00  0.48342335608E+03  0.48342335608E+03  0.00000000000E+00 0. -1.
         -2   -1    0    0    0  501 -0.00000000000E+00 -0.00000000000E+00 -0.63793081047E+02  0.63793081047E+02  0.00000000000E+00 0.  1.
         23    2    1    2    0    0 -0.50912056697E+02 -0.66282610343E+02  0.44780648153E+02  0.13398264399E+03  0.94660554033E+02 0.  0.
        -24    2    1    2    0    0  0.37612408145E+02  0.29243485284E+02  0.10999687651E+03  0.14547315971E+03  0.82421190696E+02 0.  0.
         11    1    4    4    0    0  0.58628380548E+02  0.34895707876E+02  0.59658595429E+02  0.90631922866E+02  0.00000000000E+00 0. -1.
        -12    1    4    4    0    0 -0.21015972403E+02 -0.56522225923E+01  0.50338281081E+02  0.54841236843E+02  0.00000000000E+00 0.  1.
        -11    1    3    3    0    0  0.69347658200E+01 -0.41391953663E+02 -0.17445924955E+02  0.45450468672E+02  0.00000000000E+00 0.  1.
         11    1    3    3    0    0 -0.57846822517E+02 -0.24890656680E+02  0.62226573108E+02  0.88532175315E+02  0.00000000000E+00 0. -1.
         21    1    1    2  502  501  0.13299648552E+02  0.37039125059E+02  0.26485275037E+03  0.26776063343E+03  0.00000000000E+00 0. -1.
<scales pt_clust_5="13000.00000" pt_clust_6="13000.00000" pt_clust_7="13000.00000" pt_clust_8="13000.00000" pt_clust_9="39.35451"></scales>
<clustering>
<clus scale="   39.355">  1  9  2 -1</clus>
<clus scale="   82.421">  5  6 -1 -1</clus>
<clus scale="   94.661">  7  8 -1 -1</clus>
<clus scale="  107.062">  1  5  2 -1</clus>
<clus scale="   39.355">  1  5  2 -1</clus>
</clustering>
</event>
<event>
 9    1  0.2951046E-005  0.1019587E+03  0.7546771E-02  0.1280130E+00
          1   -1    0    0  502    0  0.00000000000E+00  0.00000000000E+00  0.41113883476E+03  0.41113883476E+03  0.00000000000E+00 0. -1.
         -2   -1    0    0    0  501 -0.00000000000E+00 -0.00000000000E+00 -0.12594229752E+03  0.12594229752E+03  0.00000000000E+00 0.  1.
         23    2    1    2    0    0 -0.36281826541E+02 -0.55558283841E+02 -0.72443639188E+02  0.13331426618E+03  0.90119469975E+02 0.  0.
        -24    2    1    2    0    0  0.48397059336E+02 -0.14086187618E+01  0.32144871711E+03  0.33519698506E+03  0.81752562659E+02 0.  0.
         11    1    4    4    0    0  0.70755531668E+02 -0.39526150980E+01  0.21438236815E+03  0.22579142632E+03  0.00000000000E+00 0. -1.
        -12    1    4    4    0    0 -0.22358472332E+02  0.25439963361E+01  0.10706634897E+03  0.10940555874E+03  0.00000000000E+00 0.  1.
        -13    1    3    3    0    0 -0.19120045324E+01 -0.46929341980E+02  0.58918774036E+01  0.47336382618E+02  0.00000000000E+00 0.  1.
         13    1    3    3    0    0 -0.34369822009E+02 -0.86289418604E+01 -0.78335516592E+02  0.85977883565E+02  0.00000000000E+00 0. -1.
         21    1    1    2  502  501 -0.12115232795E+02  0.56966902603E+02  0.36191459308E+02  0.68569881031E+02  0.00000000000E+00 0.  1.
<scales pt_clust_5="13000.00000" pt_clust_6="13000.00000" pt_clust_7="13000.00000" pt_clust_8="13000.00000" pt_clust_9="58.24094"></scales>
<clustering>
<clus scale="   58.241">  2  9  1 -1</clus>
<clus scale="   81.753">  5  6 -1 -1</clus>
<clus scale="   90.119">  7  8 -1 -1</clus>
<clus scale="   94.644">  1  5  2 -1</clus>
<clus scale="   94.644">  1  5  2 -1</clus>
</clustering>
</event>
<event>
 9    1  0.2951046E-005  0.9150283E+02  0.7546771E-02  0.1305693E+00
         -2   -1    0    0    0  501 -0.00000000000E+00  0.00000000000E+00  0.81581398913E+02  0.81581398913E+02  0.00000000000E+00 0.  1.
          1   -1    0    0  502    0  0.00000000000E+00 -0.00000000000E+00 -0.37279850669E+03  0.37279850669E+03  0.00000000000E+00 0. -1.
         23    2    1    2    0    0 -0.10904945125E+01  0.32188758306E+01  0.37194238823E+02  0.98521206123E+02  0.91167243648E+02 0.  0.
        -24    2    1    2    0    0 -0.19168934480E+02 -0.42093964150E+02 -0.22442765460E+03  0.24301223229E+03  0.80918619782E+02 0.  0.
         13    1    4    4    0    0 -0.36115628547E+02 -0.58304977791E+02 -0.18265332117E+03  0.19510521468E+03  0.00000000000E+00 0. -1.
        -14    1    4    4    0    0  0.16946694067E+02  0.16211013640E+02 -0.41774333423E+02  0.47907017606E+02  0.00000000000E+00 0.  1.
        -11    1    3    3    0    0  0.29604708023E+02 -0.20031919196E+02 -0.10468893097E+02  0.37246667589E+02  0.00000000000E+00 0.  1.
         11    1    3    3    0    0 -0.30695202536E+02  0.23250795026E+02  0.47663131920E+02  0.61274538534E+02  0.00000000000E+00 0. -1.
         21    1    1    2  502  501  0.20259428992E+02  0.38875088320E+02 -0.10398369200E+03  0.11284646719E+03  0.00000000000E+00 0.  1.
<scales pt_clust_5="13000.00000" pt_clust_6="13000.00000" pt_clust_7="13000.00000" pt_clust_8="13000.00000" pt_clust_9="43.83739"></scales>
<clustering>
<clus scale="   43.837">  2  9  1 -1</clus>
<clus scale="   80.919">  5  6 -1 -1</clus>
<clus scale="   81.297">  2  5  1 -1</clus>
<clus scale="   91.167">  7  8 -1 -1</clus>
<clus scale="   43.837">  2  5  1 -1</clus>
</clustering>
</event>
<event>
 9    1  0.2951046E-005  0.2337099E+03  0.7546771E-02  0.1139928E+00
          1   -1    0    0  502    0  0.00000000000E+00  0.00000000000E+00  0.54615377521E+03  0.54615377521E+03  0.00000000000E+00 0. -1.
         -2   -1    0    0    0  501 -0.00000000000E+00 -0.00000000000E+00 -0.28797034098E+03  0.28797034098E+03  0.00000000000E+00 0.  1.
        -24    2    1    2    0    0 -0.23037884743E+03 -0.59458923569E+02 -0.14627248608E+03  0.29062325690E+03  0.80352102217E+02 0.  0.
         23    2    1    2    0    0  0.47613720226E+02  0.12243281382E+03  0.25028396418E+03  0.29624027887E+03  0.88653143469E+02 0.  0.
         13    1    3    3    0    0 -0.43724489014E+02 -0.41078340368E+02 -0.15459176915E+02  0.61953588580E+02  0.00000000000E+00 0. -1.
        -14    1    3    3    0    0 -0.18665435841E+03 -0.18380583201E+02 -0.13081330916E+03  0.22866966832E+03  0.00000000000E+00 0.  1.
        -13    1    4    4    0    0  0.20232482937E+02  0.32063078206E+01  0.34742005554E+01  0.20777484091E+02  0.00000000000E+00 0.  1.
         13    1    4    4    0    0  0.27381237289E+02  0.11922650600E+03  0.24680976363E+03  0.27546279478E+03  0.00000000000E+00 0. -1.
         21    1    1    2  502  501  0.18276512720E+03 -0.62973890255E+02  0.15417195612E+03  0.24726058042E+03  0.00000000000E+00 0.  1.
<scales pt_clust_5="13000.00000" pt_clust_6="13000.00000" pt_clust_7="13000.00000" pt_clust_8="13000.00000" pt_clust_9="219.46262"></scales>
<clustering>
<clus scale="   80.352">  5  6 -1 -1</clus>
<clus scale="   88.653">  7  8 -1 -1</clus>
<clus scale="  158.481">  1  7  2 -1</clus>
<clus scale="  219.463">  1  9  2 -1</clus>
<clus scale="  158.481">  1  5  2 -1</clus>
</clustering>
</event>
<event>
 9    1  0.2951046E-005  0.1364717E+03  0.7546771E-02  0.1237639E+00
         -2   -1    0    0    0  501 -0.00000000000E+00  0.00000000000E+00  0.15132668096E+03  0.15132668096E+03  0.00000000000E+00 0.  1.
          1   -1    0    0  502    0  0.00000000000E+00 -0.00000000000E+00 -0.41778287400E+03  0.41778287400E+03  0.00000000000E+00 0. -1.
        -24    2    1    2    0    0 -0.31868150830E+02 -0.27249368699E+02 -0.26617786297E+00  0.91139954827E+02  0.80921649658E+02 0.  0.
         23    2    1    2    0    0 -0.69785720592E+02  0.56732585194E+01  0.63957064259E+02  0.13185382157E+03  0.91611634270E+02 0.  0.
         11    1    3    3    0    0 -0.13009879882E+02 -0.53067577752E+02 -0.13904547455E+02  0.56380503926E+02  0.00000000000E+00 0. -1.
        -12    1    3    3    0    0 -0.18858270948E+02  0.25818209053E+02  0.13638369592E+02  0.34759450902E+02  0.00000000000E+00 0.  1.
        -11    1    4    4    0    0  0.20128315797E+01  0.30801760183E+02  0.43034476809E+02  0.52960042632E+02  0.00000000000E+00 0. -1.
         11    1    4    4    0    0 -0.71798552171E+02 -0.25128501664E+02  0.20922587450E+02  0.78893778940E+02  0.00000000000E+00 0.  1.
         21    1    1    2  502  501  0.10165387142E+03  0.21576110179E+02 -0.33014707944E+03  0.34611577856E+03  0.00000000000E+00 0. -1.
<scales pt_clust_5="13000.00000" pt_clust_6="13000.00000" pt_clust_7="13000.00000" pt_clust_8="13000.00000" pt_clust_9="101.15253"></scales>
<clustering>
<clus scale="   80.922">  5  6 -1 -1</clus>
<clus scale="   91.140">  1  5  2 -1</clus>
<clus scale="   91.612">  7  8 -1 -1</clus>
<clus scale="  101.153">  2  9  1 -1</clus>
<clus scale="  101.153">  2  5  1 -1</clus>
</clustering>
</event>
<event>
 9    1  0.2951046E-005  0.1250611E+03  0.7546771E-02  0.1253606E+00
          1   -1    0    0  502    0  0.00000000000E+00  0.00000000000E+00  0.88444193194E+02  0.88444193194E+02  0.00000000000E+00 0. -1.
         -2   -1    0    0    0  501 -0.00000000000E+00 -0.00000000000E+00 -0.46043683675E+03  0.46043683675E+03  0.00000000000E+00 0.  1.
        -24    2    1    2    0    0 -0.21189333465E+02 -0.20112317414E+02 -0.26770029470E+03  0.28114049555E+03  0.80765322335E+02 0.  0.
         23    2    1    2    0    0 -0.51320270644E+02 -0.31174382274E+02 -0.13436630192E+03  0.17397267793E+03  0.92771640528E+02 0.  0.
         11    1    3    3    0    0  0.40079647539E+01  0.19850137703E+02 -0.18265605954E+02  0.27271305600E+02  0.00000000000E+00 0. -1.
        -12    1    3    3    0    0 -0.25197298219E+02 -0.39962455117E+02 -0.24943468874E+03  0.25386918995E+03  0.00000000000E+00 0.  1.
        -11    1    4    4    0    0 -0.16157509009E+02  0.33280970389E+02 -0.48372313788E+02  0.60898019907E+02  0.00000000000E+00 0. -1.
         11    1    4    4    0    0 -0.35162761635E+02 -0.64455352663E+02 -0.85993988128E+02  0.11307465802E+03  0.00000000000E+00 0.  1.
         21    1    1    2  502  501  0.72509604108E+02  0.51286699688E+02  0.30073953061E+02  0.93767856462E+02  0.00000000000E+00 0. -1.
<scales pt_clust_5="13000.00000" pt_clust_6="13000.00000" pt_clust_7="13000.00000" pt_clust_8="13000.00000" pt_clust_9="83.86717"></scales>
<clustering>
<clus scale="   80.765">  5  6 -1 -1</clus>
<clus scale="   85.887">  2  5  1 -1</clus>
<clus scale="   83.867">  1  9  2 -1</clus>
<clus scale="   92.772">  7  8 -1 -1</clus>
<clus scale="   83.867">  1  5  2 -1</clus>
</clustering>
</event>
<event>
 9    1  0.2951046E-005  0.1032990E+03  0.7546771E-02  0.1277566E+00
          1   -1    0    0  502    0  0.00000000000E+00  0.00000000000E+00  0.59553536499E+03  0.59553536499E+03  0.00000000000E+00 0. -1.
         -2   -1    0    0    0  501 -0.00000000000E+00 -0.00000000000E+00 -0.93800660007E+02  0.93800660007E+02  0.00000000000E+00 0.  1.
         23    2    1    2    0    0  0.23125206266E+02 -0.35397126452E+02 -0.31661242433E+02  0.10632330190E+03  0.92273932005E+02 0.  0.
        -24    2    1    2    0    0 -0.11317008002E+03  0.11720314297E+02  0.29324208011E+03  0.32544224594E+03  0.83527870305E+02 0.  0.
         11    1    4    4    0    0 -0.94002779149E+02 -0.24889590863E+02  0.23207482906E+03  0.25162420492E+03  0.00000000000E+00 0. -1.
        -12    1    4    4    0    0 -0.19167300868E+02  0.36609905161E+02  0.61167251052E+02  0.73818041018E+02  0.00000000000E+00 0.  1.
        -11    1    3    3    0    0  0.53814685195E+02 -0.32825501732E+02 -0.12598312246E+01  0.63048561294E+02  0.00000000000E+00 0.  1.
         11    1    3    3    0    0 -0.30689478929E+02 -0.25716247199E+01 -0.30401411208E+02  0.43274740601E+02  0.00000000000E+00 0. -1.
         21    1    1    2  502  501  0.90044873752E+02  0.23676812155E+02  0.24015386731E+03  0.25757047716E+03  0.00000000000E+00 0.  1.
<scales pt_clust_5="13000.00000" pt_clust_6="13000.00000" pt_clust_7="13000.00000" pt_clust_8="13000.00000" pt_clust_9="93.10570"></scales>
<clustering>
<clus scale="   83.528">  5  6 -1 -1</clus>
<clus scale="   92.274">  7  8 -1 -1</clus>
<clus scale="   93.106">  1  9  2 -1</clus>
<clus scale="   95.567">  1  5  2 -1</clus>
<clus scale="   93.106">  1  5  2 -1</clus>
</clustering>
</event>
<event>
 9    1  0.2951046E-005  0.1909099E+03  0.7546771E-02  0.1159254E+00
         -2   -1    0    0    0  501 -0.00000000000E+00  0.00000000000E+00  0.32667334705E+03  0.32667334705E+03  0.00000000000E+00 0.  1.
          1   -1    0    0  502    0  0.00000000000E+00 -0.00000000000E+00 -0.66166678889E+03  0.66166678889E+03  0.00000000000E+00 0. -1.
         23    2    1    2    0    0 -0.15970840404E+03 -0.43000511685E+02  0.26336227238E+03  0.32553072430E+03  0.96201598846E+02 0.  0.
        -24    2    1    2    0    0  0.13271219861E+03  0.10406802594E+03 -0.54822257375E+03  0.57931469218E+03  0.81331669852E+02 0.  0.
         13    1    4    4    0    0  0.89169434667E+02  0.24118758224E+02 -0.33427624824E+03  0.34680471841E+03  0.00000000000E+00 0. -1.
        -14    1    4    4    0    0  0.43542763940E+02  0.79949267718E+02 -0.21394632552E+03  0.23250997377E+03  0.00000000000E+00 0.  1.
        -11    1    3    3    0    0 -0.80361658837E+02 -0.17645449890E+02  0.49500674502E+02  0.96019138139E+02  0.00000000000E+00 0.  1.
         11    1    3    3    0    0 -0.79346745208E+02 -0.25355061795E+02  0.21386159788E+03  0.22951158616E+03  0.00000000000E+00 0. -1.
         21    1    1    2  502  501  0.26996205438E+02 -0.61067514257E+02 -0.50133140467E+02  0.83494719466E+02  0.00000000000E+00 0. -1.
<scales pt_clust_5="13000.00000" pt_clust_6="13000.00000" pt_clust_7="13000.00000" pt_clust_8="13000.00000" pt_clust_9="66.76853"></scales>
<clustering>
<clus scale="   66.769">  2  9  1 -1</clus>
<clus scale="   81.332">  5  6 -1 -1</clus>
<clus scale="   96.202">  7  8 -1 -1</clus>
<clus scale="  183.866">  2  5  1 -1</clus>
<clus scale="   66.769">  2  5  1 -1</clus>
</clustering>
</event>
<event>
 9    1  0.2951046E-005  0.1245101E+03  0.7546771E-02  0.1238358E+00
          1   -1    0    0  502    0  0.00000000000E+00  0.00000000000E+00  0.34805883967E+03  0.34805883967E+03  0.00000000000E+00 0. -1.
         -2   -1    0    0    0  501 -0.00000000000E+00 -0.00000000000E+00 -0.44975794285E+03  0.44975794285E+03  0.00000000000E+00 0.  1.
        -24    2    1    2    0    0  0.16743088105E+02 -0.86695442789E+02 -0.40690647552E+03  0.42387201624E+03  0.79361045450E+02 0.  0.
         23    2    1    2    0    0 -0.83138908199E+02  0.59315715481E+02  0.14385160555E+03  0.19732727601E+03  0.88398740248E+02 0.  0.
         11    1    3    3    0    0  0.43915959603E+02 -0.45451881458E+02 -0.15914363565E+03  0.17123428922E+03  0.00000000000E+00 0. -1.
        -12    1    3    3    0    0 -0.27172871498E+02 -0.41243561330E+02 -0.24776283986E+03  0.25263772702E+03  0.00000000000E+00 0.  1.
        -13    1    4    4    0    0  0.22549168524E+01  0.39346720507E+02  0.16557003944E+02  0.42747905729E+02  0.00000000000E+00 0.  1.
         13    1    4    4    0    0 -0.85393825051E+02  0.19968994974E+02  0.12729460161E+03  0.15457937028E+03  0.00000000000E+00 0. -1.
         21    1    1    2  502  501  0.66395820093E+02  0.27379727308E+02  0.16135576679E+03  0.17661749027E+03  0.00000000000E+00 0. -1.
<scales pt_clust_5="13000.00000" pt_clust_6="13000.00000" pt_clust_7="13000.00000" pt_clust_8="13000.00000" pt_clust_9="71.81960"></scales>
<clustering>
<clus scale="   71.820">  1  9  2 -1</clus>
<clus scale="   79.361">  5  6 -1 -1</clus>
<clus scale="   88.399">  7  8 -1 -1</clus>
<clus scale="  118.265">  2  5  1 -1</clus>
<clus scale="   71.820">  1  5  2 -1</clus>
</clustering>
</event>
<event>
 9    1  0.2951046E-005  0.1400736E+03  0.7546771E-02  0.1215549E+00
          1   -1    0    0  502    0  0.00000000000E+00  0.00000000000E+00  0.61089255677E+02  0.61089255677E+02  0.00000000000E+00 0. -1.
         -2   -1    0    0    0  501 -0.00000000000E+00 -0.00000000000E+00 -0.51132683569E+03  0.51132683569E+03  0.00000000000E+00 0.  1.
        -24    2    1    2    0    0  0.98029743048E+02 -0.30026947461E+02 -0.32570962113E+03  0.35085628583E+03  0.80634532986E+02 0.  0.
         23    2    1    2    0    0 -0.10881659820E+03 -0.24966735212E+01 -0.73151947114E+02  0.15980515591E+03  0.91319193307E+02 0.  0.
         11    1    3    3    0    0  0.28127832163E+02 -0.48442578322E+02 -0.11153266091E+03  0.12480942587E+03  0.00000000000E+00 0. -1.
        -12    1    3    3    0    0  0.69901910885E+02  0.18415630861E+02 -0.21417696022E+03  0.22604685996E+03  0.00000000000E+00 0.  1.
        -11    1    4    4    0    0 -0.32761054892E+02  0.36258799747E+02 -0.53015694523E+02  0.72101672259E+02  0.00000000000E+00 0.  1.
         11    1    4    4    0    0 -0.76055543308E+02 -0.38755473269E+02 -0.20136252591E+02  0.87703483651E+02  0.00000000000E+00 0. -1.
         21    1    1    2  502  501  0.10786855152E+02  0.32523620982E+02 -0.51376011764E+02  0.61754649628E+02  0.00000000000E+00 0.  1.
<scales pt_clust_5="13000.00000" pt_clust_6="13000.00000" pt_clust_7="13000.00000" pt_clust_8="13000.00000" pt_clust_9="34.26576"></scales>
<clustering>
<clus scale="   34.266">  2  9  1 -1</clus>
<clus scale="   80.635">  5  6 -1 -1</clus>
<clus scale="   91.319">  7  8 -1 -1</clus>
<clus scale="  133.354">  2  5  1 -1</clus>
<clus scale="  140.074">  1  5  2 -1</clus>
</clustering>
</event>
<event>
 9    1  0.2951046E-005  0.9337619E+02  0.7546771E-02  0.1302397E+00
          1   -1    0    0  502    0  0.00000000000E+00  0.00000000000E+00  0.16598648181E+03  0.16598648181E+03  0.00000000000E+00 0. -1.
         -2   -1    0    0    0  501 -0.00000000000E+00 -0.00000000000E+00 -0.20714999447E+03  0.20714999447E+03  0.00000000000E+00 0.  1.
        -24    2    1    2    0    0 -0.46407349804E+01 -0.13883281545E+02 -0.17234902743E+03  0.19045823332E+03  0.79723706983E+02 0.  0.
         23    2    1    2    0    0 -0.11644405617E+02  0.32979934381E+02  0.84832238400E+02  0.12996662959E+03  0.92041011953E+02 0.  0.
         11    1    3    3    0    0 -0.39097365832E+02  0.82231501051E+01 -0.91206621962E+02  0.99573450791E+02  0.00000000000E+00 0. -1.
        -12    1    3    3    0    0  0.34456630852E+02 -0.22106431650E+02 -0.81142405465E+02  0.90884782525E+02  0.00000000000E+00 0.  1.
        -13    1    4    4    0    0 -0.33522165667E+02 -0.16986614893E+02  0.12986859483E+02  0.39761026090E+02  0.00000000000E+00 0.  1.
         13    1    4    4    0    0  0.21877760050E+02  0.49966549274E+02  0.71845378917E+02  0.90205603501E+02  0.00000000000E+00 0. -1.
         21    1    1    2  502  501  0.16285140597E+02 -0.19096652836E+02  0.46353276374E+02  0.52711613373E+02  0.00000000000E+00 0. -1.
<scales pt_clust_5="13000.00000" pt_clust_6="13000.00000" pt_clust_7="13000.00000" pt_clust_8="13000.00000" pt_clust_9="25.09757"></scales>
<clustering>
<clus scale="   25.098">  1  9  2 -1</clus>
<clus scale="   79.724">  5  6 -1 -1</clus>
<clus scale="   81.262">  2  5  1 -1</clus>
<clus scale="   92.041">  7  8 -1 -1</clus>
<clus scale="   25.098">  1  5  2 -1</clus>
</clustering>
</event>
<event>
 9    1  0.2951046E-005  0.9608833E+02  0.7546771E-02  0.1294413E+00
          1   -1    0    0  502    0  0.00000000000E+00  0.00000000000E+00  0.17261190413E+03  0.17261190413E+03  0.00000000000E+00 0. -1.
         -2   -1    0    0    0  501 -0.00000000000E+00 -0.00000000000E+00 -0.14048435201E+03  0.14048435201E+03  0.00000000000E+00 0.  1.
         23    2    1    2    0    0 -0.40860884716E+01  0.16439271742E+01 -0.37648489423E+02  0.98990854073E+02  0.91446059613E+02 0.  0.
        -24    2    1    2    0    0  0.78662819949E+02 -0.28795982514E+02  0.14950732907E+02  0.11764433502E+03  0.81238028639E+02 0.  0.
         13    1    4    4    0    0  0.70089276597E+02 -0.46211813531E+02  0.33879823404E+02  0.90531104255E+02  0.00000000000E+00 0. -1.
        -14    1    4    4    0    0  0.85735433526E+01  0.17415831017E+02 -0.18929090497E+02  0.27113230768E+02  0.00000000000E+00 0.  1.
        -11    1    3    3    0    0  0.35024010348E+02  0.27378602820E+02 -0.22202434537E+02  0.49691219472E+02  0.00000000000E+00 0.  1.
         11    1    3    3    0    0 -0.39110098819E+02 -0.25734675646E+02 -0.15446054886E+02  0.49299634601E+02  0.00000000000E+00 0. -1.
         21    1    1    2  502  501 -0.74576731478E+02  0.27152055340E+02  0.54825308639E+02  0.96461067040E+02  0.00000000000E+00 0. -1.
<scales pt_clust_5="13000.00000" pt_clust_6="13000.00000" pt_clust_7="13000.00000" pt_clust_8="13000.00000" pt_clust_9="79.36575"></scales>
<clustering>
<clus scale="   79.366">  1  9  2 -1</clus>
<clus scale="   81.238">  5  6 -1 -1</clus>
<clus scale="   86.430">  1  5  2 -1</clus>
<clus scale="   91.446">  7  8 -1 -1</clus>
<clus scale="   79.366">  1  5  2 -1</clus>
</clustering>
</event>
<event>
 9    1  0.2951046E-005  0.9064324E+02  0.7546771E-02  0.1309101E+00
         -2   -1    0    0    0  501 -0.00000000000E+00  0.00000000000E+00  0.29355093774E+03  0.29355093774E+03  0.00000000000E+00 0.  1.
          1   -1    0    0  502    0  0.00000000000E+00 -0.00000000000E+00 -0.45706756748E+02  0.45706756748E+02  0.00000000000E+00 0. -1.
         23    2    1    2    0    0 -0.32157231391E+01  0.21166030226E+01  0.20232646312E+03  0.22171696445E+03  0.90595771210E+02 0.  0.
        -24    2    1    2    0    0 -0.21475769438E+02  0.37508247434E+01  0.26105680071E+02  0.85588832980E+02  0.78540845677E+02 0.  0.
         13    1    4    4    0    0 -0.36063275498E+02  0.22094393454E+02 -0.91329192135E+01  0.43268143883E+02  0.00000000000E+00 0. -1.
        -14    1    4    4    0    0  0.14587506060E+02 -0.18343568710E+02  0.35238599285E+02  0.42320689097E+02  0.00000000000E+00 0.  1.
        -11    1    3    3    0    0 -0.42564835350E+02 -0.12462836930E+02  0.69740406559E+02  0.82648725458E+02  0.00000000000E+00 0. -1.
         11    1    3    3    0    0  0.39349112211E+02  0.14579439953E+02  0.13258605656E+03  0.13906823899E+03  0.00000000000E+00 0.  1.
         21    1    1    2  502  501  0.24691492577E+02 -0.58674277660E+01  0.19412037802E+02  0.31951897062E+02  0.00000000000E+00 0. -1.
<scales pt_clust_5="13000.00000" pt_clust_6="13000.00000" pt_clust_7="13000.00000" pt_clust_8="13000.00000" pt_clust_9="25.37906"></scales>
<clustering>
<clus scale="   25.379">  2  9  1 -1</clus>
<clus scale="   78.541">  5  6 -1 -1</clus>
<clus scale="   78.596">  2  5  1 -1</clus>
<clus scale="   90.596">  7  8 -1 -1</clus>
<clus scale="   25.379">  2  5  1 -1</clus>
</clustering>
</event>
<event>
 9    1  0.2951046E-005  0.1108192E+03  0.7546771E-02  0.1262942E+00
         -2   -1    0    0    0  501 -0.00000000000E+00  0.00000000000E+00  0.22776278613E+02  0.22776278613E+02  0.00000000000E+00 0.  1.
          1   -1    0    0  502    0  0.00000000000E+00 -0.00000000000E+00 -0.78884435970E+03  0.78884435970E+03  0.00000000000E+00 0. -1.
         23    2    1    2    0    0  0.46100170670E+02 -0.20280927006E+02 -0.20917939854E+03  0.23399780834E+03  0.91991368058E+02 0.  0.
        -24    2    1    2    0    0 -0.68348749312E+02  0.44498754125E+02 -0.36353169772E+03  0.38148913582E+03  0.82018137322E+02 0.  0.
         11    1    4    4    0    0 -0.28033117277E+02 -0.20313280434E+02 -0.68595556297E+02  0.76836419554E+02  0.00000000000E+00 0. -1.
        -12    1    4    4    0    0 -0.40315632034E+02  0.64812034559E+02 -0.29493614142E+03  0.30465271626E+03  0.00000000000E+00 0.  1.
        -13    1    3    3    0    0  0.55889867558E+02  0.13375594487E+02 -0.17813410153E+03  0.18717462956E+03  0.00000000000E+00 0.  1.
         13    1    3    3    0    0 -0.97896968883E+01 -0.33656521493E+02 -0.31045297008E+02  0.46823178774E+02  0.00000000000E+00 0. -1.
         21    1    1    2  502  501  0.22248578642E+02 -0.24217827119E+02 -0.19335698483E+03  0.19613369416E+03  0.00000000000E+00 0. -1.
<scales pt_clust_5="13000.00000" pt_clust_6="13000.00000" pt_clust_7="13000.00000" pt_clust_8="13000.00000" pt_clust_9="32.88620"></scales>
<clustering>
<clus scale="   32.886">  2  9  1 -1</clus>
<clus scale="   82.018">  5  6 -1 -1</clus>
<clus scale="   91.991">  7  8 -1 -1</clus>
<clus scale="  102.691">  2  5  1 -1</clus>
<clus scale="   32.886">  2  5  1 -1</clus>
</clustering>
</event>
<event>
 9    1  0.2951046E-005  0.1331921E+03  0.7546771E-02  0.1243558E+00
         -2   -1    0    0    0  501 -0.00000000000E+00  0.00000000000E+00  0.27508355612E+03  0.27508355612E+03  0.00000000000E+00 0.  1.
          1   -1    0    0  502    0  0.00000000000E+00 -0.00000000000E+00 -0.16861906354E+03  0.16861906354E+03  0.00000000000E+00 0. -1.
        -24    2    1    2    0    0  0.54403314328E+01 -0.31661741507E+02  0.17958529607E+03  0.19952507058E+03  0.80791782644E+02 0.  0.
         23    2    1    2    0    0  0.91839965934E+02  0.38642326823E-01 -0.28186280856E+02  0.13245204626E+03  0.91183865312E+02 0.  0.
         11    1    3    3    0    0 -0.95636104356E+01 -0.17951379024E+02  0.16215879876E+01  0.20404514231E+02  0.00000000000E+00 0. -1.
        -12    1    3    3    0    0  0.15003941868E+02 -0.13710362483E+02  0.17796370809E+03  0.17912055635E+03  0.00000000000E+00 0.  1.
        -13    1    4    4    0    0  0.89625973775E+01  0.32683362550E+02 -0.27063509717E+02  0.43370080673E+02  0.00000000000E+00 0. -1.
         13    1    4    4    0    0  0.82877368557E+02 -0.32644720224E+02 -0.11227711388E+01  0.89081965585E+02  0.00000000000E+00 0.  1.
         21    1    1    2  502  501 -0.97280297367E+02  0.31623099180E+02 -0.44934522636E+02  0.11172550283E+03  0.00000000000E+00 0. -1.
<scales pt_clust_5="13000.00000" pt_clust_6="13000.00000" pt_clust_7="13000.00000" pt_clust_8="13000.00000" pt_clust_9="97.08573"></scales>
<clustering>
<clus scale="   80.792">  5  6 -1 -1</clus>
<clus scale="   86.945">  1  5  2 -1</clus>
<clus scale="   91.184">  7  8 -1 -1</clus>
<clus scale="   97.086">  2  9  1 -1</clus>
<clus scale="   97.086">  2  5  1 -1</clus>
</clustering>
</event>
<event>
 9    1  0.2951046E-005  0.8681663E+02  0.7546771E-02  0.1311404E+00
         -2   -1    0    0    0  501 -0.00000000000E+00  0.00000000000E+00  0.76961360535E+02  0.76961360535E+02  0.00000000000E+00 0.  1.
          1   -1    0    0  502    0  0.00000000000E+00 -0.00000000000E+00 -0.19080444255E+03  0.19080444255E+03  0.00000000000E+00 0. -1.
        -24    2    1    2    0    0  0.11177744523E+02  0.20005481384E+02 -0.21497282581E+02  0.91150853450E+02  0.85563915690E+02 0.  0.
         23    2    1    2    0    0  0.90228984253E+01  0.18490953129E+02 -0.98447022097E+02  0.13271430768E+03  0.86590664972E+02 0.  0.
         13    1    3    3    0    0 -0.27000202921E+02 -0.19752363073E+02 -0.76319098154E+01  0.34313450019E+02  0.00000000000E+00 0. -1.
        -14    1    3    3    0    0  0.38177947445E+02  0.39757844456E+02 -0.13865372766E+02  0.56837403431E+02  0.00000000000E+00 0.  1.
        -13    1    4    4    0    0  0.41793719656E+02 -0.12005213217E+02 -0.39911967422E+02  0.59023768861E+02  0.00000000000E+00 0.  1.
         13    1    4    4    0    0 -0.32770821231E+02  0.30496166347E+02 -0.58535054675E+02  0.73690538822E+02  0.00000000000E+00 0. -1.
         21    1    1    2  502  501 -0.20200642949E+02 -0.38496434513E+02  0.61012226641E+01  0.43900641952E+02  0.00000000000E+00 0. -1.
<scales pt_clust_5="13000.00000" pt_clust_6="13000.00000" pt_clust_7="13000.00000" pt_clust_8="13000.00000" pt_clust_9="43.47461"></scales>
<clustering>
<clus scale="   43.475">  1  9  2 -1</clus>
<clus scale="   85.564">  5  6 -1 -1</clus>
<clus scale="   85.793">  1  5  2 -1</clus>
<clus scale="   86.591">  7  8 -1 -1</clus>
<clus scale="   86.817">  2  5  1 -1</clus>
</clustering>
</event>
<event>
 9    1  0.2951046E-005  0.1053097E+03  0.7546771E-02  0.1275623E+00
          3   -1    0    0  502    0  0.00000000000E+00  0.00000000000E+00  0.87164002897E+02  0.87164002897E+02  0.00000000000E+00 0. -1.
         -4   -1    0    0    0  501 -0.00000000000E+00 -0.00000000000E+00 -0.20303803793E+03  0.20303803793E+03  0.00000000000E+00 0.  1.
        -24    2    1    2    0    0 -0.21620057436E+02 -0.40665743485E+02 -0.78201726538E+02  0.12058018449E+03  0.79391065502E+02 0.  0.
         23    2    1    2    0    0 -0.95295206126E+01  0.61375483181E+02 -0.59204710230E+02  0.12646129730E+03  0.92895103766E+02 0.  0.
         13    1    3    3    0    0  0.98610766412E+01 -0.42568164092E+02 -0.91162869179E+01  0.44636264560E+02  0.00000000000E+00 0. -1.
        -14    1    3    3    0    0 -0.31481134077E+02  0.19024206074E+01 -0.69085439620E+02  0.75943919931E+02  0.00000000000E+00 0.  1.
        -13    1    4    4    0    0  0.32270157825E+02 -0.39118009447E+01 -0.27970319259E+02  0.42883610297E+02  0.00000000000E+00 0.  1.
         13    1    4    4    0    0 -0.41799678438E+02  0.65287284126E+02 -0.31234390971E+02  0.83577687007E+02  0.00000000000E+00 0. -1.
         21    1    1    2  502  501  0.31149578049E+02 -0.20709739696E+02  0.21532401739E+02  0.43160559027E+02  0.00000000000E+00 0. -1.
<scales pt_clust_5="13000.00000" pt_clust_6="13000.00000" pt_clust_7="13000.00000" pt_clust_8="13000.00000" pt_clust_9="37.40574"></scales>
<clustering>
<clus scale="   37.406">  1  9  2 -1</clus>
<clus scale="   79.391">  5  6 -1 -1</clus>
<clus scale="   92.895">  7  8 -1 -1</clus>
<clus scale="   93.614">  2  5  1 -1</clus>
<clus scale="   37.406">  1  5  2 -1</clus>
</clustering>
</event>
<event>
 9    1  0.2951046E-005  0.9622489E+02  0.7546771E-02  0.1293309E+00
         -4   -1    0    0    0  501 -0.00000000000E+00  0.00000000000E+00  0.11798457221E+03  0.11798457221E+03  0.00000000000E+00 0.  1.
          3   -1    0    0  502    0  0.00000000000E+00 -0.00000000000E+00 -0.14735098888E+03  0.14735098888E+03  0.00000000000E+00 0. -1.
         23    2    1    2    0    0 -0.21363007152E+01 -0.25010079684E+02  0.63360125759E+02  0.11451871860E+03  0.92032404661E+02 0.  0.
        -24    2    1    2    0    0 -0.18495976234E+02  0.39256548767E+02 -0.73060405737E+02  0.11895134915E+03  0.83237148077E+02 0.  0.
         11    1    4    4    0    0 -0.24353739466E+02  0.55724098986E+02 -0.79702448523E+02  0.10025347941E+03  0.00000000000E+00 0. -1.
        -12    1    4    4    0    0  0.58577632327E+01 -0.16467550219E+02  0.66420427860E+01  0.18697869736E+02  0.00000000000E+00 0.  1.
        -13    1    3    3    0    0 -0.30785831996E+01 -0.56518559929E+02  0.18222129594E+02  0.59463192800E+02  0.00000000000E+00 0.  1.
         13    1    3    3    0    0  0.94228248441E+00  0.31508480245E+02  0.45137996165E+02  0.55055525803E+02  0.00000000000E+00 0. -1.
         21    1    1    2  502  501  0.20632276949E+02 -0.14246469083E+02 -0.19666136692E+02  0.31865493340E+02  0.00000000000E+00 0. -1.
<scales pt_clust_5="13000.00000" pt_clust_6="13000.00000" pt_clust_7="13000.00000" pt_clust_8="13000.00000" pt_clust_9="25.07295"></scales>
<clustering>
<clus scale="   25.073">  2  9  1 -1</clus>
<clus scale="   83.237">  5  6 -1 -1</clus>
<clus scale="   87.850">  2  5  1 -1</clus>
<clus scale="   92.032">  7  8 -1 -1</clus>
<clus scale="   25.073">  2  5  1 -1</clus>
</clustering>
</event>
<event>
 9    1  0.4357125E-005  0.1147861E+03  0.7546771E-02  0.1255595E+00
          1   -1    0    0  502    0  0.00000000000E+00  0.00000000000E+00  0.32582829567E+03  0.32582829567E+03  0.00000000000E+00 0. -1.
         -2   -1    0    0    0  501 -0.00000000000E+00 -0.00000000000E+00 -0.33286825415E+03  0.33286825415E+03  0.00000000000E+00 0.  1.
        -24    2    1    2    0    0 -0.39048068127E+02 -0.75962264449E+02 -0.29068683844E+03  0.31374324668E+03  0.81492144102E+02 0.  0.
         23    2    1    2    0    0  0.21113446416E+02  0.65129076295E+02  0.29821917569E+03  0.31943153940E+03  0.91729261504E+02 0.  0.
         11    1    3    3    0    0 -0.63876326663E+01 -0.24654302185E+02 -0.11387382821E+02  0.27898189096E+02  0.00000000000E+00 0. -1.
        -12    1    3    3    0    0 -0.32660435461E+02 -0.51307962264E+02 -0.27929945562E+03  0.28584505759E+03  0.00000000000E+00 0.  1.
        -11    1    4    4    0    0 -0.19141443507E+02  0.42447038931E+02  0.24304614335E+03  0.24746630836E+03  0.00000000000E+00 0. -1.
         11    1    4    4    0    0  0.40254889923E+02  0.22682037364E+02  0.55173032334E+02  0.71965231040E+02  0.00000000000E+00 0.  1.
         21    1    1    2  502  501  0.17934621711E+02  0.10833188155E+02 -0.14572295734E+02  0.25521763742E+02  0.00000000000E+00 0. -1.
<scales pt_clust_5="13000.00000" pt_clust_6="13000.00000" pt_clust_7="13000.00000" pt_clust_8="13000.00000" pt_clust_9="20.95253"></scales>
<clustering>
<clus scale="   20.953">  2  9  1 -1</clus>
<clus scale="   81.492">  5  6 -1 -1</clus>
<clus scale="   91.729">  7  8 -1 -1</clus>
<clus scale="  106.783">  2  5  1 -1</clus>
<clus scale="  114.786">  1  5  2 -1</clus>
</clustering>
</event>
<event>
 9    1  0.2951046E-005  0.9882063E+02  0.7546771E-02  0.1288681E+00
          3   -1    0    0  502    0  0.00000000000E+00  0.00000000000E+00  0.24330695809E+03  0.24330695809E+03  0.00000000000E+00 0. -1.
         -4   -1    0    0    0  501 -0.00000000000E+00 -0.00000000000E+00 -0.23826840729E+03  0.23826840729E+03  0.00000000000E+00 0.  1.
         23    2    1    2    0    0  0.13207886534E+02 -0.33511296929E+02 -0.21015482341E+03  0.23205188046E+03  0.91572758697E+02 0.  0.
        -24    2    1    2    0    0 -0.44225583153E+01  0.54855599890E+02  0.13735552951E+03  0.16833548502E+03  0.80259567455E+02 0.  0.
         11    1    4    4    0    0  0.65823624009E+01  0.68241057055E+02  0.13423400486E+03  0.15072802468E+03  0.00000000000E+00 0. -1.
        -12    1    4    4    0    0 -0.11004920716E+02 -0.13385457165E+02  0.31215246497E+01  0.17607460340E+02  0.00000000000E+00 0.  1.
        -11    1    3    3    0    0  0.30036056101E+02  0.66035985053E+01 -0.19312919607E+02  0.36314749663E+02  0.00000000000E+00 0. -1.
         11    1    3    3    0    0 -0.16828169567E+02 -0.40114895435E+02 -0.19084190380E+03  0.19573713080E+03  0.00000000000E+00 0.  1.
         21    1    1    2  502  501 -0.87853282192E+01 -0.21344302961E+02  0.77837844704E+02  0.81187999908E+02  0.00000000000E+00 0. -1.
<scales pt_clust_5="13000.00000" pt_clust_6="13000.00000" pt_clust_7="13000.00000" pt_clust_8="13000.00000" pt_clust_9="23.08162"></scales>
<clustering>
<clus scale="   23.082">  1  9  2 -1</clus>
<clus scale="   80.260">  5  6 -1 -1</clus>
<clus scale="   88.439">  1  5  2 -1</clus>
<clus scale="   91.573">  7  8 -1 -1</clus>
<clus scale="   23.082">  1  5  2 -1</clus>
</clustering>
</event>
<event>
 9    1  0.2951046E-005  0.1507542E+03  0.7546771E-02  0.1202130E+00
         -2   -1    0    0    0  501 -0.00000000000E+00  0.00000000000E+00  0.14505396404E+03  0.14505396404E+03  0.00000000000E+00 0.  1.
          1   -1    0    0  502    0  0.00000000000E+00 -0.00000000000E+00 -0.25350215643E+03  0.25350215643E+03  0.00000000000E+00 0. -1.
         23    2    1    2    0    0  0.16211846864E+02  0.10560236170E+03 -0.15205018546E+01  0.14064296563E+03  0.91451894891E+02 0.  0.
        -24    2    1    2    0    0 -0.88567914071E+01 -0.13495768598E+03 -0.96301996649E+01  0.15601794577E+03  0.77180560355E+02 0.  0.
         13    1    4    4    0    0 -0.30012307284E+02 -0.33394197915E+02 -0.24605847932E+02  0.51199206980E+02  0.00000000000E+00 0. -1.
        -14    1    4    4    0    0  0.21155515877E+02 -0.10156348807E+03  0.14975648267E+02  0.10481873879E+03  0.00000000000E+00 0.  1.
        -11    1    3    3    0    0  0.45256273176E+02  0.32476022855E+02 -0.21091519837E+02  0.59562358342E+02  0.00000000000E+00 0. -1.
         11    1    3    3    0    0 -0.29044426312E+02  0.73126338850E+02  0.19571017982E+02  0.81080607288E+02  0.00000000000E+00 0.  1.
         21    1    1    2  502  501 -0.73550554566E+01  0.29355324276E+02 -0.97297490864E+02  0.10189520908E+03  0.00000000000E+00 0. -1.
<scales pt_clust_5="13000.00000" pt_clust_6="13000.00000" pt_clust_7="13000.00000" pt_clust_8="13000.00000" pt_clust_9="30.26271"></scales>
<clustering>
<clus scale="   30.263">  2  9  1 -1</clus>
<clus scale="   77.181">  5  6 -1 -1</clus>
<clus scale="   91.452">  7  8 -1 -1</clus>
<clus scale="  142.549">  2  5  1 -1</clus>
<clus scale="   30.263">  2  5  1 -1</clus>
</clustering>
</event>
<event>
 9    1  0.2951046E-005  0.1028867E+03  0.7546771E-02  0.1280828E+00
         -2   -1    0    0    0  501 -0.00000000000E+00  0.00000000000E+00  0.18782399391E+03  0.18782399391E+03  0.00000000000E+00 0.  1.
          1   -1    0    0  502    0  0.00000000000E+00 -0.00000000000E+00 -0.34314321014E+03  0.34314321014E+03  0.00000000000E+00 0. -1.
         23    2    1    2    0    0 -0.40854871753E+02  0.19225558666E+02  0.15932760532E+03  0.18933955935E+03  0.91790197008E+02 0.  0.
        -24    2    1    2    0    0  0.66939989547E+02 -0.14464330190E+02 -0.21926106628E+03  0.24262489235E+03  0.78110461224E+02 0.  0.
         11    1    4    4    0    0  0.62144044184E+02  0.20201096261E+02 -0.17060196364E+03  0.18268824953E+03  0.00000000000E+00 0. -1.
        -12    1    4    4    0    0  0.47959453631E+01 -0.34665426451E+02 -0.48659102638E+02  0.59936642819E+02  0.00000000000E+00 0.  1.
        -13    1    3    3    0    0 -0.10168148645E+02 -0.27874058252E+02  0.12642773952E+02  0.32252040299E+02  0.00000000000E+00 0. -1.
         13    1    3    3    0    0 -0.30686723108E+02  0.47099616917E+02  0.14668483136E+03  0.15708751905E+03  0.00000000000E+00 0.  1.
         21    1    1    2  502  501 -0.26085117793E+02 -0.47612284763E+01 -0.95385755271E+02  0.99002752363E+02  0.00000000000E+00 0. -1.
<scales pt_clust_5="13000.00000" pt_clust_6="13000.00000" pt_clust_7="13000.00000" pt_clust_8="13000.00000" pt_clust_9="26.51608"></scales>
<clustering>
<clus scale="   26.516">  2  9  1 -1</clus>
<clus scale="   78.110">  5  6 -1 -1</clus>
<clus scale="   90.893">  2  5  1 -1</clus>
<clus scale="   91.790">  7  8 -1 -1</clus>
<clus scale="   26.516">  2  5  1 -1</clus>
</clustering>
</event>
<event>
 9    1  0.2951046E-005  0.1122972E+03  0.7546771E-02  0.1259326E+00
          1   -1    0    0  502    0  0.00000000000E+00  0.00000000000E+00  0.11926677651E+04  0.11926677651E+04  0.00000000000E+00 0. -1.
         -2   -1    0    0    0  501 -0.00000000000E+00 -0.00000000000E+00 -0.24927558575E+02  0.24927558575E+02  0.00000000000E+00 0.  1.
         23    2    1    2    0    0 -0.16499572565E+00  0.64908813670E+02  0.14537089916E+03  0.18269593187E+03  0.89621001345E+02 0.  0.
        -24    2    1    2    0    0  0.33089870499E+02 -0.81012944854E+02  0.87009141574E+03  0.87827261665E+03  0.81521044192E+02 0.  0.
         11    1    4    4    0    0  0.79041323479E+01 -0.83009765177E+02  0.46669243620E+03  0.47408324841E+03  0.00000000000E+00 0. -1.
        -12    1    4    4    0    0  0.25185738151E+02  0.19968203226E+01  0.40339897954E+03  0.40418936824E+03  0.00000000000E+00 0.  1.
        -13    1    3    3    0    0 -0.17809842881E+02  0.45985598491E+02  0.14864932555E+03  0.15661573280E+03  0.00000000000E+00 0.  1.
         13    1    3    3    0    0  0.17644847156E+02  0.18923215179E+02 -0.32784263930E+01  0.26080199069E+02  0.00000000000E+00 0. -1.
         21    1    1    2  502  501 -0.32924874774E+02  0.16104131184E+02  0.15227789166E+03  0.15662677520E+03  0.00000000000E+00 0.  1.
<scales pt_clust_5="13000.00000" pt_clust_6="13000.00000" pt_clust_7="13000.00000" pt_clust_8="13000.00000" pt_clust_9="36.65229"></scales>
<clustering>
<clus scale="   36.652">  1  9  2 -1</clus>
<clus scale="   81.521">  5  6 -1 -1</clus>
<clus scale="   89.621">  7  8 -1 -1</clus>
<clus scale="  105.945">  1  5  2 -1</clus>
<clus scale="   36.652">  1  5  2 -1</clus>
</clustering>
</event>
<event>
 9    1  0.2951046E-005  0.1422944E+03  0.7546771E-02  0.1211964E+00
         -4   -1    0    0    0  501 -0.00000000000E+00  0.00000000000E+00  0.50066723029E+03  0.50066723029E+03  0.00000000000E+00 0.  1.
          3   -1    0    0  502    0  0.00000000000E+00 -0.00000000000E+00 -0.73051481977E+02  0.73051481977E+02  0.00000000000E+00 0. -1.
         23    2    1    2    0    0 -0.92714980218E+02 -0.68744720167E+02  0.36109325588E+03  0.38985123972E+03  0.90960131689E+02 0.  0.
        -24    2    1    2    0    0  0.50530674225E+02  0.81991090056E+02  0.46048064711E+02  0.13514187170E+03  0.82867444378E+02 0.  0.
         11    1    4    4    0    0  0.31183901717E+02  0.20761233200E+02 -0.20466372553E+02  0.42688838538E+02  0.00000000000E+00 0. -1.
        -12    1    4    4    0    0  0.19346772509E+02  0.61229856855E+02  0.66514437263E+02  0.92453033165E+02  0.00000000000E+00 0.  1.
        -11    1    3    3    0    0 -0.49857528955E+02  0.15591803171E+02  0.12117101982E+03  0.13195186078E+03  0.00000000000E+00 0.  1.
         11    1    3    3    0    0 -0.42857451263E+02 -0.84336523338E+02  0.23992223606E+03  0.25789937893E+03  0.00000000000E+00 0. -1.
         21    1    1    2  502  501  0.42184305993E+02 -0.13246369889E+02  0.20474427718E+02  0.48725600845E+02  0.00000000000E+00 0. -1.
<scales pt_clust_5="13000.00000" pt_clust_6="13000.00000" pt_clust_7="13000.00000" pt_clust_8="13000.00000" pt_clust_9="44.21518"></scales>
<clustering>
<clus scale="   44.215">  2  9  1 -1</clus>
<clus scale="   82.867">  5  6 -1 -1</clus>
<clus scale="   90.960">  7  8 -1 -1</clus>
<clus scale="  137.262">  2  5  1 -1</clus>
<clus scale="   44.215">  2  5  1 -1</clus>
</clustering>
</event>
<event>
 9    1  0.2951046E-005  0.1481294E+03  0.7546771E-02  0.1204794E+00
         -4   -1    0    0    0  501 -0.00000000000E+00  0.00000000000E+00  0.42094022442E+02  0.42094022442E+02  0.00000000000E+00 0.  1.
          3   -1    0    0  502    0  0.00000000000E+00 -0.00000000000E+00 -0.10095957999E+04  0.10095957999E+04  0.00000000000E+00 0. -1.
        -24    2    1    2    0    0 -0.12206002584E+03  0.16150789947E+02 -0.14512571624E+03  0.20657613059E+03  0.80328863375E+02 0.  0.
         23    2    1    2    0    0  0.99609270639E+02  0.34441299753E+02 -0.57267752134E+03  0.58935412348E+03  0.90942451470E+02 0.  0.
         11    1    3    3    0    0 -0.25290700032E+02 -0.13046205975E+02 -0.83446535468E+02  0.88165454006E+02  0.00000000000E+00 0. -1.
        -12    1    3    3    0    0 -0.96769325809E+02  0.29196995922E+02 -0.61679180772E+02  0.11841067658E+03  0.00000000000E+00 0.  1.
        -11    1    4    4    0    0  0.12013430730E+02 -0.20964748059E+02 -0.40362426343E+02  0.47042200623E+02  0.00000000000E+00 0.  1.
         11    1    4    4    0    0  0.87595839909E+02  0.55406047812E+02 -0.53231509500E+03  0.54231192285E+03  0.00000000000E+00 0. -1.
         21    1    1    2  502  501  0.22450755202E+02 -0.50592089700E+02 -0.24969853986E+03  0.25575956826E+03  0.00000000000E+00 0. -1.
<scales pt_clust_5="13000.00000" pt_clust_6="13000.00000" pt_clust_7="13000.00000" pt_clust_8="13000.00000" pt_clust_9="55.34976"></scales>
<clustering>
<clus scale="   55.350">  2  9  1 -1</clus>
<clus scale="   80.329">  5  6 -1 -1</clus>
<clus scale="   90.942">  7  8 -1 -1</clus>
<clus scale="  141.861">  1  5  2 -1</clus>
<clus scale="   55.350">  2  5  1 -1</clus>
</clustering>
</event>
<event>
 9    1  0.2951046E-005  0.9679958E+02  0.7546771E-02  0.1296239E+00
         -4   -1    0    0    0  501 -0.00000000000E+00  0.00000000000E+00  0.86410605911E+02  0.86410605911E+02  0.00000000000E+00 0.  1.
          3   -1    0    0  502    0  0.00000000000E+00 -0.00000000000E+00 -0.26040227491E+03  0.26040227491E+03  0.00000000000E+00 0. -1.
         23    2    1    2    0    0  0.31922667486E+02  0.46281911609E+01  0.34349320924E+02  0.10264287674E+03  0.91187759287E+02 0.  0.
        -24    2    1    2    0    0 -0.23993717806E+02 -0.39201844865E+02 -0.11845280772E+03  0.14753620527E+03  0.74989206385E+02 0.  0.
         11    1    4    4    0    0  0.12274122435E+02 -0.35942856842E+02 -0.99463228187E+02  0.10646819619E+03  0.00000000000E+00 0. -1.
        -12    1    4    4    0    0 -0.36267840241E+02 -0.32589880236E+01 -0.18989579530E+02  0.41068009075E+02  0.00000000000E+00 0.  1.
        -13    1    3    3    0    0  0.25433858181E+02  0.41513525694E+02 -0.42377333656E+01  0.48869339484E+02  0.00000000000E+00 0.  1.
         13    1    3    3    0    0  0.64888093058E+01 -0.36885334533E+02  0.38587054290E+02  0.53773537252E+02  0.00000000000E+00 0. -1.
         21    1    1    2  502  501 -0.79289496807E+01  0.34573653704E+02 -0.89888182209E+02  0.96633798820E+02  0.00000000000E+00 0.  1.
<scales pt_clust_5="13000.00000" pt_clust_6="13000.00000" pt_clust_7="13000.00000" pt_clust_8="13000.00000" pt_clust_9="35.47120"></scales>
<clustering>
<clus scale="   35.471">  2  9  1 -1</clus>
<clus scale="   74.989">  5  6 -1 -1</clus>
<clus scale="   81.721">  2  5  1 -1</clus>
<clus scale="   91.188">  7  8 -1 -1</clus>
<clus scale="   35.471">  2  5  1 -1</clus>
</clustering>
</event>
<event>
 9    1  0.2951046E-005  0.9605118E+02  0.7546771E-02  0.1294021E+00
         -4   -1    0    0    0  501 -0.00000000000E+00  0.00000000000E+00  0.21442831960E+03  0.21442831960E+03  0.00000000000E+00 0.  1.
          3   -1    0    0  502    0  0.00000000000E+00 -0.00000000000E+00 -0.57184541045E+02  0.57184541045E+02  0.00000000000E+00 0. -1.
         23    2    1    2    0    0  0.16575878058E+02 -0.17157996662E+02  0.11858630992E+03  0.15156359527E+03  0.91321705668E+02 0.  0.
        -24    2    1    2    0    0 -0.20148815766E+02  0.37841399566E+02  0.28686294239E+02  0.96811508206E+02  0.81924467322E+02 0.  0.
         11    1    4    4    0    0 -0.45248172354E+02  0.11147028370E+02 -0.52163071020E+01  0.46892037732E+02  0.00000000000E+00 0. -1.
        -12    1    4    4    0    0  0.25099356588E+02  0.26694371196E+02  0.33902601341E+02  0.49919470473E+02  0.00000000000E+00 0.  1.
        -11    1    3    3    0    0 -0.70252622977E+01  0.26267669599E+02  0.90970076505E+02  0.94946825096E+02  0.00000000000E+00 0. -1.
         11    1    3    3    0    0  0.23601140355E+02 -0.43425666261E+02  0.27616233418E+02  0.56616770170E+02  0.00000000000E+00 0.  1.
         21    1    1    2  502  501  0.35729377087E+01 -0.20683402905E+02  0.99711743920E+01  0.23237757171E+02  0.00000000000E+00 0.  1.
<scales pt_clust_5="13000.00000" pt_clust_6="13000.00000" pt_clust_7="13000.00000" pt_clust_8="13000.00000" pt_clust_9="20.98974"></scales>
<clustering>
<clus scale="   20.990">  2  9  1 -1</clus>
<clus scale="   81.924">  5  6 -1 -1</clus>
<clus scale="   87.165">  2  5  1 -1</clus>
<clus scale="   91.322">  7  8 -1 -1</clus>
<clus scale="   20.990">  2  5  1 -1</clus>
</clustering>
</event>
<event>
 9    1  0.2951046E-005  0.1023811E+03  0.7546771E-02  0.1281355E+00
         -4   -1    0    0    0  501 -0.00000000000E+00  0.00000000000E+00  0.19523562374E+03  0.19523562374E+03  0.00000000000E+00 0.  1.
          3   -1    0    0  502    0  0.00000000000E+00 -0.00000000000E+00 -0.14346160805E+03  0.14346160805E+03  0.00000000000E+00 0. -1.
         23    2    1    2    0    0 -0.36820545155E+02 -0.22629745890E+02  0.14067893402E+03  0.17337406950E+03  0.91652318874E+02 0.  0.
        -24    2    1    2    0    0  0.63226675227E+02  0.30153543596E+01 -0.46033121253E+02  0.11128614678E+03  0.79112915443E+02 0.  0.
         13    1    4    4    0    0 -0.67329512243E+01 -0.19731786511E+02 -0.29099669989E+02  0.35797581266E+02  0.00000000000E+00 0. -1.
        -14    1    4    4    0    0  0.69959626452E+02  0.22747140870E+02 -0.16933451265E+02  0.75488565510E+02  0.00000000000E+00 0.  1.
        -13    1    3    3    0    0 -0.17019644619E+02  0.17441977489E+02 -0.14200236337E+01  0.24411213588E+02  0.00000000000E+00 0.  1.
         13    1    3    3    0    0 -0.19800900536E+02 -0.40071723379E+02  0.14209895765E+03  0.14896285592E+03  0.00000000000E+00 0. -1.
         21    1    1    2  502  501 -0.26406130073E+02  0.19614391530E+02 -0.42871797073E+02  0.54037015506E+02  0.00000000000E+00 0.  1.
<scales pt_clust_5="13000.00000" pt_clust_6="13000.00000" pt_clust_7="13000.00000" pt_clust_8="13000.00000" pt_clust_9="32.89389"></scales>
<clustering>
<clus scale="   32.894">  2  9  1 -1</clus>
<clus scale="   79.113">  5  6 -1 -1</clus>
<clus scale="   91.327">  2  5  1 -1</clus>
<clus scale="   91.652">  7  8 -1 -1</clus>
<clus scale="   32.894">  2  5  1 -1</clus>
</clustering>
</event>
<event>
 9    1  0.2951046E-005  0.1485085E+03  0.7546771E-02  0.1222257E+00
          1   -1    0    0  502    0  0.00000000000E+00  0.00000000000E+00  0.27799410331E+03  0.27799410331E+03  0.00000000000E+00 0. -1.
         -2   -1    0    0    0  501 -0.00000000000E+00 -0.00000000000E+00 -0.14413431782E+03  0.14413431782E+03  0.00000000000E+00 0.  1.
        -24    2    1    2    0    0 -0.78268981039E+02 -0.11172618793E+03 -0.33343346005E+02  0.16296458765E+03  0.82685570946E+02 0.  0.
         23    2    1    2    0    0  0.29748437369E+02  0.24675575927E+02  0.68430446913E+02  0.11884955970E+03  0.89155135593E+02 0.  0.
         11    1    3    3    0    0 -0.45910640079E+02 -0.32300769893E+02  0.22658887856E+02  0.60535541684E+02  0.00000000000E+00 0. -1.
        -12    1    3    3    0    0 -0.32358340960E+02 -0.79425418034E+02 -0.56002233861E+02  0.10242904596E+03  0.00000000000E+00 0.  1.
        -11    1    4    4    0    0  0.46572428955E+02 -0.18965901880E+02  0.32571812085E+02  0.59913433513E+02  0.00000000000E+00 0.  1.
         11    1    4    4    0    0 -0.16823991586E+02  0.43641477806E+02  0.35858634828E+02  0.58936126185E+02  0.00000000000E+00 0. -1.
         21    1    1    2  502  501  0.48520543670E+02  0.87050612001E+02  0.98772684585E+02  0.14031427379E+03  0.00000000000E+00 0. -1.
<scales pt_clust_5="13000.00000" pt_clust_6="13000.00000" pt_clust_7="13000.00000" pt_clust_8="13000.00000" pt_clust_9="123.36079"></scales>
<clustering>
<clus scale="   82.686">  5  6 -1 -1</clus>
<clus scale="   89.155">  7  8 -1 -1</clus>
<clus scale="   97.172">  1  7  2 -1</clus>
<clus scale="  123.361">  1  9  2 -1</clus>
<clus scale="   97.172">  1  5  2 -1</clus>
</clustering>
</event>
<event>
 9    1  0.2951046E-005  0.1110894E+03  0.7546771E-02  0.1262393E+00
          1   -1    0    0  502    0  0.00000000000E+00  0.00000000000E+00  0.23698969461E+03  0.23698969461E+03  0.00000000000E+00 0. -1.
         -2   -1    0    0    0  501 -0.00000000000E+00 -0.00000000000E+00 -0.11885820770E+03  0.11885820770E+03  0.00000000000E+00 0.  1.
        -24    2    1    2    0    0  0.36797557825E+02 -0.47109161242E+02 -0.57698920780E+02  0.11551907802E+03  0.80263058700E+02 0.  0.
         23    2    1    2    0    0 -0.46001224112E+02  0.74586464369E+02  0.10541212777E+03  0.16418131082E+03  0.90357804617E+02 0.  0.
         11    1    3    3    0    0 -0.94277645174E+01 -0.19918127555E+02  0.13905929276E+02  0.26057425393E+02  0.00000000000E+00 0. -1.
        -12    1    3    3    0    0  0.46225322342E+02 -0.27191033688E+02 -0.71604850056E+02  0.89461652624E+02  0.00000000000E+00 0.  1.
        -11    1    4    4    0    0 -0.67416612947E+02  0.51022274795E+02  0.44725771880E+02  0.95648663853E+02  0.00000000000E+00 0.  1.
         11    1    4    4    0    0  0.21415388836E+02  0.23564189574E+02  0.60686355894E+02  0.68532646971E+02  0.00000000000E+00 0. -1.
         21    1    1    2  502  501  0.92036662870E+01 -0.27477303126E+02  0.70418279923E+02  0.76147513469E+02  0.00000000000E+00 0.  1.
<scales pt_clust_5="13000.00000" pt_clust_6="13000.00000" pt_clust_7="13000.00000" pt_clust_8="13000.00000" pt_clust_9="28.97774"></scales>
<clustering>
<clus scale="   28.978">  1  9  2 -1</clus>
<clus scale="   80.263">  5  6 -1 -1</clus>
<clus scale="   90.358">  7  8 -1 -1</clus>
<clus scale="  103.046">  2  5  1 -1</clus>
<clus scale="   28.978">  1  5  2 -1</clus>
</clustering>
</event>
<event>
 9    1  0.2951046E-005  0.8520563E+02  0.7546771E-02  0.1315394E+00
         -4   -1    0    0    0  501 -0.00000000000E+00  0.00000000000E+00  0.10009754840E+03  0.10009754840E+03  0.00000000000E+00 0.  1.
          3   -1    0    0  502    0  0.00000000000E+00 -0.00000000000E+00 -0.11115614535E+03  0.11115614535E+03  0.00000000000E+00 0. -1.
         23    2    1    2    0    0  0.15761039659E+02 -0.76734746405E+01  0.25410084978E+02  0.88498189276E+02  0.82939523162E+02 0.  0.
        -24    2    1    2    0    0  0.70841187601E+01  0.25506964048E+02 -0.31903662167E+02  0.93416554028E+02  0.83713911349E+02 0.  0.
         13    1    4    4    0    0  0.18532649547E+02  0.24029619808E+02 -0.57678800415E+02  0.65174578975E+02  0.00000000000E+00 0. -1.
        -14    1    4    4    0    0 -0.11448530787E+02  0.14773442404E+01  0.25775138248E+02  0.28241975053E+02  0.00000000000E+00 0.  1.
        -11    1    3    3    0    0  0.49449970545E+02  0.26263207992E+01  0.13811233927E+02  0.51409603484E+02  0.00000000000E+00 0. -1.
         11    1    3    3    0    0 -0.33688930886E+02 -0.10299795440E+02  0.11598851051E+02  0.37088585792E+02  0.00000000000E+00 0.  1.
         21    1    1    2  502  501 -0.22845158420E+02 -0.17833489408E+02 -0.45650197593E+01  0.29338950443E+02  0.00000000000E+00 0.  1.
<scales pt_clust_5="13000.00000" pt_clust_6="13000.00000" pt_clust_7="13000.00000" pt_clust_8="13000.00000" pt_clust_9="28.98163"></scales>
<clustering>
<clus scale="   28.982">  2  9  1 -1</clus>
<clus scale="   82.940">  7  8 -1 -1</clus>
<clus scale="   83.714">  5  6 -1 -1</clus>
<clus scale="   84.445">  1  7  2 -1</clus>
<clus scale="   28.982">  2  5  1 -1</clus>
</clustering>
</event>
<event>
 9    1  0.2951046E-005  0.8941056E+02  0.7546771E-02  0.1307072E+00
         -2   -1    0    0    0  501 -0.00000000000E+00  0.00000000000E+00  0.20597701604E+03  0.20597701604E+03  0.00000000000E+00 0.  1.
          1   -1    0    0  502    0  0.00000000000E+00 -0.00000000000E+00 -0.84720623479E+02  0.84720623479E+02  0.00000000000E+00 0. -1.
        -24    2    1    2    0    0 -0.20740757969E+02  0.27481478514E+01  0.13583087822E+03  0.15960084162E+03  0.81145978394E+02 0.  0.
         23    2    1    2    0    0  0.42318090223E+02  0.14489280403E+02  0.55836589389E+01  0.96905263952E+02  0.85782824200E+02 0.  0.
         13    1    3    3    0    0  0.11248349847E+02 -0.21938805533E+02  0.10740067839E+03  0.11019411183E+03  0.00000000000E+00 0. -1.
        -14    1    3    3    0    0 -0.31989107815E+02  0.24686953385E+02  0.28430199825E+02  0.49406729788E+02  0.00000000000E+00 0.  1.
        -11    1    4    4    0    0  0.21323781260E+02  0.26740465858E+02 -0.35420411725E+02  0.49237807916E+02  0.00000000000E+00 0.  1.
         11    1    4    4    0    0  0.20994308963E+02 -0.12251185455E+02  0.41004070664E+02  0.47667456036E+02  0.00000000000E+00 0. -1.
         21    1    1    2  502  501 -0.21577332255E+02 -0.17237428254E+02 -0.20158144599E+02  0.34191533948E+02  0.00000000000E+00 0. -1.
<scales pt_clust_5="13000.00000" pt_clust_6="13000.00000" pt_clust_7="13000.00000" pt_clust_8="13000.00000" pt_clust_9="27.61721"></scales>
<clustering>
<clus scale="   27.617">  2  9  1 -1</clus>
<clus scale="   81.146">  5  6 -1 -1</clus>
<clus scale="   84.972">  1  5  2 -1</clus>
<clus scale="   85.783">  7  8 -1 -1</clus>
<clus scale="   27.617">  2  5  1 -1</clus>
</clustering>
</event>
<event>
 9    1  0.2951046E-005  0.1750114E+03  0.7546771E-02  0.1174295E+00
         -2   -1    0    0    0  501 -0.00000000000E+00  0.00000000000E+00  0.12242221799E+03  0.12242221799E+03  0.00000000000E+00 0.  1.
          1   -1    0    0  502    0  0.00000000000E+00 -0.00000000000E+00 -0.40151478887E+03  0.40151478887E+03  0.00000000000E+00 0. -1.
        -24    2    1    2    0    0  0.13979862327E+03 -0.38598285406E+02  0.78417048329E+01  0.16486303177E+03  0.78005411375E+02 0.  0.
         23    2    1    2    0    0 -0.16412304632E+03  0.30685346618E+02 -0.24588887932E+03  0.31071059306E+03  0.90563606576E+02 0.  0.
         11    1    3    3    0    0  0.32658716681E+02 -0.42045843318E+02  0.20231564167E+02  0.56954024478E+02  0.00000000000E+00 0. -1.
        -12    1    3    3    0    0  0.10713990659E+03  0.34475579123E+01 -0.12389859334E+02  0.10790900729E+03  0.00000000000E+00 0.  1.
        -11    1    4    4    0    0 -0.10170451921E+03  0.45240329493E+02 -0.93425488205E+02  0.14532315193E+03  0.00000000000E+00 0.  1.
         11    1    4    4    0    0 -0.62418527107E+02 -0.14554982875E+02 -0.15246339111E+03  0.16538744113E+03  0.00000000000E+00 0. -1.
         21    1    1    2  502  501  0.24324423052E+02  0.79129387884E+01 -0.41045396385E+02  0.48363382031E+02  0.00000000000E+00 0. -1.
<scales pt_clust_5="13000.00000" pt_clust_6="13000.00000" pt_clust_7="13000.00000" pt_clust_8="13000.00000" pt_clust_9="25.57914"></scales>
<clustering>
<clus scale="   25.579">  2  9  1 -1</clus>
<clus scale="   78.005">  5  6 -1 -1</clus>
<clus scale="   90.564">  7  8 -1 -1</clus>
<clus scale="  168.855">  1  5  2 -1</clus>
<clus scale="   25.579">  2  5  1 -1</clus>
</clustering>
</event>
<event>
 9    1  0.2951046E-005  0.1000382E+03  0.7546771E-02  0.1286075E+00
          1   -1    0    0  502    0  0.00000000000E+00  0.00000000000E+00  0.67636336503E+03  0.67636336503E+03  0.00000000000E+00 0. -1.
         -2   -1    0    0    0  501 -0.00000000000E+00 -0.00000000000E+00 -0.82762658689E+02  0.82762658689E+02  0.00000000000E+00 0.  1.
         23    2    1    2    0    0  0.30477695625E+02  0.22829917212E+02 -0.39016024747E+02  0.10662140691E+03  0.91628484508E+02 0.  0.
        -24    2    1    2    0    0 -0.31801317736E+02 -0.70729830917E+02  0.46556598811E+03  0.47871709011E+03  0.80027059713E+02 0.  0.
         11    1    4    4    0    0  0.65759601314E+01 -0.68247700158E+02  0.22894336968E+03  0.23898966159E+03  0.00000000000E+00 0. -1.
        -12    1    4    4    0    0 -0.38377277868E+02 -0.24821307595E+01  0.23662261843E+03  0.23972742852E+03  0.00000000000E+00 0.  1.
        -11    1    3    3    0    0  0.15818895202E+02  0.50701518731E+02 -0.50318625896E+02  0.73163143447E+02  0.00000000000E+00 0.  1.
         11    1    3    3    0    0  0.14658800422E+02 -0.27871601519E+02  0.11302601149E+02  0.33458263460E+02  0.00000000000E+00 0. -1.
         21    1    1    2  502  501  0.13236221114E+01  0.47899913705E+02  0.16705074298E+03  0.17378752670E+03  0.00000000000E+00 0. -1.
<scales pt_clust_5="13000.00000" pt_clust_6="13000.00000" pt_clust_7="13000.00000" pt_clust_8="13000.00000" pt_clust_9="47.91820"></scales>
<clustering>
<clus scale="   47.918">  1  9  2 -1</clus>
<clus scale="   80.027">  5  6 -1 -1</clus>
<clus scale="   89.533">  1  5  2 -1</clus>
<clus scale="   91.628">  7  8 -1 -1</clus>
<clus scale="   47.918">  1  5  2 -1</clus>
</clustering>
</event>
<event>
 9    1  0.2951046E-005  0.1479699E+03  0.7546771E-02  0.1204591E+00
          1   -1    0    0  502    0  0.00000000000E+00  0.00000000000E+00  0.36815143889E+03  0.36815143889E+03  0.00000000000E+00 0. -1.
         -2   -1    0    0    0  501 -0.00000000000E+00 -0.00000000000E+00 -0.10502808340E+03  0.10502808340E+03  0.00000000000E+00 0.  1.
        -24    2    1    2    0    0 -0.11409219621E+03 -0.19520782454E+02  0.65510691907E+01  0.14159221006E+03  0.81285590717E+02 0.  0.
         23    2    1    2    0    0  0.11439291760E+03  0.46700736268E+02  0.12542712587E+03  0.19765489111E+03  0.89826464405E+02 0.  0.
         11    1    3    3    0    0 -0.13771263507E+02 -0.32552505610E+02  0.18206567130E+02  0.39759180156E+02  0.00000000000E+00 0. -1.
        -12    1    3    3    0    0 -0.10032093271E+03  0.13031723156E+02 -0.11655497939E+02  0.10183302991E+03  0.00000000000E+00 0.  1.
        -11    1    4    4    0    0  0.24409911806E+02 -0.66093314586E+01  0.79501580387E+02  0.83426784312E+02  0.00000000000E+00 0. -1.
         11    1    4    4    0    0  0.89983005798E+02  0.53310067726E+02  0.45925545485E+02  0.11422810679E+03  0.00000000000E+00 0.  1.
         21    1    1    2  502  501 -0.30072139111E+00 -0.27179953814E+02  0.13114516043E+03  0.13393242112E+03  0.00000000000E+00 0. -1.
<scales pt_clust_5="13000.00000" pt_clust_6="13000.00000" pt_clust_7="13000.00000" pt_clust_8="13000.00000" pt_clust_9="27.18162"></scales>
<clustering>
<clus scale="   27.182">  1  9  2 -1</clus>
<clus scale="   81.286">  5  6 -1 -1</clus>
<clus scale="   89.826">  7  8 -1 -1</clus>
<clus scale="  142.946">  2  5  1 -1</clus>
<clus scale="   27.182">  1  5  2 -1</clus>
</clustering>
</event>
<event>
 9    1  0.2951046E-005  0.2011157E+03  0.7546771E-02  0.1148937E+00
         -4   -1    0    0    0  501 -0.00000000000E+00  0.00000000000E+00  0.27588302835E+03  0.27588302835E+03  0.00000000000E+00 0.  1.
          3   -1    0    0  502    0  0.00000000000E+00 -0.00000000000E+00 -0.52378890336E+03  0.52378890336E+03  0.00000000000E+00 0. -1.
        -24    2    1    2    0    0  0.24099959424E+02 -0.17756584787E+03  0.18935826669E+03  0.27557118568E+03  0.89288783384E+02 0.  0.
         23    2    1    2    0    0  0.49061566918E+02  0.18857785995E+03 -0.32601107371E+03  0.39049266811E+03  0.90733990608E+02 0.  0.
         13    1    3    3    0    0 -0.34076435975E+02 -0.63139854529E+02  0.71941133781E+02  0.10160399327E+03  0.00000000000E+00 0. -1.
        -14    1    3    3    0    0  0.58176395400E+02 -0.11442599335E+03  0.11741713291E+03  0.17396719241E+03  0.00000000000E+00 0.  1.
        -11    1    4    4    0    0 -0.25796587088E+01  0.11816040024E+03 -0.24199693476E+03  0.26931589492E+03  0.00000000000E+00 0.  1.
         11    1    4    4    0    0  0.51641225627E+02  0.70417459713E+02 -0.84014138955E+02  0.12117677319E+03  0.00000000000E+00 0. -1.
         21    1    1    2  502  501 -0.73161526342E+02 -0.11012012078E+02 -0.11125306799E+03  0.13360807792E+03  0.00000000000E+00 0. -1.
<scales pt_clust_5="13000.00000" pt_clust_6="13000.00000" pt_clust_7="13000.00000" pt_clust_8="13000.00000" pt_clust_9="73.98563"></scales>
<clustering>
<clus scale="   73.986">  2  9  1 -1</clus>
<clus scale="   89.289">  5  6 -1 -1</clus>
<clus scale="   90.734">  7  8 -1 -1</clus>
<clus scale="  200.468">  1  5  2 -1</clus>
<clus scale="   73.986">  2  5  1 -1</clus>
</clustering>
</event>
<event>
 9    1  0.2951046E-005  0.1269275E+03  0.7546771E-02  0.1235768E+00
          1   -1    0    0  502    0  0.00000000000E+00  0.00000000000E+00  0.11062351002E+03  0.11062351002E+03  0.00000000000E+00 0. -1.
         -2   -1    0    0    0  501 -0.00000000000E+00 -0.00000000000E+00 -0.25539318792E+03  0.25539318792E+03  0.00000000000E+00 0.  1.
        -24    2    1    2    0    0  0.21285216360E+02 -0.92864551654E+02 -0.11925375136E+03  0.17147736206E+03  0.78141813995E+02 0.  0.
         23    2    1    2    0    0  0.30450945226E+02  0.80150987296E+02 -0.51175440389E+02  0.13540663948E+03  0.91458140618E+02 0.  0.
         13    1    3    3    0    0  0.28499331581E+02 -0.27023347633E+02 -0.52425865054E+01  0.39622694648E+02  0.00000000000E+00 0. -1.
        -14    1    3    3    0    0 -0.72141152212E+01 -0.65841204020E+02 -0.11401116486E+03  0.13185466741E+03  0.00000000000E+00 0.  1.
        -13    1    4    4    0    0 -0.29158708039E+02  0.53729467548E+01 -0.10020599516E+02  0.31297144055E+02  0.00000000000E+00 0.  1.
         13    1    4    4    0    0  0.59609653264E+02  0.74778040541E+02 -0.41154840873E+02  0.10410949542E+03  0.00000000000E+00 0. -1.
         21    1    1    2  502  501 -0.51736161586E+02  0.12713564358E+02  0.25659513846E+02  0.59132696413E+02  0.00000000000E+00 0. -1.
<scales pt_clust_5="13000.00000" pt_clust_6="13000.00000" pt_clust_7="13000.00000" pt_clust_8="13000.00000" pt_clust_9="53.27537"></scales>
<clustering>
<clus scale="   53.275">  1  9  2 -1</clus>
<clus scale="   78.142">  5  6 -1 -1</clus>
<clus scale="   91.458">  7  8 -1 -1</clus>
<clus scale="  117.695">  2  5  1 -1</clus>
<clus scale="   53.275">  1  5  2 -1</clus>
</clustering>
</event>
<event>
 9    1  0.2951046E-005  0.1444779E+03  0.7546771E-02  0.1209585E+00
         -2   -1    0    0    0  501 -0.00000000000E+00  0.00000000000E+00  0.42384716565E+03  0.42384716565E+03  0.00000000000E+00 0.  1.
          1   -1    0    0  502    0  0.00000000000E+00 -0.00000000000E+00 -0.34887568642E+03  0.34887568642E+03  0.00000000000E+00 0. -1.
         23    2    1    2    0    0 -0.84057766843E+02 -0.73333218711E+02  0.37815052810E+03  0.40457748646E+03  0.90783542092E+02 0.  0.
        -24    2    1    2    0    0  0.11900778796E+03  0.64357266653E+02 -0.28976464960E+03  0.32964838133E+03  0.79998698658E+02 0.  0.
         11    1    4    4    0    0  0.51022288870E+02  0.78244151666E+01 -0.41895840632E+02  0.66481252218E+02  0.00000000000E+00 0. -1.
        -12    1    4    4    0    0  0.67985499090E+02  0.56532851487E+02 -0.24786880897E+03  0.26316712911E+03  0.00000000000E+00 0.  1.
        -13    1    3    3    0    0 -0.57126248556E+02  0.37541864066E+01  0.10640314728E+03  0.12082686763E+03  0.00000000000E+00 0. -1.
         13    1    3    3    0    0 -0.26931518287E+02 -0.77087405117E+02  0.27174738082E+03  0.28375061883E+03  0.00000000000E+00 0.  1.
         21    1    1    2  502  501 -0.34950021117E+02  0.89759520574E+01 -0.13414399262E+02  0.38496984284E+02  0.00000000000E+00 0. -1.
<scales pt_clust_5="13000.00000" pt_clust_6="13000.00000" pt_clust_7="13000.00000" pt_clust_8="13000.00000" pt_clust_9="36.08423"></scales>
<clustering>
<clus scale="   36.084">  2  9  1 -1</clus>
<clus scale="   79.999">  5  6 -1 -1</clus>
<clus scale="   90.784">  7  8 -1 -1</clus>
<clus scale="  137.957">  2  5  1 -1</clus>
<clus scale="   36.084">  2  5  1 -1</clus>
</clustering>
</event>
<event>
 9    1  0.2951046E-005  0.1188036E+03  0.7546771E-02  0.1247940E+00
         -2   -1    0    0    0  501 -0.00000000000E+00  0.00000000000E+00  0.45206082089E+02  0.45206082089E+02  0.00000000000E+00 0.  1.
          1   -1    0    0  502    0  0.00000000000E+00 -0.00000000000E+00 -0.39931735251E+03  0.39931735251E+03  0.00000000000E+00 0. -1.
         23    2    1    2    0    0  0.19136396881E+02 -0.72409789342E+02 -0.10172809991E+03  0.15534633875E+03  0.90412938082E+02 0.  0.
        -24    2    1    2    0    0 -0.43754190974E+02  0.70679596361E+02 -0.21136882942E+03  0.24131055713E+03  0.81510541432E+02 0.  0.
         11    1    4    4    0    0 -0.67245859685E+02  0.42139065366E+02 -0.14875527225E+03  0.16859963670E+03  0.00000000000E+00 0. -1.
        -12    1    4    4    0    0  0.23491668711E+02  0.28540530995E+02 -0.62613557173E+02  0.72710920433E+02  0.00000000000E+00 0.  1.
        -11    1    3    3    0    0 -0.18072201850E+02 -0.61054780243E+02 -0.97175549496E+02  0.11617821693E+03  0.00000000000E+00 0. -1.
         11    1    3    3    0    0  0.37208598732E+02 -0.11355009099E+02 -0.45525504178E+01  0.39168121815E+02  0.00000000000E+00 0.  1.
         21    1    1    2  502  501  0.24617794093E+02  0.17301929814E+01 -0.41014341089E+02  0.47866538717E+02  0.00000000000E+00 0.  1.
<scales pt_clust_5="13000.00000" pt_clust_6="13000.00000" pt_clust_7="13000.00000" pt_clust_8="13000.00000" pt_clust_9="24.67852"></scales>
<clustering>
<clus scale="   24.679">  2  9  1 -1</clus>
<clus scale="   81.511">  5  6 -1 -1</clus>
<clus scale="   90.413">  7  8 -1 -1</clus>
<clus scale="  112.177">  2  5  1 -1</clus>
<clus scale="   24.679">  2  5  1 -1</clus>
</clustering>
</event>
<event>
 9    1  0.2951046E-005  0.1074180E+03  0.7546771E-02  0.1266264E+00
          1   -1    0    0  502    0  0.00000000000E+00  0.00000000000E+00  0.58205221168E+03  0.58205221168E+03  0.00000000000E+00 0. -1.
         -2   -1    0    0    0  501 -0.00000000000E+00 -0.00000000000E+00 -0.55430286349E+02  0.55430286349E+02  0.00000000000E+00 0.  1.
        -24    2    1    2    0    0 -0.36742645554E+02 -0.47450148779E+02  0.31011288009E+02  0.11414158332E+03  0.92005773932E+02 0.  0.
         23    2    1    2    0    0 -0.11310825894E+02  0.54871425505E+02  0.22907904658E+03  0.25241048023E+03  0.89972400364E+02 0.  0.
         13    1    3    3    0    0 -0.46149461494E+02 -0.69452715352E+02  0.13461964074E+02  0.84467016892E+02  0.00000000000E+00 0. -1.
        -14    1    3    3    0    0  0.94068159404E+01  0.22002566573E+02  0.17549323935E+02  0.29674566425E+02  0.00000000000E+00 0.  1.
        -13    1    4    4    0    0 -0.35403179842E+02  0.64558236727E+02  0.20150010443E+03  0.21453075108E+03  0.00000000000E+00 0.  1.
         13    1    4    4    0    0  0.24092353948E+02 -0.96868112221E+01  0.27578942151E+02  0.37879729152E+02  0.00000000000E+00 0. -1.
         21    1    1    2  502  501  0.48053471447E+02 -0.74212767260E+01  0.26653159074E+03  0.27093043448E+03  0.00000000000E+00 0. -1.
<scales pt_clust_5="13000.00000" pt_clust_6="13000.00000" pt_clust_7="13000.00000" pt_clust_8="13000.00000" pt_clust_9="48.62316"></scales>
<clustering>
<clus scale="   48.623">  1  9  2 -1</clus>
<clus scale="   89.972">  7  8 -1 -1</clus>
<clus scale="   92.006">  5  6 -1 -1</clus>
<clus scale="  105.682">  1  7  2 -1</clus>
<clus scale="   48.623">  1  5  2 -1</clus>
</clustering>
</event>
<event>
 9    1  0.2951046E-005  0.1108867E+03  0.7546771E-02  0.1264249E+00
          1   -1    0    0  502    0  0.00000000000E+00  0.00000000000E+00  0.25020454176E+03  0.25020454176E+03  0.00000000000E+00 0. -1.
         -2   -1    0    0    0  501 -0.00000000000E+00 -0.00000000000E+00 -0.12733520588E+03  0.12733520588E+03  0.00000000000E+00 0.  1.
         23    2    1    2    0    0  0.34401810167E+02  0.57203682679E+02 -0.85189116186E+02  0.14126145892E+03  0.90784736623E+02 0.  0.
        -24    2    1    2    0    0 -0.26742914495E+02 -0.35424056800E+02  0.16643164561E+03  0.18867784963E+03  0.77005136210E+02 0.  0.
         13    1    4    4    0    0 -0.29125885458E+01 -0.33748900532E+02  0.18045734086E+02  0.38381245132E+02  0.00000000000E+00 0. -1.
        -14    1    4    4    0    0 -0.23830325949E+02 -0.16751562673E+01  0.14838591152E+03  0.15029660449E+03  0.00000000000E+00 0.  1.
        -11    1    3    3    0    0  0.21245231023E+02  0.81111700073E+02 -0.53593140992E+02  0.99512273069E+02  0.00000000000E+00 0.  1.
         11    1    3    3    0    0  0.13156579144E+02 -0.23908017394E+02 -0.31595975194E+02  0.41749185848E+02  0.00000000000E+00 0. -1.
         21    1    1    2  502  501 -0.76588956722E+01 -0.21779625879E+02  0.41626806458E+02  0.47600439097E+02  0.00000000000E+00 0. -1.
<scales pt_clust_5="13000.00000" pt_clust_6="13000.00000" pt_clust_7="13000.00000" pt_clust_8="13000.00000" pt_clust_9="23.08703"></scales>
<clustering>
<clus scale="   23.087">  1  9  2 -1</clus>
<clus scale="   77.005">  5  6 -1 -1</clus>
<clus scale="   90.785">  7  8 -1 -1</clus>
<clus scale="   99.919">  1  5  2 -1</clus>
<clus scale="   23.087">  1  5  2 -1</clus>
</clustering>
</event>
<event>
 9    1  0.2951046E-005  0.1056166E+03  0.7546771E-02  0.1274915E+00
         -2   -1    0    0    0  501 -0.00000000000E+00  0.00000000000E+00  0.33994564675E+03  0.33994564675E+03  0.00000000000E+00 0.  1.
          1   -1    0    0  502    0  0.00000000000E+00 -0.00000000000E+00 -0.67836115202E+02  0.67836115202E+02  0.00000000000E+00 0. -1.
         23    2    1    2    0    0  0.27757531963E+02  0.45769847853E+02  0.27047064497E+03  0.29087479220E+03  0.92673703907E+02 0.  0.
        -24    2    1    2    0    0 -0.33568998807E+02 -0.26012170661E+02  0.16613088033E+02  0.91443944318E+02  0.79262157144E+02 0.  0.
         11    1    4    4    0    0  0.24597232543E+02 -0.18674193629E+02  0.15964675873E+01  0.30924069352E+02  0.00000000000E+00 0. -1.
        -12    1    4    4    0    0 -0.58166231350E+02 -0.73379770311E+01  0.15016620446E+02  0.60519874967E+02  0.00000000000E+00 0.  1.
        -13    1    3    3    0    0  0.45150941232E+02  0.10580459220E+02  0.22948625405E+03  0.23412495470E+03  0.00000000000E+00 0.  1.
         13    1    3    3    0    0 -0.17393409269E+02  0.35189388633E+02  0.40984390913E+02  0.56749837505E+02  0.00000000000E+00 0. -1.
         21    1    1    2  502  501  0.58114668441E+01 -0.19757677192E+02 -0.14974201454E+02  0.25463025431E+02  0.00000000000E+00 0.  1.
<scales pt_clust_5="13000.00000" pt_clust_6="13000.00000" pt_clust_7="13000.00000" pt_clust_8="13000.00000" pt_clust_9="20.59463"></scales>
<clustering>
<clus scale="   20.595">  2  9  1 -1</clus>
<clus scale="   79.262">  5  6 -1 -1</clus>
<clus scale="   92.674">  7  8 -1 -1</clus>
<clus scale="   94.069">  2  5  1 -1</clus>
<clus scale="   20.595">  2  5  1 -1</clus>
</clustering>
</event>
<event>
 9    1  0.2951046E-005  0.9637328E+02  0.7546771E-02  0.1293770E+00
          1   -1    0    0  502    0  0.00000000000E+00  0.00000000000E+00  0.46162385058E+03  0.46162385058E+03  0.00000000000E+00 0. -1.
         -2   -1    0    0    0  501 -0.00000000000E+00 -0.00000000000E+00 -0.51551481638E+02  0.51551481638E+02  0.00000000000E+00 0.  1.
         23    2    1    2    0    0 -0.36137416330E+02 -0.10430438485E+02  0.12857448039E+02  0.99361831012E+02  0.91064551753E+02 0.  0.
        -24    2    1    2    0    0  0.27834407114E+01  0.14614527704E+01  0.25699316283E+03  0.26940064918E+03  0.80754818115E+02 0.  0.
         11    1    4    4    0    0 -0.31021261025E+02 -0.11751395485E+02  0.55447661323E+02  0.64613133941E+02  0.00000000000E+00 0. -1.
        -12    1    4    4    0    0  0.33804701737E+02  0.13212848256E+02  0.20154550151E+03  0.20478751524E+03  0.00000000000E+00 0.  1.
        -13    1    3    3    0    0  0.23380470432E+02  0.19882261054E+02 -0.26093132028E+01  0.30801935291E+02  0.00000000000E+00 0.  1.
         13    1    3    3    0    0 -0.59517886762E+02 -0.30312699539E+02  0.15466761241E+02  0.68559895721E+02  0.00000000000E+00 0. -1.
         21    1    1    2  502  501  0.33353975619E+02  0.89689857145E+01  0.14022175807E+03  0.14441285203E+03  0.00000000000E+00 0. -1.
<scales pt_clust_5="13000.00000" pt_clust_6="13000.00000" pt_clust_7="13000.00000" pt_clust_8="13000.00000" pt_clust_9="34.53882"></scales>
<clustering>
<clus scale="   34.539">  1  9  2 -1</clus>
<clus scale="   80.755">  5  6 -1 -1</clus>
<clus scale="   86.697">  1  5  2 -1</clus>
<clus scale="   91.065">  7  8 -1 -1</clus>
<clus scale="   34.539">  1  5  2 -1</clus>
</clustering>
</event>
<event>
 9    1  0.2951046E-005  0.1391139E+03  0.7546771E-02  0.1216776E+00
          3   -1    0    0  502    0  0.00000000000E+00  0.00000000000E+00  0.66787809933E+02  0.66787809933E+02  0.00000000000E+00 0. -1.
         -4   -1    0    0    0  501 -0.00000000000E+00 -0.00000000000E+00 -0.67730746549E+03  0.67730746549E+03  0.00000000000E+00 0.  1.
        -24    2    1    2    0    0  0.10782855069E+03  0.64946035752E+01 -0.55413466412E+03  0.57013579603E+03  0.79501092527E+02 0.  0.
         23    2    1    2    0    0 -0.92178885775E+02 -0.31123846386E+02 -0.32825438677E+02  0.13645529110E+03  0.89871554162E+02 0.  0.
         13    1    3    3    0    0  0.40221310671E+02  0.24654615986E+02 -0.99197416306E+02  0.10984412284E+03  0.00000000000E+00 0. -1.
        -14    1    3    3    0    0  0.67607240020E+02 -0.18160012411E+02 -0.45493724782E+03  0.46029167319E+03  0.00000000000E+00 0.  1.
        -13    1    4    4    0    0 -0.57892415311E+00 -0.37806590080E+02  0.28684824685E+01  0.37919672973E+02  0.00000000000E+00 0.  1.
         13    1    4    4    0    0 -0.91599961622E+02  0.66827436938E+01 -0.35693921146E+02  0.98535618125E+02  0.00000000000E+00 0. -1.
         21    1    1    2  502  501 -0.15649664916E+02  0.24629242811E+02 -0.23559552752E+02  0.37504188290E+02  0.00000000000E+00 0.  1.
<scales pt_clust_5="13000.00000" pt_clust_6="13000.00000" pt_clust_7="13000.00000" pt_clust_8="13000.00000" pt_clust_9="29.18067"></scales>
<clustering>
<clus scale="   29.181">  1  9  2 -1</clus>
<clus scale="   79.501">  5  6 -1 -1</clus>
<clus scale="   89.872">  7  8 -1 -1</clus>
<clus scale="  132.651">  2  5  1 -1</clus>
<clus scale="   29.181">  1  5  2 -1</clus>
</clustering>
</event>
<event>
 9    1  0.2951046E-005  0.1007420E+03  0.7546771E-02  0.1285215E+00
          1   -1    0    0  502    0  0.00000000000E+00  0.00000000000E+00  0.15187715519E+03  0.15187715519E+03  0.00000000000E+00 0. -1.
         -2   -1    0    0    0  501 -0.00000000000E+00 -0.00000000000E+00 -0.12402411854E+03  0.12402411854E+03  0.00000000000E+00 0.  1.
        -24    2    1    2    0    0 -0.58876052953E+01  0.35134522921E+02 -0.71296717092E+02  0.11365527575E+03  0.81025929436E+02 0.  0.
         23    2    1    2    0    0 -0.15708558844E+02 -0.35210579787E+02  0.97481848466E+02  0.14058538862E+03  0.93674953760E+02 0.  0.
         13    1    3    3    0    0  0.22378036024E+02  0.22256376869E+02  0.43689117959E+01  0.31862363345E+02  0.00000000000E+00 0. -1.
        -14    1    3    3    0    0 -0.28265641319E+02  0.12878146052E+02 -0.75665628888E+02  0.81792912406E+02  0.00000000000E+00 0.  1.
        -13    1    4    4    0    0 -0.22018944320E+02  0.18240137948E+02 -0.71976387869E+00  0.28601653822E+02  0.00000000000E+00 0.  1.
         13    1    4    4    0    0  0.63103854760E+01 -0.53450717735E+02  0.98201612345E+02  0.11198373479E+03  0.00000000000E+00 0. -1.
         21    1    1    2  502  501  0.21596164139E+02  0.76056866006E-01  0.16679052716E+01  0.21660609367E+02  0.00000000000E+00 0. -1.
<scales pt_clust_5="13000.00000" pt_clust_6="13000.00000" pt_clust_7="13000.00000" pt_clust_8="13000.00000" pt_clust_9="21.59630"></scales>
<clustering>
<clus scale="   21.596">  2  9  1 -1</clus>
<clus scale="   81.026">  5  6 -1 -1</clus>
<clus scale="   89.102">  2  5  1 -1</clus>
<clus scale="   93.675">  7  8 -1 -1</clus>
<clus scale="  100.742">  1  5  2 -1</clus>
</clustering>
</event>
<event>
 9    1  0.2951046E-005  0.9766914E+02  0.7546771E-02  0.1298485E+00
         -4   -1    0    0    0  501 -0.00000000000E+00  0.00000000000E+00  0.14345960395E+03  0.14345960395E+03  0.00000000000E+00 0.  1.
          3   -1    0    0  502    0  0.00000000000E+00 -0.00000000000E+00 -0.12250913408E+03  0.12250913408E+03  0.00000000000E+00 0. -1.
        -24    2    1    2    0    0 -0.16949017090E+00 -0.13859918360E+02  0.85220105073E+02  0.11487000498E+03  0.75766256820E+02 0.  0.
         23    2    1    2    0    0  0.14499351424E+02 -0.19232580086E+02 -0.52898350069E+02  0.11328650616E+03  0.97239260127E+02 0.  0.
         11    1    3    3    0    0 -0.36500444609E+02 -0.17553852876E+02  0.45348512603E+02  0.60802202285E+02  0.00000000000E+00 0. -1.
        -12    1    3    3    0    0  0.36330954438E+02  0.36939345160E+01  0.39871592469E+02  0.54067802698E+02  0.00000000000E+00 0.  1.
        -11    1    4    4    0    0 -0.12898773973E+02  0.29944760728E+02 -0.46269197251E+02  0.56603053622E+02  0.00000000000E+00 0.  1.
         11    1    4    4    0    0  0.27398125397E+02 -0.49177340814E+02 -0.66291528179E+01  0.56683452541E+02  0.00000000000E+00 0. -1.
         21    1    1    2  502  501 -0.14329861253E+02  0.33092498446E+02 -0.11371285134E+02  0.37812226892E+02  0.00000000000E+00 0.  1.
<scales pt_clust_5="13000.00000" pt_clust_6="13000.00000" pt_clust_7="13000.00000" pt_clust_8="13000.00000" pt_clust_9="36.06187"></scales>
<clustering>
<clus scale="   36.062">  2  9  1 -1</clus>
<clus scale="   75.766">  5  6 -1 -1</clus>
<clus scale="   76.317">  1  5  2 -1</clus>
<clus scale="   97.239">  7  8 -1 -1</clus>
<clus scale="   36.062">  2  5  1 -1</clus>
</clustering>
</event>
<event>
 9    1  0.2951046E-005  0.8971604E+02  0.7546771E-02  0.1306928E+00
          1   -1    0    0  502    0  0.00000000000E+00  0.00000000000E+00  0.58805839280E+03  0.58805839280E+03  0.00000000000E+00 0. -1.
         -2   -1    0    0    0  501 -0.00000000000E+00 -0.00000000000E+00 -0.49536096789E+02  0.49536096789E+02  0.00000000000E+00 0.  1.
        -24    2    1    2    0    0 -0.61968297098E-01 -0.25189129154E+02  0.20181537362E+02  0.87413818046E+02  0.81236599311E+02 0.  0.
         23    2    1    2    0    0 -0.66419883602E+02 -0.71879505697E+01  0.28148096599E+03  0.30204628598E+03  0.86816801860E+02 0.  0.
         11    1    3    3    0    0  0.39751817111E+02 -0.21164115544E+02  0.10872140729E+02  0.46328503045E+02  0.00000000000E+00 0. -1.
        -12    1    3    3    0    0 -0.39813785408E+02 -0.40250136100E+01  0.93093966334E+01  0.41085315001E+02  0.00000000000E+00 0.  1.
        -13    1    4    4    0    0 -0.65225033228E+02 -0.38947904032E+02  0.22149512790E+03  0.23416091875E+03  0.00000000000E+00 0.  1.
         13    1    4    4    0    0 -0.11948503733E+01  0.31759953463E+02  0.59985838096E+02  0.67885367226E+02  0.00000000000E+00 0. -1.
         21    1    1    2  502  501  0.66481851899E+02  0.32377079724E+02  0.23685979266E+03  0.24813438557E+03  0.00000000000E+00 0.  1.
<scales pt_clust_5="13000.00000" pt_clust_6="13000.00000" pt_clust_7="13000.00000" pt_clust_8="13000.00000" pt_clust_9="73.94668"></scales>
<clustering>
<clus scale="   73.947">  1  9  2 -1</clus>
<clus scale="   81.237">  5  6 -1 -1</clus>
<clus scale="   84.328">  2  5  1 -1</clus>
<clus scale="   86.817">  7  8 -1 -1</clus>
<clus scale="   73.947">  1  5  2 -1</clus>
</clustering>
</event>
<event>
 9    1  0.2951046E-005  0.1696499E+03  0.7546771E-02  0.1203827E+00
          1   -1    0    0  502    0  0.00000000000E+00  0.00000000000E+00  0.15095908877E+04  0.15095908877E+04  0.00000000000E+00 0. -1.
         -2   -1    0    0    0  501 -0.00000000000E+00 -0.00000000000E+00 -0.41459486821E+03  0.41459486821E+03  0.00000000000E+00 0.  1.
        -24    2    1    2    0    0  0.47734539645E+02 -0.18556898806E+02 -0.39070484812E+03  0.40242720359E+03  0.81697191403E+02 0.  0.
         23    2    1    2    0    0  0.24599196231E+02  0.14293621338E+03  0.58926798872E+03  0.61385201001E+03  0.92421026330E+02 0.  0.
         13    1    3    3    0    0  0.11891023551E+02 -0.46678539159E+02 -0.24771621495E+03  0.25235610872E+03  0.00000000000E+00 0. -1.
        -14    1    3    3    0    0  0.35843516094E+02  0.28121640353E+02 -0.14298863316E+03  0.15007109487E+03  0.00000000000E+00 0.  1.
        -13    1    4    4    0    0  0.53501917780E+02  0.12652069883E+03  0.50241765916E+03  0.52085837487E+03  0.00000000000E+00 0.  1.
         13    1    4    4    0    0 -0.28902721548E+02  0.16415514552E+02  0.86850329568E+02  0.92993635142E+02  0.00000000000E+00 0. -1.
         21    1    1    2  502  501 -0.72333735876E+02 -0.12437931458E+03  0.89643287891E+03  0.90790654234E+03  0.00000000000E+00 0. -1.
<scales pt_clust_5="13000.00000" pt_clust_6="13000.00000" pt_clust_7="13000.00000" pt_clust_8="13000.00000" pt_clust_9="142.26544"></scales>
<clustering>
<clus scale="   81.697">  5  6 -1 -1</clus>
<clus scale="   92.421">  7  8 -1 -1</clus>
<clus scale="   96.423">  2  5  1 -1</clus>
<clus scale="  142.265">  1  9  2 -1</clus>
<clus scale="  142.265">  1  5  2 -1</clus>
</clustering>
</event>
<event>
 9    1  0.2951046E-005  0.1384547E+03  0.7546771E-02  0.1217120E+00
         -2   -1    0    0    0  501 -0.00000000000E+00  0.00000000000E+00  0.78864126570E+02  0.78864126570E+02  0.00000000000E+00 0.  1.
          1   -1    0    0  502    0  0.00000000000E+00 -0.00000000000E+00 -0.52197749995E+03  0.52197749995E+03  0.00000000000E+00 0. -1.
        -24    2    1    2    0    0 -0.10190653449E+03  0.13165573353E+02 -0.12748708433E+02  0.13097929242E+03  0.80217026754E+02 0.  0.
         23    2    1    2    0    0  0.12983007629E+03 -0.61502208899E+01 -0.38871349003E+03  0.41922875109E+03  0.88095939082E+02 0.  0.
         11    1    3    3    0    0  0.31012836380E+01  0.21738651764E+02 -0.13200569598E+02  0.25621123676E+02  0.00000000000E+00 0. -1.
        -12    1    3    3    0    0 -0.10500781813E+03 -0.85730784101E+01  0.45186116580E+00  0.10535816874E+03  0.00000000000E+00 0.  1.
        -11    1    4    4    0    0  0.80153873492E+02  0.39228750219E+02 -0.23793658805E+03  0.25412075518E+03  0.00000000000E+00 0. -1.
         11    1    4    4    0    0  0.49676202799E+02 -0.45378971109E+02 -0.15077690198E+03  0.16510799591E+03  0.00000000000E+00 0.  1.
         21    1    1    2  502  501 -0.27923541800E+02 -0.70153524635E+01 -0.41651174920E+02  0.50633583016E+02  0.00000000000E+00 0.  1.
<scales pt_clust_5="13000.00000" pt_clust_6="13000.00000" pt_clust_7="13000.00000" pt_clust_8="13000.00000" pt_clust_9="28.79131"></scales>
<clustering>
<clus scale="   28.791">  2  9  1 -1</clus>
<clus scale="   80.217">  5  6 -1 -1</clus>
<clus scale="   88.096">  7  8 -1 -1</clus>
<clus scale="  133.580">  1  5  2 -1</clus>
<clus scale="   28.791">  2  5  1 -1</clus>
</clustering>
</event>
<event>
 9    1  0.2951046E-005  0.1097819E+03  0.7546771E-02  0.1263993E+00
          1   -1    0    0  502    0  0.00000000000E+00  0.00000000000E+00  0.24536469017E+03  0.24536469017E+03  0.00000000000E+00 0. -1.
         -2   -1    0    0    0  501 -0.00000000000E+00 -0.00000000000E+00 -0.61194721078E+02  0.61194721078E+02  0.00000000000E+00 0.  1.
         23    2    1    2    0    0  0.14628166765E+01 -0.75993558491E+02  0.72198347387E+02  0.13833606904E+03  0.90261319885E+02 0.  0.
        -24    2    1    2    0    0 -0.10036429443E+02  0.48939384346E+02  0.78543240266E+02  0.12437255133E+03  0.82484529931E+02 0.  0.
         13    1    4    4    0    0 -0.35493644475E+02  0.14853645156E+02  0.71576777175E+02  0.81262934991E+02  0.00000000000E+00 0. -1.
        -14    1    4    4    0    0  0.25457215032E+02  0.34085739190E+02  0.69664630908E+01  0.43109616344E+02  0.00000000000E+00 0.  1.
        -11    1    3    3    0    0 -0.18909361598E+02 -0.46205134095E+02 -0.78412851012E+01  0.50536760133E+02  0.00000000000E+00 0.  1.
         11    1    3    3    0    0  0.20372178274E+02 -0.29788424396E+02  0.80039632488E+02  0.87799308907E+02  0.00000000000E+00 0. -1.
         21    1    1    2  502  501  0.85736127666E+01  0.27054174145E+02  0.33428381440E+02  0.43850790873E+02  0.00000000000E+00 0.  1.
<scales pt_clust_5="13000.00000" pt_clust_6="13000.00000" pt_clust_7="13000.00000" pt_clust_8="13000.00000" pt_clust_9="28.38019"></scales>
<clustering>
<clus scale="   28.380">  1  9  2 -1</clus>
<clus scale="   82.485">  5  6 -1 -1</clus>
<clus scale="   90.261">  7  8 -1 -1</clus>
<clus scale="  103.483">  1  5  2 -1</clus>
<clus scale="   28.380">  1  5  2 -1</clus>
</clustering>
</event>
<event>
 9    1  0.2951046E-005  0.8785328E+02  0.7546771E-02  0.1311832E+00
         -2   -1    0    0    0  501 -0.00000000000E+00  0.00000000000E+00  0.15698303812E+03  0.15698303812E+03  0.00000000000E+00 0.  1.
          1   -1    0    0  502    0  0.00000000000E+00 -0.00000000000E+00 -0.18170419828E+03  0.18170419828E+03  0.00000000000E+00 0. -1.
        -24    2    1    2    0    0 -0.18858776988E+02 -0.42353085582E+01  0.11648053556E+03  0.14254166299E+03  0.79854988669E+02 0.  0.
         23    2    1    2    0    0  0.23253506994E+02 -0.35843428633E+02 -0.10192372940E+03  0.13985723123E+03  0.85709518429E+02 0.  0.
         11    1    3    3    0    0 -0.48378604925E+02  0.91789630123E+01  0.62447103408E+02  0.79525992609E+02  0.00000000000E+00 0. -1.
        -12    1    3    3    0    0  0.29519827937E+02 -0.13414271570E+02  0.54033432157E+02  0.63015670383E+02  0.00000000000E+00 0.  1.
        -11    1    4    4    0    0  0.15961272474E+02 -0.59953679207E+02 -0.42185084101E+02  0.75025243686E+02  0.00000000000E+00 0. -1.
         11    1    4    4    0    0  0.72922345198E+01  0.24110250575E+02 -0.59738645296E+02  0.64831987543E+02  0.00000000000E+00 0.  1.
         21    1    1    2  502  501 -0.43947300054E+01  0.40078737191E+02 -0.39277966320E+02  0.56288342176E+02  0.00000000000E+00 0.  1.
<scales pt_clust_5="13000.00000" pt_clust_6="13000.00000" pt_clust_7="13000.00000" pt_clust_8="13000.00000" pt_clust_9="40.31896"></scales>
<clustering>
<clus scale="   40.319">  2  9  1 -1</clus>
<clus scale="   79.855">  5  6 -1 -1</clus>
<clus scale="   82.152">  1  5  2 -1</clus>
<clus scale="   85.710">  7  8 -1 -1</clus>
<clus scale="   40.319">  2  5  1 -1</clus>
</clustering>
</event>
<event>
 9    1  0.2951046E-005  0.1905777E+03  0.7546771E-02  0.1158926E+00
         -2   -1    0    0    0  501 -0.00000000000E+00  0.00000000000E+00  0.63914749733E+02  0.63914749733E+02  0.00000000000E+00 0.  1.
          1   -1    0    0  502    0  0.00000000000E+00 -0.00000000000E+00 -0.70280743613E+03  0.70280743613E+03  0.00000000000E+00 0. -1.
        -24    2    1    2    0    0  0.11383908146E+03  0.10913274549E+03 -0.20590903168E+03  0.27185579736E+03  0.81472404046E+02 0.  0.
         23    2    1    2    0    0 -0.12984025883E+03 -0.12713629504E+03 -0.31795424218E+03  0.37734221558E+03  0.90940184783E+02 0.  0.
         13    1    3    3    0    0  0.52468207014E+02  0.77921057472E+02 -0.16993797839E+03  0.19417394378E+03  0.00000000000E+00 0. -1.
        -14    1    3    3    0    0  0.61370874450E+02  0.31211688023E+02 -0.35971053293E+02  0.77681853576E+02  0.00000000000E+00 0.  1.
        -11    1    4    4    0    0 -0.87237088089E+02 -0.25685568886E+02 -0.17196739951E+03  0.19453237387E+03  0.00000000000E+00 0. -1.
         11    1    4    4    0    0 -0.42603170740E+02 -0.10145072616E+03 -0.14598684267E+03  0.18280984171E+03  0.00000000000E+00 0.  1.
         21    1    1    2  502  501  0.16001177365E+02  0.18003549549E+02 -0.11502941254E+03  0.11752417293E+03  0.00000000000E+00 0.  1.
<scales pt_clust_5="13000.00000" pt_clust_6="13000.00000" pt_clust_7="13000.00000" pt_clust_8="13000.00000" pt_clust_9="24.08662"></scales>
<clustering>
<clus scale="   24.087">  2  9  1 -1</clus>
<clus scale="   81.472">  5  6 -1 -1</clus>
<clus scale="   90.940">  7  8 -1 -1</clus>
<clus scale="  186.246">  1  5  2 -1</clus>
<clus scale="   24.087">  2  5  1 -1</clus>
</clustering>
</event>
<event>
 9    1  0.2951046E-005  0.9432690E+02  0.7546771E-02  0.1298696E+00
          1   -1    0    0  502    0  0.00000000000E+00  0.00000000000E+00  0.30942306206E+03  0.30942306206E+03  0.00000000000E+00 0. -1.
         -2   -1    0    0    0  501 -0.00000000000E+00 -0.00000000000E+00 -0.72472334601E+02  0.72472334601E+02  0.00000000000E+00 0.  1.
        -24    2    1    2    0    0  0.21900389959E+02  0.10352220187E+02 -0.28330572364E+02  0.89185628031E+02  0.81022585577E+02 0.  0.
         23    2    1    2    0    0 -0.26440928682E+02  0.13649005565E+02  0.18031473014E+03  0.20430166214E+03  0.91325512235E+02 0.  0.
         11    1    3    3    0    0 -0.85417519288E+01 -0.22644562099E+02  0.13594764722E+02  0.27758878697E+02  0.00000000000E+00 0. -1.
        -12    1    3    3    0    0  0.30442141888E+02  0.32996782286E+02 -0.41925337085E+02  0.61426749334E+02  0.00000000000E+00 0.  1.
        -13    1    4    4    0    0 -0.57287913618E+02 -0.84180908654E+01  0.11562742036E+03  0.12931538826E+03  0.00000000000E+00 0. -1.
         13    1    4    4    0    0  0.30846984935E+02  0.22067096431E+02  0.64687309777E+02  0.74986273881E+02  0.00000000000E+00 0.  1.
         21    1    1    2  502  501  0.45405387235E+01 -0.24001225752E+02  0.84966569682E+02  0.88408106489E+02  0.00000000000E+00 0. -1.
<scales pt_clust_5="13000.00000" pt_clust_6="13000.00000" pt_clust_7="13000.00000" pt_clust_8="13000.00000" pt_clust_9="24.42694"></scales>
<clustering>
<clus scale="   24.427">  1  9  2 -1</clus>
<clus scale="   81.023">  5  6 -1 -1</clus>
<clus scale="   84.391">  2  5  1 -1</clus>
<clus scale="   91.326">  7  8 -1 -1</clus>
<clus scale="   24.427">  1  5  2 -1</clus>
</clustering>
</event>
<event>
 9    1  0.2951046E-005  0.1144179E+03  0.7546771E-02  0.1252852E+00
          1   -1    0    0  502    0  0.00000000000E+00  0.00000000000E+00  0.35646625195E+03  0.35646625195E+03  0.00000000000E+00 0. -1.
         -2   -1    0    0    0  501 -0.00000000000E+00 -0.00000000000E+00 -0.98345985935E+02  0.98345985935E+02  0.00000000000E+00 0.  1.
         23    2    1    2    0    0 -0.13833927306E+02  0.58175907554E+02  0.20166219148E+02  0.11197461867E+03  0.92497703033E+02 0.  0.
        -24    2    1    2    0    0 -0.80725941762E+02 -0.83407063794E+02  0.13925204449E+03  0.20384026185E+03  0.93200345981E+02 0.  0.
         11    1    4    4    0    0 -0.78794658327E+02 -0.23645800475E+02  0.10976650707E+03  0.13717291327E+03  0.00000000000E+00 0. -1.
        -12    1    4    4    0    0 -0.19312834343E+01 -0.59761263319E+02  0.29485537423E+02  0.66667348577E+02  0.00000000000E+00 0.  1.
        -13    1    3    3    0    0 -0.37664995161E+02  0.66976713835E+02 -0.39555864284E+01  0.76942697643E+02  0.00000000000E+00 0.  1.
         13    1    3    3    0    0  0.23831067855E+02 -0.88008062810E+01  0.24121805577E+02  0.35031921023E+02  0.00000000000E+00 0. -1.
         21    1    1    2  502  501  0.94559869068E+02  0.25231156240E+02  0.98702002376E+02  0.13899735737E+03  0.00000000000E+00 0.  1.
<scales pt_clust_5="13000.00000" pt_clust_6="13000.00000" pt_clust_7="13000.00000" pt_clust_8="13000.00000" pt_clust_9="97.86818"></scales>
<clustering>
<clus scale="   92.498">  7  8 -1 -1</clus>
<clus scale="   93.200">  5  6 -1 -1</clus>
<clus scale="   97.868">  1  9  2 -1</clus>
<clus scale="  113.846">  2  7  1 -1</clus>
<clus scale="   97.868">  1  5  2 -1</clus>
</clustering>
</event>
<event>
 9    1  0.2951046E-005  0.1156881E+03  0.7546771E-02  0.1254341E+00
         -2   -1    0    0    0  501 -0.00000000000E+00  0.00000000000E+00  0.17961492095E+03  0.17961492095E+03  0.00000000000E+00 0.  1.
          1   -1    0    0  502    0  0.00000000000E+00 -0.00000000000E+00 -0.11154636482E+03  0.11154636482E+03  0.00000000000E+00 0. -1.
         23    2    1    2    0    0 -0.35010886569E+02  0.57163763479E+02  0.65848482128E+02  0.13100823609E+03  0.91288976831E+02 0.  0.
        -24    2    1    2    0    0  0.63730753529E+02 -0.47255411237E+02  0.32565884630E+02  0.11721269075E+03  0.79897404175E+02 0.  0.
         13    1    4    4    0    0  0.21631331123E+02 -0.58748228951E+02 -0.26087990258E+00  0.62604608052E+02  0.00000000000E+00 0. -1.
        -14    1    4    4    0    0  0.42099422406E+02  0.11492817714E+02  0.32826764533E+02  0.54608082695E+02  0.00000000000E+00 0.  1.
        -11    1    3    3    0    0 -0.29714793631E+02  0.32732992567E+02  0.87437345632E+02  0.97978095379E+02  0.00000000000E+00 0.  1.
         11    1    3    3    0    0 -0.52960929378E+01  0.24430770913E+02 -0.21588863505E+02  0.33030140708E+02  0.00000000000E+00 0. -1.
         21    1    1    2  502  501 -0.28719866960E+02 -0.99083522422E+01 -0.30345810632E+02  0.42940358933E+02  0.00000000000E+00 0. -1.
<scales pt_clust_5="13000.00000" pt_clust_6="13000.00000" pt_clust_7="13000.00000" pt_clust_8="13000.00000" pt_clust_9="30.38102"></scales>
<clustering>
<clus scale="   30.381">  2  9  1 -1</clus>
<clus scale="   79.897">  5  6 -1 -1</clus>
<clus scale="   91.289">  7  8 -1 -1</clus>
<clus scale="  106.928">  2  5  1 -1</clus>
<clus scale="   30.381">  2  5  1 -1</clus>
</clustering>
</event>
<event>
 9    1  0.2951046E-005  0.1094494E+03  0.7546771E-02  0.1264293E+00
         -2   -1    0    0    0  501 -0.00000000000E+00  0.00000000000E+00  0.24512883231E+02  0.24512883231E+02  0.00000000000E+00 0.  1.
          1   -1    0    0  502    0  0.00000000000E+00 -0.00000000000E+00 -0.70433778305E+03  0.70433778305E+03  0.00000000000E+00 0. -1.
        -24    2    1    2    0    0 -0.56218699148E+02  0.21297108050E+02 -0.18673915198E+03  0.21261541527E+03  0.81973745700E+02 0.  0.
         23    2    1    2    0    0  0.41520421697E+02 -0.55968954604E+02 -0.40403519294E+03  0.41954927669E+03  0.88998253541E+02 0.  0.
         11    1    3    3    0    0  0.23173197308E+01  0.38726307644E+02 -0.92611523304E+02  0.10040911873E+03  0.00000000000E+00 0. -1.
        -12    1    3    3    0    0 -0.58536018879E+02 -0.17429199594E+02 -0.94127628674E+02  0.11220629655E+03  0.00000000000E+00 0.  1.
        -11    1    4    4    0    0 -0.16732420152E+02 -0.49137389751E+02 -0.23381606621E+03  0.23950868413E+03  0.00000000000E+00 0. -1.
         11    1    4    4    0    0  0.58252841850E+02 -0.68315648524E+01 -0.17021912673E+03  0.18004059255E+03  0.00000000000E+00 0.  1.
         21    1    1    2  502  501  0.14698277451E+02  0.34671846554E+02 -0.89050554897E+02  0.96685974324E+02  0.00000000000E+00 0. -1.
<scales pt_clust_5="13000.00000" pt_clust_6="13000.00000" pt_clust_7="13000.00000" pt_clust_8="13000.00000" pt_clust_9="37.65868"></scales>
<clustering>
<clus scale="   37.659">  1  9  2 -1</clus>
<clus scale="   81.974">  5  6 -1 -1</clus>
<clus scale="   88.998">  7  8 -1 -1</clus>
<clus scale="  103.818">  1  5  2 -1</clus>
<clus scale="  109.449">  2  5  1 -1</clus>
</clustering>
</event>
<event>
 9    1  0.2951046E-005  0.1461010E+03  0.7546771E-02  0.1207540E+00
          1   -1    0    0  502    0  0.00000000000E+00  0.00000000000E+00  0.10101180128E+03  0.10101180128E+03  0.00000000000E+00 0. -1.
         -2   -1    0    0    0  501 -0.00000000000E+00 -0.00000000000E+00 -0.84588402355E+03  0.84588402355E+03  0.00000000000E+00 0.  1.
        -24    2    1    2    0    0 -0.33087324070E+02 -0.11477909216E+03 -0.72121443779E+03  0.73538824632E+03  0.79853594407E+02 0.  0.
         23    2    1    2    0    0  0.64249223512E+02  0.44246518432E+02  0.21956602955E+02  0.12191639437E+03  0.91081269689E+02 0.  0.
         11    1    3    3    0    0 -0.36149411658E+02 -0.86672831203E+02 -0.32855787113E+03  0.34171513621E+03  0.00000000000E+00 0. -1.
        -12    1    3    3    0    0  0.30620875880E+01 -0.28106260957E+02 -0.39265656666E+03  0.39367311011E+03  0.00000000000E+00 0.  1.
        -13    1    4    4    0    0 -0.22396261068E+02  0.87774053946E+00 -0.64235365181E+00  0.22422657213E+02  0.00000000000E+00 0.  1.
         13    1    4    4    0    0  0.86645484581E+02  0.43368777893E+02  0.22598956607E+02  0.99493737159E+02  0.00000000000E+00 0. -1.
         21    1    1    2  502  501 -0.31161899442E+02  0.70532573728E+02 -0.45614387441E+02  0.89591184138E+02  0.00000000000E+00 0.  1.
<scales pt_clust_5="13000.00000" pt_clust_6="13000.00000" pt_clust_7="13000.00000" pt_clust_8="13000.00000" pt_clust_9="77.10971"></scales>
<clustering>
<clus scale="   77.110">  1  9  2 -1</clus>
<clus scale="   79.854">  5  6 -1 -1</clus>
<clus scale="   91.081">  7  8 -1 -1</clus>
<clus scale="  139.378">  2  5  1 -1</clus>
<clus scale="   77.110">  1  5  2 -1</clus>
</clustering>
</event>
<event>
 9    1  0.2951046E-005  0.9556309E+02  0.7546771E-02  0.1295232E+00
          1   -1    0    0  502    0  0.00000000000E+00  0.00000000000E+00  0.71341712601E+03  0.71341712601E+03  0.00000000000E+00 0. -1.
         -2   -1    0    0    0  501 -0.00000000000E+00 -0.00000000000E+00 -0.21198268289E+02  0.21198268289E+02  0.00000000000E+00 0.  1.
        -24    2    1    2    0    0  0.58127610930E+01 -0.29465344713E+02  0.11418893361E+03  0.14246496135E+03  0.79719244367E+02 0.  0.
         23    2    1    2    0    0 -0.29370622020E+02  0.39747827231E+02  0.43606818308E+03  0.44788041467E+03  0.89436470993E+02 0.  0.
         11    1    3    3    0    0 -0.11270762984E+02  0.23841200352E+02  0.20809109716E+02  0.33592439323E+02  0.00000000000E+00 0. -1.
        -12    1    3    3    0    0  0.17083524077E+02 -0.53306545065E+02  0.93379823896E+02  0.10887252203E+03  0.00000000000E+00 0.  1.
        -13    1    4    4    0    0  0.10940304645E+02  0.57158748789E+02  0.25707881080E+03  0.26358362581E+03  0.00000000000E+00 0. -1.
         13    1    4    4    0    0 -0.40310926664E+02 -0.17410921558E+02  0.17898937228E+03  0.18429678887E+03  0.00000000000E+00 0.  1.
         21    1    1    2  502  501  0.23557860927E+02 -0.10282482519E+02  0.14196174103E+03  0.14427001828E+03  0.00000000000E+00 0.  1.
<scales pt_clust_5="13000.00000" pt_clust_6="13000.00000" pt_clust_7="13000.00000" pt_clust_8="13000.00000" pt_clust_9="25.70413"></scales>
<clustering>
<clus scale="   25.704">  1  9  2 -1</clus>
<clus scale="   79.719">  5  6 -1 -1</clus>
<clus scale="   86.537">  2  5  1 -1</clus>
<clus scale="   89.436">  7  8 -1 -1</clus>
<clus scale="   25.704">  1  5  2 -1</clus>
</clustering>
</event>
<event>
 9    1  0.2951046E-005  0.1309621E+03  0.7546771E-02  0.1228047E+00
          1   -1    0    0  502    0  0.00000000000E+00  0.00000000000E+00  0.26618631701E+03  0.26618631701E+03  0.00000000000E+00 0. -1.
         -2   -1    0    0    0  501 -0.00000000000E+00 -0.00000000000E+00 -0.15738955708E+03  0.15738955708E+03  0.00000000000E+00 0.  1.
        -24    2    1    2    0    0  0.27456037098E+02 -0.92995308596E+02 -0.90099805431E+02  0.15554227764E+03  0.81691271263E+02 0.  0.
         23    2    1    2    0    0 -0.64666650080E+02  0.71324053583E+02  0.11970298874E+03  0.17788984686E+03  0.89705606570E+02 0.  0.
         13    1    3    3    0    0  0.15728040881E+02 -0.10515249097E+03 -0.88928063190E+02  0.13860958859E+03  0.00000000000E+00 0. -1.
        -14    1    3    3    0    0  0.11727996217E+02  0.12157182372E+02 -0.11717422401E+01  0.16932689047E+02  0.00000000000E+00 0.  1.
        -13    1    4    4    0    0  0.90015758586E+01  0.55069279914E+02  0.44532849800E+02  0.71392077078E+02  0.00000000000E+00 0.  1.
         13    1    4    4    0    0 -0.73668225939E+02  0.16254773668E+02  0.75170138942E+02  0.10649776978E+03  0.00000000000E+00 0. -1.
         21    1    1    2  502  501  0.37210612982E+02  0.21671255013E+02  0.79193576614E+02  0.90143749585E+02  0.00000000000E+00 0. -1.
<scales pt_clust_5="13000.00000" pt_clust_6="13000.00000" pt_clust_7="13000.00000" pt_clust_8="13000.00000" pt_clust_9="43.06127"></scales>
<clustering>
<clus scale="   43.061">  1  9  2 -1</clus>
<clus scale="   81.691">  5  6 -1 -1</clus>
<clus scale="   89.706">  7  8 -1 -1</clus>
<clus scale="  125.608">  2  5  1 -1</clus>
<clus scale="   43.061">  1  5  2 -1</clus>
</clustering>
</event>
<event>
 9    1  0.2951046E-005  0.9274422E+02  0.7546771E-02  0.1300325E+00
         -2   -1    0    0    0  501 -0.00000000000E+00  0.00000000000E+00  0.57890129874E+02  0.57890129874E+02  0.00000000000E+00 0.  1.
          1   -1    0    0  502    0  0.00000000000E+00 -0.00000000000E+00 -0.33310156252E+03  0.33310156252E+03  0.00000000000E+00 0. -1.
         23    2    1    2    0    0 -0.30748863830E+02  0.18099264643E+01 -0.82282840872E+01  0.95248519488E+02  0.89754149459E+02 0.  0.
        -24    2    1    2    0    0 -0.17701050775E+01 -0.18660388480E+02 -0.14202690772E+03  0.16552994956E+03  0.82928754455E+02 0.  0.
         13    1    4    4    0    0  0.29244289877E+02  0.16857756951E+02 -0.85474901811E+02  0.91898701294E+02  0.00000000000E+00 0. -1.
        -14    1    4    4    0    0 -0.31014394955E+02 -0.35518145430E+02 -0.56552005906E+02  0.73631248266E+02  0.00000000000E+00 0.  1.
        -13    1    3    3    0    0 -0.23021110770E+02  0.26737585472E+02  0.31777022329E+02  0.47483146126E+02  0.00000000000E+00 0.  1.
         13    1    3    3    0    0 -0.77277530606E+01 -0.24927659008E+02 -0.40005306416E+02  0.47765373362E+02  0.00000000000E+00 0. -1.
         21    1    1    2  502  501  0.32518968908E+02  0.16850462015E+02 -0.12495624085E+03  0.13021322335E+03  0.00000000000E+00 0. -1.
<scales pt_clust_5="13000.00000" pt_clust_6="13000.00000" pt_clust_7="13000.00000" pt_clust_8="13000.00000" pt_clust_9="36.62542"></scales>
<clustering>
<clus scale="   36.625">  2  9  1 -1</clus>
<clus scale="   82.929">  5  6 -1 -1</clus>
<clus scale="   86.156">  2  5  1 -1</clus>
<clus scale="   89.754">  7  8 -1 -1</clus>
<clus scale="   36.625">  2  5  1 -1</clus>
</clustering>
</event>
<event>
 9    1  0.2951046E-005  0.9089990E+02  0.7546771E-02  0.1307046E+00
         -2   -1    0    0    0  501 -0.00000000000E+00  0.00000000000E+00  0.67375657571E+02  0.67375657571E+02  0.00000000000E+00 0.  1.
          1   -1    0    0  502    0  0.00000000000E+00 -0.00000000000E+00 -0.31312768967E+03  0.31312768967E+03  0.00000000000E+00 0. -1.
        -24    2    1    2    0    0 -0.75651863632E+01  0.64423006661E+01 -0.58602033145E+01  0.81436136969E+02  0.80614931240E+02 0.  0.
         23    2    1    2    0    0 -0.52893073631E+02  0.24434628408E+02 -0.11991874921E+03  0.16121901198E+03  0.90644002048E+02 0.  0.
         11    1    3    3    0    0  0.26785845772E+01  0.29576700210E+02 -0.32957082028E+02  0.44363557865E+02  0.00000000000E+00 0. -1.
        -12    1    3    3    0    0 -0.10243770940E+02 -0.23134399544E+02  0.27096878714E+02  0.37072579103E+02  0.00000000000E+00 0.  1.
        -13    1    4    4    0    0 -0.26731284250E+02 -0.12470164159E+02  0.35634747357E+01  0.29711359847E+02  0.00000000000E+00 0.  1.
         13    1    4    4    0    0 -0.26161789381E+02  0.36904792566E+02 -0.12348222395E+03  0.13150765213E+03  0.00000000000E+00 0. -1.
         21    1    1    2  502  501  0.60458259994E+02 -0.30876929074E+02 -0.11997307958E+03  0.13784819830E+03  0.00000000000E+00 0.  1.
<scales pt_clust_5="13000.00000" pt_clust_6="13000.00000" pt_clust_7="13000.00000" pt_clust_8="13000.00000" pt_clust_9="67.88657"></scales>
<clustering>
<clus scale="   67.887">  2  9  1 -1</clus>
<clus scale="   80.615">  5  6 -1 -1</clus>
<clus scale="   80.903">  1  5  2 -1</clus>
<clus scale="   90.644">  7  8 -1 -1</clus>
<clus scale="   67.887">  2  5  1 -1</clus>
</clustering>
</event>
<event>
 9    1  0.2951046E-005  0.9996939E+02  0.7546771E-02  0.1287534E+00
         -2   -1    0    0    0  501 -0.00000000000E+00  0.00000000000E+00  0.81673866634E+02  0.81673866634E+02  0.00000000000E+00 0.  1.
          1   -1    0    0  502    0  0.00000000000E+00 -0.00000000000E+00 -0.48132973403E+03  0.48132973403E+03  0.00000000000E+00 0. -1.
         23    2    1    2    0    0 -0.19287565054E+02 -0.26674921163E+02  0.39284448851E+02  0.10697455133E+03  0.93897418101E+02 0.  0.
        -24    2    1    2    0    0  0.93594165644E+01  0.50308841105E+02 -0.29982839278E+03  0.31457496648E+03  0.80260614555E+02 0.  0.
         11    1    4    4    0    0  0.43759104542E+02  0.39305824180E+02 -0.19662295223E+03  0.20523253248E+03  0.00000000000E+00 0. -1.
        -12    1    4    4    0    0 -0.34399687977E+02  0.11003016924E+02 -0.10320544055E+03  0.10934243400E+03  0.00000000000E+00 0.  1.
        -13    1    3    3    0    0 -0.24824372523E+02 -0.57378752212E+02  0.84105837211E+01  0.63081761192E+02  0.00000000000E+00 0. -1.
         13    1    3    3    0    0  0.55368074689E+01  0.30703831049E+02  0.30873865130E+02  0.43892790138E+02  0.00000000000E+00 0.  1.
         21    1    1    2  502  501  0.99281484900E+01 -0.23633919942E+02 -0.13911192347E+03  0.14145408285E+03  0.00000000000E+00 0. -1.
<scales pt_clust_5="13000.00000" pt_clust_6="13000.00000" pt_clust_7="13000.00000" pt_clust_8="13000.00000" pt_clust_9="25.63455"></scales>
<clustering>
<clus scale="   25.635">  2  9  1 -1</clus>
<clus scale="   80.261">  5  6 -1 -1</clus>
<clus scale="   87.286">  2  5  1 -1</clus>
<clus scale="   93.897">  7  8 -1 -1</clus>
<clus scale="   25.635">  2  5  1 -1</clus>
</clustering>
</event>
<event>
 9    1  0.2951046E-005  0.1092868E+03  0.7546771E-02  0.1263998E+00
         -2   -1    0    0    0  501 -0.00000000000E+00  0.00000000000E+00  0.26914330235E+02  0.26914330235E+02  0.00000000000E+00 0.  1.
          1   -1    0    0  502    0  0.00000000000E+00 -0.00000000000E+00 -0.94207103846E+03  0.94207103846E+03  0.00000000000E+00 0. -1.
         23    2    1    2    0    0 -0.58212200067E+02 -0.28018091776E+02 -0.15252625639E+03  0.18883651965E+03  0.90671376760E+02 0.  0.
        -24    2    1    2    0    0  0.17919589716E+02  0.65733239082E+02 -0.51325052321E+03  0.52473491914E+03  0.85315094654E+02 0.  0.
         11    1    4    4    0    0  0.16043292309E+01  0.24270006390E+02 -0.26581223910E+02  0.36030106120E+02  0.00000000000E+00 0. -1.
        -12    1    4    4    0    0  0.16315260485E+02  0.41463232692E+02 -0.48666929930E+03  0.48870481302E+03  0.00000000000E+00 0.  1.
        -11    1    3    3    0    0 -0.67113709624E+02  0.12074665138E+02 -0.76909470603E+02  0.10278674149E+03  0.00000000000E+00 0.  1.
         11    1    3    3    0    0  0.89015095572E+01 -0.40092756915E+02 -0.75616785785E+02  0.86049778163E+02  0.00000000000E+00 0. -1.
         21    1    1    2  502  501  0.40292610351E+02 -0.37715147306E+02 -0.24937992863E+03  0.25541392991E+03  0.00000000000E+00 0.  1.
<scales pt_clust_5="13000.00000" pt_clust_6="13000.00000" pt_clust_7="13000.00000" pt_clust_8="13000.00000" pt_clust_9="55.18992"></scales>
<clustering>
<clus scale="   55.190">  2  9  1 -1</clus>
<clus scale="   85.315">  5  6 -1 -1</clus>
<clus scale="   90.671">  7  8 -1 -1</clus>
<clus scale="  104.886">  2  5  1 -1</clus>
<clus scale="   55.190">  2  5  1 -1</clus>
</clustering>
</event>
<event>
 9    1  0.2951046E-005  0.1928331E+03  0.7546771E-02  0.1183358E+00
         -2   -1    0    0    0  501 -0.00000000000E+00  0.00000000000E+00  0.28521561593E+03  0.28521561593E+03  0.00000000000E+00 0.  1.
          1   -1    0    0  502    0  0.00000000000E+00 -0.00000000000E+00 -0.26984122700E+03  0.26984122700E+03  0.00000000000E+00 0. -1.
         23    2    1    2    0    0 -0.44120038029E+02 -0.13154362621E+02  0.13012332744E+03  0.16590769329E+03  0.92052524877E+02 0.  0.
        -24    2    1    2    0    0  0.14099310000E+03 -0.12055479090E+03 -0.91172727317E+02  0.22236076394E+03  0.81971527236E+02 0.  0.
         11    1    4    4    0    0  0.15126830398E+03 -0.11533948191E+03 -0.80168622995E+02  0.20642747876E+03  0.00000000000E+00 0. -1.
        -12    1    4    4    0    0 -0.10275203976E+02 -0.52153089849E+01 -0.11004104322E+02  0.15933285176E+02  0.00000000000E+00 0.  1.
        -13    1    3    3    0    0  0.21456302646E+02 -0.20320147713E+02  0.72597240324E+02  0.78381379351E+02  0.00000000000E+00 0. -1.
         13    1    3    3    0    0 -0.65576340675E+02  0.71657850923E+01  0.57526087116E+02  0.87526313936E+02  0.00000000000E+00 0.  1.
         21    1    1    2  502  501 -0.96873061972E+02  0.13370915352E+03 -0.23576211186E+02  0.16678838570E+03  0.00000000000E+00 0.  1.
<scales pt_clust_5="13000.00000" pt_clust_6="13000.00000" pt_clust_7="13000.00000" pt_clust_8="13000.00000" pt_clust_9="174.54309"></scales>
<clustering>
<clus scale="   81.972">  5  6 -1 -1</clus>
<clus scale="   92.053">  7  8 -1 -1</clus>
<clus scale="  102.924">  1  7  2 -1</clus>
<clus scale="  174.543">  1  9  2 -1</clus>
<clus scale="  192.833">  2  5  1 -1</clus>
</clustering>
</event>
<event>
 9    1  0.2951046E-005  0.1663836E+03  0.7546771E-02  0.1183498E+00
          1   -1    0    0  502    0  0.00000000000E+00  0.00000000000E+00  0.11478958650E+03  0.11478958650E+03  0.00000000000E+00 0. -1.
         -2   -1    0    0    0  501 -0.00000000000E+00 -0.00000000000E+00 -0.63735937535E+03  0.63735937535E+03  0.00000000000E+00 0.  1.
        -24    2    1    2    0    0 -0.38177864070E+02  0.14328563997E+03 -0.53845582313E+03  0.56397462792E+03  0.78386118346E+02 0.  0.
         23    2    1    2    0    0  0.31807270239E+02 -0.86104501412E+02  0.41558830895E+01  0.12945582306E+03  0.91191288813E+02 0.  0.
         13    1    3    3    0    0 -0.34695229760E+01  0.77228668271E+02 -0.15366492898E+03  0.17201515977E+03  0.00000000000E+00 0. -1.
        -14    1    3    3    0    0 -0.34708341094E+02  0.66056971700E+02 -0.38479089416E+03  0.39195946816E+03  0.00000000000E+00 0.  1.
        -13    1    4    4    0    0  0.25752982567E+02 -0.59266212405E+02 -0.41035618417E+02  0.76548167991E+02  0.00000000000E+00 0.  1.
         13    1    4    4    0    0  0.60542876720E+01 -0.26838289007E+02  0.45191501506E+02  0.52907655064E+02  0.00000000000E+00 0. -1.
         21    1    1    2  502  501  0.63705938316E+01 -0.57181138559E+02  0.11730151194E+02  0.58718510877E+02  0.00000000000E+00 0. -1.
<scales pt_clust_5="13000.00000" pt_clust_6="13000.00000" pt_clust_7="13000.00000" pt_clust_8="13000.00000" pt_clust_9="57.53492"></scales>
<clustering>
<clus scale="   57.535">  1  9  2 -1</clus>
<clus scale="   78.386">  5  6 -1 -1</clus>
<clus scale="   91.191">  7  8 -1 -1</clus>
<clus scale="  159.725">  2  5  1 -1</clus>
<clus scale="   57.535">  1  5  2 -1</clus>
</clustering>
</event>
<event>
 9    1  0.2951046E-005  0.9400193E+02  0.7546771E-02  0.1297435E+00
         -2   -1    0    0    0  501 -0.00000000000E+00  0.00000000000E+00  0.18085336365E+03  0.18085336365E+03  0.00000000000E+00 0.  1.
          1   -1    0    0  502    0  0.00000000000E+00 -0.00000000000E+00 -0.15724666174E+03  0.15724666174E+03  0.00000000000E+00 0. -1.
        -24    2    1    2    0    0 -0.43008010999E+02  0.25349914853E+02  0.13650146393E+03  0.16493854358E+03  0.77972856237E+02 0.  0.
         23    2    1    2    0    0  0.64639569819E+02 -0.23902069636E+02 -0.57448972647E+02  0.11362782620E+03  0.69723134680E+02 0.  0.
         11    1    3    3    0    0 -0.23286339670E+01  0.24266307020E+02  0.20501437833E+01  0.24463836209E+02  0.00000000000E+00 0. -1.
        -12    1    3    3    0    0 -0.40679377032E+02  0.10836078332E+01  0.13445132014E+03  0.14047470737E+03  0.00000000000E+00 0.  1.
        -13    1    4    4    0    0  0.52643999361E+01  0.20639920798E+02 -0.24364976524E+02  0.32363132083E+02  0.00000000000E+00 0.  1.
         13    1    4    4    0    0  0.59375169883E+02 -0.44541990435E+02 -0.33083996124E+02  0.81264694118E+02  0.00000000000E+00 0. -1.
         21    1    1    2  502  501 -0.21631558821E+02 -0.14478452164E+01 -0.55445789366E+02  0.59533655617E+02  0.00000000000E+00 0. -1.
<scales pt_clust_5="13000.00000" pt_clust_6="13000.00000" pt_clust_7="13000.00000" pt_clust_8="13000.00000" pt_clust_9="21.67996"></scales>
<clustering>
<clus scale="   21.680">  2  9  1 -1</clus>
<clus scale="   69.723">  7  8 -1 -1</clus>
<clus scale="   77.973">  5  6 -1 -1</clus>
<clus scale="   87.281">  2  7  1 -1</clus>
<clus scale="   21.680">  2  5  1 -1</clus>
</clustering>
</event>
<event>
 9    1  0.2951046E-005  0.9283596E+02  0.7546771E-02  0.1303233E+00
          1   -1    0    0  502    0  0.00000000000E+00  0.00000000000E+00  0.46523969787E+02  0.46523969787E+02  0.00000000000E+00 0. -1.
         -2   -1    0    0    0  501 -0.00000000000E+00 -0.00000000000E+00 -0.35109549978E+03  0.35109549978E+03  0.00000000000E+00 0.  1.
        -24    2    1    2    0    0  0.20974444354E+02  0.45866690808E+01 -0.24583484826E+03  0.25909591040E+03  0.78961720573E+02 0.  0.
         23    2    1    2    0    0 -0.34429070483E+01 -0.27174125377E+02 -0.33771232454E+02  0.10056540273E+03  0.90678649012E+02 0.  0.
         13    1    3    3    0    0  0.41325464135E+02 -0.16400258580E+02 -0.88191628090E+02  0.98765002570E+02  0.00000000000E+00 0. -1.
        -14    1    3    3    0    0 -0.20351019782E+02  0.20986927660E+02 -0.15764322018E+03  0.16033090783E+03  0.00000000000E+00 0.  1.
        -11    1    4    4    0    0  0.28809437449E+02 -0.48117134082E+02 -0.16914761000E+02  0.58577738247E+02  0.00000000000E+00 0. -1.
         11    1    4    4    0    0 -0.32252344497E+02  0.20943008705E+02 -0.16856471454E+02  0.41987664487E+02  0.00000000000E+00 0.  1.
         21    1    1    2  502  501 -0.17531537305E+02  0.22587456296E+02 -0.24965449272E+02  0.37958156430E+02  0.00000000000E+00 0.  1.
<scales pt_clust_5="13000.00000" pt_clust_6="13000.00000" pt_clust_7="13000.00000" pt_clust_8="13000.00000" pt_clust_9="28.59280"></scales>
<clustering>
<clus scale="   28.593">  1  9  2 -1</clus>
<clus scale="   78.962">  5  6 -1 -1</clus>
<clus scale="   81.430">  2  5  1 -1</clus>
<clus scale="   90.679">  7  8 -1 -1</clus>
<clus scale="   28.593">  1  5  2 -1</clus>
</clustering>
</event>
<event>
 9    1  0.2951046E-005  0.2746794E+03  0.7546771E-02  0.1140936E+00
         -2   -1    0    0    0  501 -0.00000000000E+00  0.00000000000E+00  0.38502005764E+03  0.38502005764E+03  0.00000000000E+00 0.  1.
          1   -1    0    0  502    0  0.00000000000E+00 -0.00000000000E+00 -0.52989657598E+03  0.52989657598E+03  0.00000000000E+00 0. -1.
         23    2    1    2    0    0  0.89329168263E+02  0.23305173866E+03  0.22908931072E+03  0.35090901408E+03  0.91446217440E+02 0.  0.
        -24    2    1    2    0    0  0.25537302537E+02  0.45225715099E+02 -0.18630975831E+03  0.20925778053E+03  0.79874736585E+02 0.  0.
         13    1    4    4    0    0  0.40555578014E+02  0.33166019760E+02 -0.18217418400E+03  0.18955783574E+03  0.00000000000E+00 0. -1.
        -14    1    4    4    0    0 -0.15018275477E+02  0.12059695339E+02 -0.41355743132E+01  0.19699944794E+02  0.00000000000E+00 0.  1.
        -11    1    3    3    0    0  0.27113261546E+02  0.11125194286E+02  0.55467276444E+01  0.29827254100E+02  0.00000000000E+00 0. -1.
         11    1    3    3    0    0  0.62215906716E+02  0.22192654437E+03  0.22354258307E+03  0.32108175998E+03  0.00000000000E+00 0.  1.
         21    1    1    2  502  501 -0.11486647080E+03 -0.27827745376E+03 -0.18765607074E+03  0.35474983900E+03  0.00000000000E+00 0. -1.
<scales pt_clust_5="13000.00000" pt_clust_6="13000.00000" pt_clust_7="13000.00000" pt_clust_8="13000.00000" pt_clust_9="259.01038"></scales>
<clustering>
<clus scale="   79.875">  5  6 -1 -1</clus>
<clus scale="   91.446">  7  8 -1 -1</clus>
<clus scale="   95.276">  2  5  1 -1</clus>
<clus scale="  259.010">  2  9  1 -1</clus>
<clus scale="   95.276">  2  5  1 -1</clus>
</clustering>
</event>
<event>
 9    1  0.2951046E-005  0.9206658E+02  0.7546771E-02  0.1306010E+00
         -4   -1    0    0    0  501 -0.00000000000E+00  0.00000000000E+00  0.66690867999E+03  0.66690867999E+03  0.00000000000E+00 0.  1.
          3   -1    0    0  502    0  0.00000000000E+00 -0.00000000000E+00 -0.13151520509E+03  0.13151520509E+03  0.00000000000E+00 0. -1.
        -24    2    1    2    0    0  0.47686525148E+01 -0.14214887723E+01  0.56657518860E+03  0.57210938148E+03  0.79227137746E+02 0.  0.
         23    2    1    2    0    0  0.14240179830E+02  0.20938628918E+02  0.72057527930E+02  0.11954093254E+03  0.91959438439E+02 0.  0.
         13    1    3    3    0    0 -0.89896839338E+01  0.29425529365E+02  0.10814860176E+03  0.11244018969E+03  0.00000000000E+00 0. -1.
        -14    1    3    3    0    0  0.13758336449E+02 -0.30847018137E+02  0.45842658685E+03  0.45966919179E+03  0.00000000000E+00 0.  1.
        -13    1    4    4    0    0 -0.12050314380E+02 -0.32952043661E+02  0.31491731029E+02  0.47146329457E+02  0.00000000000E+00 0.  1.
         13    1    4    4    0    0  0.26290494210E+02  0.53890672580E+02  0.40565796902E+02  0.72394603080E+02  0.00000000000E+00 0. -1.
         21    1    1    2  502  501 -0.19008832345E+02 -0.19517140146E+02 -0.10323924163E+03  0.10677357107E+03  0.00000000000E+00 0. -1.
<scales pt_clust_5="13000.00000" pt_clust_6="13000.00000" pt_clust_7="13000.00000" pt_clust_8="13000.00000" pt_clust_9="27.24435"></scales>
<clustering>
<clus scale="   27.244">  2  9  1 -1</clus>
<clus scale="   79.227">  5  6 -1 -1</clus>
<clus scale="   79.351">  1  5  2 -1</clus>
<clus scale="   91.959">  7  8 -1 -1</clus>
<clus scale="   27.244">  2  5  1 -1</clus>
</clustering>
</event>
<event>
 9    1  0.2951046E-005  0.9897269E+02  0.7546771E-02  0.1284824E+00
         -2   -1    0    0    0  501 -0.00000000000E+00  0.00000000000E+00  0.42381191583E+03  0.42381191583E+03  0.00000000000E+00 0.  1.
          1   -1    0    0  502    0  0.00000000000E+00 -0.00000000000E+00 -0.16796836566E+03  0.16796836566E+03  0.00000000000E+00 0. -1.
        -24    2    1    2    0    0 -0.36158331796E+02 -0.23693872269E+02  0.38711368479E+03  0.39879792023E+03  0.85521644553E+02 0.  0.
         23    2    1    2    0    0 -0.32619359990E+00  0.97262543944E+01 -0.52050564978E+02  0.10465368439E+03  0.90268631956E+02 0.  0.
         13    1    3    3    0    0  0.16932308198E+02  0.20582754221E+02  0.10239335958E+03  0.10580525941E+03  0.00000000000E+00 0. -1.
        -14    1    3    3    0    0 -0.53090639995E+02 -0.44276626490E+02  0.28472032521E+03  0.29299266082E+03  0.00000000000E+00 0.  1.
        -11    1    4    4    0    0  0.18435229220E+02 -0.22385965002E+02  0.11356541549E+02  0.31144183107E+02  0.00000000000E+00 0.  1.
         11    1    4    4    0    0 -0.18761422820E+02  0.32112219396E+02 -0.63407106527E+02  0.73509501283E+02  0.00000000000E+00 0. -1.
         21    1    1    2  502  501  0.36484525396E+02  0.13967617874E+02 -0.79219569644E+02  0.88328676867E+02  0.00000000000E+00 0. -1.
<scales pt_clust_5="13000.00000" pt_clust_6="13000.00000" pt_clust_7="13000.00000" pt_clust_8="13000.00000" pt_clust_9="39.06680"></scales>
<clustering>
<clus scale="   39.067">  2  9  1 -1</clus>
<clus scale="   85.522">  5  6 -1 -1</clus>
<clus scale="   90.269">  7  8 -1 -1</clus>
<clus scale="   94.663">  1  5  2 -1</clus>
<clus scale="   39.067">  2  5  1 -1</clus>
</clustering>
</event>
<event>
 9    1  0.2951046E-005  0.9557215E+02  0.7546771E-02  0.1294313E+00
          3   -1    0    0  502    0  0.00000000000E+00  0.00000000000E+00  0.11546363622E+04  0.11546363622E+04  0.00000000000E+00 0. -1.
         -4   -1    0    0    0  501 -0.00000000000E+00 -0.00000000000E+00 -0.43981384735E+02  0.43981384735E+02  0.00000000000E+00 0.  1.
        -24    2    1    2    0    0 -0.26697678496E+02 -0.26520913554E+02  0.25272031641E+02  0.94922613628E+02  0.83399652889E+02 0.  0.
         23    2    1    2    0    0 -0.50388149394E+02 -0.60224482524E+01  0.40826549085E+03  0.42142733904E+03  0.91351275806E+02 0.  0.
         13    1    3    3    0    0 -0.28778640341E+02  0.54600176356E+01 -0.22818914072E+02  0.37131183282E+02  0.00000000000E+00 0. -1.
        -14    1    3    3    0    0  0.20809618451E+01 -0.31980931190E+02  0.48090945713E+02  0.57791430347E+02  0.00000000000E+00 0.  1.
        -11    1    4    4    0    0  0.16525905579E+02  0.17347062973E+02  0.41878090555E+02  0.48247286115E+02  0.00000000000E+00 0.  1.
         11    1    4    4    0    0 -0.66914054972E+02 -0.23369511226E+02  0.36638740029E+03  0.37318005293E+03  0.00000000000E+00 0. -1.
         21    1    1    2  502  501  0.77085827890E+02  0.32543361807E+02  0.67711745499E+03  0.68226779428E+03  0.00000000000E+00 0.  1.
<scales pt_clust_5="13000.00000" pt_clust_6="13000.00000" pt_clust_7="13000.00000" pt_clust_8="13000.00000" pt_clust_9="83.67374"></scales>
<clustering>
<clus scale="   83.400">  5  6 -1 -1</clus>
<clus scale="   83.674">  1  9  2 -1</clus>
<clus scale="   88.003">  2  5  1 -1</clus>
<clus scale="   91.351">  7  8 -1 -1</clus>
<clus scale="   83.674">  1  5  2 -1</clus>
</clustering>
</event>
<event>
 9    1  0.2951046E-005  0.9434883E+02  0.7546771E-02  0.1300737E+00
         -2   -1    0    0    0  501 -0.00000000000E+00  0.00000000000E+00  0.90181026170E+02  0.90181026170E+02  0.00000000000E+00 0.  1.
          1   -1    0    0  502    0  0.00000000000E+00 -0.00000000000E+00 -0.19577112523E+03  0.19577112523E+03  0.00000000000E+00 0. -1.
         23    2    1    2    0    0 -0.32235644922E+02  0.54065412732E+01  0.36930551083E+02  0.10363092228E+03  0.91143485548E+02 0.  0.
        -24    2    1    2    0    0 -0.34721587223E+01  0.21058189919E+00 -0.98402178358E+02  0.12528581147E+03  0.77468997791E+02 0.  0.
         11    1    4    4    0    0  0.28007381224E+02  0.11506820397E+02 -0.11882956181E+02  0.32527295711E+02  0.00000000000E+00 0. -1.
        -12    1    4    4    0    0 -0.31479539946E+02 -0.11296238498E+02 -0.86519222177E+02  0.92758515757E+02  0.00000000000E+00 0.  1.
        -11    1    3    3    0    0 -0.56424129551E+02 -0.87858249267E+01 -0.19373660314E+00  0.57104383800E+02  0.00000000000E+00 0.  1.
         11    1    3    3    0    0  0.24188484629E+02  0.14192366200E+02  0.37124287686E+02  0.46526538483E+02  0.00000000000E+00 0. -1.
         21    1    1    2  502  501  0.35707803645E+02 -0.56171231724E+01 -0.44118471788E+02  0.57035417653E+02  0.00000000000E+00 0. -1.
<scales pt_clust_5="13000.00000" pt_clust_6="13000.00000" pt_clust_7="13000.00000" pt_clust_8="13000.00000" pt_clust_9="36.14691"></scales>
<clustering>
<clus scale="   36.147">  2  9  1 -1</clus>
<clus scale="   77.469">  5  6 -1 -1</clus>
<clus scale="   81.216">  2  5  1 -1</clus>
<clus scale="   91.143">  7  8 -1 -1</clus>
<clus scale="   36.147">  2  5  1 -1</clus>
</clustering>
</event>
<event>
 9    1  0.2951046E-005  0.9705483E+02  0.7546771E-02  0.1294323E+00
         -2   -1    0    0    0  501 -0.00000000000E+00  0.00000000000E+00  0.51517390733E+03  0.51517390733E+03  0.00000000000E+00 0.  1.
          1   -1    0    0  502    0  0.00000000000E+00 -0.00000000000E+00 -0.11781346030E+03  0.11781346030E+03  0.00000000000E+00 0. -1.
         23    2    1    2    0    0  0.84779273548E+01  0.32823165130E+02  0.47689041898E+03  0.48666886508E+03  0.90955357712E+02 0.  0.
        -24    2    1    2    0    0  0.13873926751E+02 -0.37498969264E+02 -0.29881679036E+02  0.91670341420E+02  0.76888739194E+02 0.  0.
         13    1    4    4    0    0  0.61370551561E-01 -0.48127192577E+02 -0.46979537915E+02  0.67255538169E+02  0.00000000000E+00 0. -1.
        -14    1    4    4    0    0  0.13812556199E+02  0.10628223313E+02  0.17097858879E+02  0.24414803251E+02  0.00000000000E+00 0.  1.
        -13    1    3    3    0    0 -0.28211490836E+02 -0.18670928232E+02  0.16300597538E+03  0.16647954765E+03  0.00000000000E+00 0. -1.
         13    1    3    3    0    0  0.36689418191E+02  0.51494093363E+02  0.31388444360E+03  0.32018931743E+03  0.00000000000E+00 0.  1.
         21    1    1    2  502  501 -0.22351854105E+02  0.46758041337E+01 -0.49648292917E+02  0.54648161139E+02  0.00000000000E+00 0. -1.
<scales pt_clust_5="13000.00000" pt_clust_6="13000.00000" pt_clust_7="13000.00000" pt_clust_8="13000.00000" pt_clust_9="22.83569"></scales>
<clustering>
<clus scale="   22.836">  2  9  1 -1</clus>
<clus scale="   76.889">  5  6 -1 -1</clus>
<clus scale="   84.016">  2  5  1 -1</clus>
<clus scale="   90.955">  7  8 -1 -1</clus>
<clus scale="   22.836">  2  5  1 -1</clus>
</clustering>
</event>
<event>
 9    1  0.2951046E-005  0.1093900E+03  0.7546771E-02  0.1266869E+00
         -2   -1    0    0    0  501 -0.00000000000E+00  0.00000000000E+00  0.29012631921E+03  0.29012631921E+03  0.00000000000E+00 0.  1.
          1   -1    0    0  502    0  0.00000000000E+00 -0.00000000000E+00 -0.72161740117E+02  0.72161740117E+02  0.00000000000E+00 0. -1.
        -24    2    1    2    0    0  0.19747036368E+02  0.65396467258E+02  0.17479996078E+03  0.20416306110E+03  0.80379635797E+02 0.  0.
         23    2    1    2    0    0  0.12781281576E+02 -0.29052654308E+02  0.91832039987E+01  0.98680059618E+02  0.92983896721E+02 0.  0.
         13    1    3    3    0    0  0.16475016639E+02 -0.16116684379E+02  0.28471158800E+02  0.36630323123E+02  0.00000000000E+00 0. -1.
        -14    1    3    3    0    0  0.32720197283E+01  0.81513151636E+02  0.14632880198E+03  0.16753273797E+03  0.00000000000E+00 0.  1.
        -13    1    4    4    0    0 -0.37105486624E+02 -0.25001323181E+02  0.17308886941E+02  0.47973751839E+02  0.00000000000E+00 0. -1.
         13    1    4    4    0    0  0.49886768200E+02 -0.40513311267E+01 -0.81256829425E+01  0.50706307779E+02  0.00000000000E+00 0.  1.
         21    1    1    2  502  501 -0.32528317944E+02 -0.36343812949E+02  0.33981414307E+02  0.59444938609E+02  0.00000000000E+00 0. -1.
<scales pt_clust_5="13000.00000" pt_clust_6="13000.00000" pt_clust_7="13000.00000" pt_clust_8="13000.00000" pt_clust_9="48.77463"></scales>
<clustering>
<clus scale="   48.775">  2  9  1 -1</clus>
<clus scale="   80.380">  5  6 -1 -1</clus>
<clus scale="   92.984">  7  8 -1 -1</clus>
<clus scale="   98.899">  1  5  2 -1</clus>
<clus scale="   48.775">  2  5  1 -1</clus>
</clustering>
</event>
<event>
 9    1  0.2951046E-005  0.1280393E+03  0.7546771E-02  0.1231421E+00
          1   -1    0    0  502    0  0.00000000000E+00  0.00000000000E+00  0.48765707710E+03  0.48765707710E+03  0.00000000000E+00 0. -1.
         -2   -1    0    0    0  501 -0.00000000000E+00 -0.00000000000E+00 -0.74985242887E+02  0.74985242887E+02  0.00000000000E+00 0.  1.
        -24    2    1    2    0    0 -0.92310692027E+02  0.43670806747E+00  0.10353941117E+02  0.12577959340E+03  0.84804760734E+02 0.  0.
         23    2    1    2    0    0  0.11153460480E+03  0.13110221504E+02  0.27980911835E+03  0.31211707330E+03  0.80697452006E+02 0.  0.
         13    1    3    3    0    0 -0.28040083763E+01 -0.27797017512E+02 -0.10126876624E+02  0.29716834887E+02  0.00000000000E+00 0. -1.
        -14    1    3    3    0    0 -0.89506683650E+02  0.28233725579E+02  0.20480817740E+02  0.96062758515E+02  0.00000000000E+00 0.  1.
        -11    1    4    4    0    0  0.44195121985E+02  0.16585790849E+01  0.30762103703E+02  0.53872689891E+02  0.00000000000E+00 0.  1.
         11    1    4    4    0    0  0.67339482811E+02  0.11451642419E+02  0.24904701464E+03  0.25824438341E+03  0.00000000000E+00 0. -1.
         21    1    1    2  502  501 -0.19223912769E+02 -0.13546929571E+02  0.12250877475E+03  0.12474565329E+03  0.00000000000E+00 0.  1.
<scales pt_clust_5="13000.00000" pt_clust_6="13000.00000" pt_clust_7="13000.00000" pt_clust_8="13000.00000" pt_clust_9="23.51761"></scales>
<clustering>
<clus scale="   23.518">  1  9  2 -1</clus>
<clus scale="   80.697">  7  8 -1 -1</clus>
<clus scale="   84.805">  5  6 -1 -1</clus>
<clus scale="  125.357">  1  7  2 -1</clus>
<clus scale="   23.518">  1  5  2 -1</clus>
</clustering>
</event>
<event>
 9    1  0.2951046E-005  0.8879329E+02  0.7546771E-02  0.1311239E+00
          1   -1    0    0  502    0  0.00000000000E+00  0.00000000000E+00  0.24399280969E+03  0.24399280969E+03  0.00000000000E+00 0. -1.
         -2   -1    0    0    0  501 -0.00000000000E+00 -0.00000000000E+00 -0.13096207208E+03  0.13096207208E+03  0.00000000000E+00 0.  1.
        -24    2    1    2    0    0  0.21594508636E+01 -0.62177631543E+00 -0.10344868087E+03  0.13100846718E+03  0.80352592152E+02 0.  0.
         23    2    1    2    0    0 -0.21526847226E+02 -0.70857212674E+01  0.17379071822E+03  0.19644034455E+03  0.88724194175E+02 0.  0.
         11    1    3    3    0    0 -0.98385071169E+01 -0.26013738209E+02 -0.45276939535E+01  0.28178197430E+02  0.00000000000E+00 0. -1.
        -12    1    3    3    0    0  0.11997957981E+02  0.25391961893E+02 -0.98920986915E+02  0.10283026975E+03  0.00000000000E+00 0.  1.
        -11    1    4    4    0    0  0.34097275387E+02  0.26454439792E+01  0.52616848078E+02  0.62754723044E+02  0.00000000000E+00 0.  1.
         11    1    4    4    0    0 -0.55624122613E+02 -0.97311652466E+01  0.12117387014E+03  0.13368562151E+03  0.00000000000E+00 0. -1.
         21    1    1    2  502  501  0.19367396363E+02  0.77074975828E+01  0.42688700261E+02  0.47506070042E+02  0.00000000000E+00 0.  1.
<scales pt_clust_5="13000.00000" pt_clust_6="13000.00000" pt_clust_7="13000.00000" pt_clust_8="13000.00000" pt_clust_9="20.84470"></scales>
<clustering>
<clus scale="   20.845">  1  9  2 -1</clus>
<clus scale="   80.353">  5  6 -1 -1</clus>
<clus scale="   80.429">  2  5  1 -1</clus>
<clus scale="   88.724">  7  8 -1 -1</clus>
<clus scale="   20.845">  1  5  2 -1</clus>
</clustering>
</event>
<event>
 9    1  0.2951046E-005  0.9570436E+02  0.7546771E-02  0.1294972E+00
          1   -1    0    0  502    0  0.00000000000E+00  0.00000000000E+00  0.72697189069E+02  0.72697189069E+02  0.00000000000E+00 0. -1.
         -2   -1    0    0    0  501 -0.00000000000E+00 -0.00000000000E+00 -0.32964053868E+03  0.32964053868E+03  0.00000000000E+00 0.  1.
        -24    2    1    2    0    0 -0.26901582251E+02  0.69495425806E+01 -0.27217669896E+03  0.28574270513E+03  0.82442384771E+02 0.  0.
         23    2    1    2    0    0  0.19057733782E+02  0.11639299016E+02  0.73815079085E+01  0.94945024826E+02  0.91985871642E+02 0.  0.
         13    1    3    3    0    0 -0.22504123479E+02  0.43959810463E+02 -0.14241939273E+03  0.15073879373E+03  0.00000000000E+00 0. -1.
        -14    1    3    3    0    0 -0.43974587723E+01 -0.37010267883E+02 -0.12975730623E+03  0.13500391140E+03  0.00000000000E+00 0.  1.
        -13    1    4    4    0    0 -0.22634158476E+02 -0.17126120287E+02 -0.22425404208E+02  0.36173303414E+02  0.00000000000E+00 0.  1.
         13    1    4    4    0    0  0.41691892259E+02  0.28765419303E+02  0.29806912116E+02  0.58771721412E+02  0.00000000000E+00 0. -1.
         21    1    1    2  502  501  0.78438484692E+01 -0.18588841596E+02  0.78518414385E+01  0.21649997799E+02  0.00000000000E+00 0. -1.
<scales pt_clust_5="13000.00000" pt_clust_6="13000.00000" pt_clust_7="13000.00000" pt_clust_8="13000.00000" pt_clust_9="20.17600"></scales>
<clustering>
<clus scale="   20.176">  1  9  2 -1</clus>
<clus scale="   82.442">  5  6 -1 -1</clus>
<clus scale="   86.572">  2  5  1 -1</clus>
<clus scale="   91.986">  7  8 -1 -1</clus>
<clus scale="   20.176">  1  5  2 -1</clus>
</clustering>
</event>
<event>
 9    1  0.2951046E-005  0.2523044E+03  0.7546771E-02  0.1113004E+00
          1   -1    0    0  502    0  0.00000000000E+00  0.00000000000E+00  0.11993148814E+03  0.11993148814E+03  0.00000000000E+00 0. -1.
         -2   -1    0    0    0  501 -0.00000000000E+00 -0.00000000000E+00 -0.65558960479E+03  0.65558960479E+03  0.00000000000E+00 0.  1.
        -24    2    1    2    0    0 -0.74168372313E+02 -0.21890618853E+03 -0.35035105912E+03  0.42544251675E+03  0.69531313822E+02 0.  0.
         23    2    1    2    0    0  0.48247693004E+02  0.23836691528E+03 -0.18233216657E+03  0.31752935994E+03  0.91832724466E+02 0.  0.
         13    1    3    3    0    0 -0.16841854511E+02 -0.14745889925E+03 -0.23794865575E+03  0.28044132685E+03  0.00000000000E+00 0. -1.
        -14    1    3    3    0    0 -0.57326517802E+02 -0.71447289288E+02 -0.11240240337E+03  0.14500118990E+03  0.00000000000E+00 0.  1.
        -11    1    4    4    0    0  0.26405785349E+02  0.20259423816E+03 -0.18487771258E+03  0.27553848995E+03  0.00000000000E+00 0.  1.
         11    1    4    4    0    0  0.21841907655E+02  0.35772677121E+02  0.25455460155E+01  0.41990869995E+02  0.00000000000E+00 0. -1.
         21    1    1    2  502  501  0.25920679309E+02 -0.19460726743E+02 -0.29748909638E+01  0.32549216234E+02  0.00000000000E+00 0. -1.
<scales pt_clust_5="13000.00000" pt_clust_6="13000.00000" pt_clust_7="13000.00000" pt_clust_8="13000.00000" pt_clust_9="32.41298"></scales>
<clustering>
<clus scale="   32.413">  1  9  2 -1</clus>
<clus scale="   69.531">  5  6 -1 -1</clus>
<clus scale="   91.833">  7  8 -1 -1</clus>
<clus scale="  245.069">  2  5  1 -1</clus>
<clus scale="   32.413">  1  5  2 -1</clus>
</clustering>
</event>
<event>
 9    1  0.2951046E-005  0.9969757E+02  0.7546771E-02  0.1290085E+00
          3   -1    0    0  502    0  0.00000000000E+00  0.00000000000E+00  0.26120856652E+03  0.26120856652E+03  0.00000000000E+00 0. -1.
         -4   -1    0    0    0  501 -0.00000000000E+00 -0.00000000000E+00 -0.49880883154E+02  0.49880883154E+02  0.00000000000E+00 0.  1.
         23    2    1    2    0    0 -0.10271250997E+02 -0.15918550658E+02  0.37591535906E+02  0.10604486921E+03  0.97331864577E+02 0.  0.
        -24    2    1    2    0    0 -0.38746274549E+01  0.30417133820E+02  0.12348642355E+03  0.15086571425E+03  0.81063877083E+02 0.  0.
         13    1    4    4    0    0  0.10520448350E+02  0.53424221378E+02  0.10420789566E+03  0.11757598726E+03  0.00000000000E+00 0. -1.
        -14    1    4    4    0    0 -0.14395075805E+02 -0.23007087558E+02  0.19278527892E+02  0.33289726989E+02  0.00000000000E+00 0.  1.
        -13    1    3    3    0    0  0.33464419443E+02  0.18652653101E+02 -0.85966100277E+00  0.38321375933E+02  0.00000000000E+00 0.  1.
         13    1    3    3    0    0 -0.43735670439E+02 -0.34571203759E+02  0.38451196909E+02  0.67723493278E+02  0.00000000000E+00 0. -1.
         21    1    1    2  502  501  0.14145878452E+02 -0.14498583162E+02  0.50249723908E+02  0.54178866209E+02  0.00000000000E+00 0. -1.
<scales pt_clust_5="13000.00000" pt_clust_6="13000.00000" pt_clust_7="13000.00000" pt_clust_8="13000.00000" pt_clust_9="20.25623"></scales>
<clustering>
<clus scale="   20.256">  1  9  2 -1</clus>
<clus scale="   81.064">  5  6 -1 -1</clus>
<clus scale="   83.890">  1  5  2 -1</clus>
<clus scale="   97.332">  7  8 -1 -1</clus>
<clus scale="   20.256">  1  5  2 -1</clus>
</clustering>
</event>
<event>
 9    1  0.2951046E-005  0.1303223E+03  0.7546771E-02  0.1229662E+00
         -2   -1    0    0    0  501 -0.00000000000E+00  0.00000000000E+00  0.93512350732E+02  0.93512350732E+02  0.00000000000E+00 0.  1.
          1   -1    0    0  502    0  0.00000000000E+00 -0.00000000000E+00 -0.25650353333E+03  0.25650353333E+03  0.00000000000E+00 0. -1.
        -24    2    1    2    0    0 -0.45833253529E+02 -0.56520843559E+02 -0.36465521137E+00  0.10797437986E+03  0.79768670839E+02 0.  0.
         23    2    1    2    0    0  0.59303972252E+02  0.85789388517E+02 -0.15759094416E+03  0.20943069180E+03  0.90274739984E+02 0.  0.
         11    1    3    3    0    0 -0.24797435634E+02 -0.34971904602E+01 -0.33637369892E+02  0.41935853495E+02  0.00000000000E+00 0. -1.
        -12    1    3    3    0    0 -0.21035817895E+02 -0.53023653099E+02  0.33272714680E+02  0.66038526366E+02  0.00000000000E+00 0.  1.
        -11    1    4    4    0    0 -0.11730420405E+02  0.59850699029E+02 -0.56122557985E+02  0.82882147969E+02  0.00000000000E+00 0.  1.
         11    1    4    4    0    0  0.71034392657E+02  0.25938689488E+02 -0.10146838618E+03  0.12654854383E+03  0.00000000000E+00 0. -1.
         21    1    1    2  502  501 -0.13470718723E+02 -0.29268544958E+02 -0.50355832234E+01  0.32610812398E+02  0.00000000000E+00 0.  1.
<scales pt_clust_5="13000.00000" pt_clust_6="13000.00000" pt_clust_7="13000.00000" pt_clust_8="13000.00000" pt_clust_9="32.21968"></scales>
<clustering>
<clus scale="   32.220">  1  9  2 -1</clus>
<clus scale="   79.769">  5  6 -1 -1</clus>
<clus scale="   90.275">  7  8 -1 -1</clus>
<clus scale="  123.278">  1  5  2 -1</clus>
<clus scale="  130.322">  2  5  1 -1</clus>
</clustering>
</event>
<event>
 9    1  0.2951046E-005  0.1204150E+03  0.7546771E-02  0.1245501E+00
          3   -1    0    0  502    0  0.00000000000E+00  0.00000000000E+00  0.42923347291E+03  0.42923347291E+03  0.00000000000E+00 0. -1.
         -4   -1    0    0    0  501 -0.00000000000E+00 -0.00000000000E+00 -0.20954803913E+03  0.20954803913E+03  0.00000000000E+00 0.  1.
         23    2    1    2    0    0  0.47836696649E+02  0.70410839962E+02 -0.17424564759E+03  0.21344573654E+03  0.89171188252E+02 0.  0.
        -24    2    1    2    0    0 -0.33416088747E+02 -0.35972283075E+02  0.13652438631E+03  0.16523545871E+03  0.79077232014E+02 0.  0.
         11    1    4    4    0    0 -0.44205357776E+02 -0.50208523661E+02  0.13003018495E+03  0.14622878821E+03  0.00000000000E+00 0. -1.
        -12    1    4    4    0    0  0.10789269029E+02  0.14236240587E+02  0.64942013571E+01  0.19006670500E+02  0.00000000000E+00 0.  1.
        -11    1    3    3    0    0  0.29988751123E+02  0.90110301912E+02 -0.11996702282E+03  0.15300744514E+03  0.00000000000E+00 0.  1.
         11    1    3    3    0    0  0.17847945525E+02 -0.19699461950E+02 -0.54278624770E+02  0.60438291401E+02  0.00000000000E+00 0. -1.
         21    1    1    2  502  501 -0.14420607902E+02 -0.34438556888E+02  0.25740669506E+03  0.26010031679E+03  0.00000000000E+00 0. -1.
<scales pt_clust_5="13000.00000" pt_clust_6="13000.00000" pt_clust_7="13000.00000" pt_clust_8="13000.00000" pt_clust_9="37.33588"></scales>
<clustering>
<clus scale="   37.336">  1  9  2 -1</clus>
<clus scale="   79.077">  5  6 -1 -1</clus>
<clus scale="   89.171">  7  8 -1 -1</clus>
<clus scale="  113.144">  1  5  2 -1</clus>
<clus scale="   37.336">  1  5  2 -1</clus>
</clustering>
</event>
<event>
 9    1  0.2951046E-005  0.9160779E+02  0.7546771E-02  0.1303531E+00
         -2   -1    0    0    0  501 -0.00000000000E+00  0.00000000000E+00  0.73518755662E+02  0.73518755662E+02  0.00000000000E+00 0.  1.
          1   -1    0    0  502    0  0.00000000000E+00 -0.00000000000E+00 -0.49940130004E+03  0.49940130004E+03  0.00000000000E+00 0. -1.
         23    2    1    2    0    0 -0.80343953873E+00 -0.24823231038E+02  0.31910656110E+02  0.97157490084E+02  0.88342795925E+02 0.  0.
        -24    2    1    2    0    0 -0.33852937953E+02  0.16410189949E+02 -0.37819385095E+03  0.38853928772E+03  0.80727154414E+02 0.  0.
         11    1    4    4    0    0 -0.53238323422E+02  0.29816531249E+02 -0.20945189444E+03  0.21815920952E+03  0.00000000000E+00 0. -1.
        -12    1    4    4    0    0  0.19385385469E+02 -0.13406341300E+02 -0.16874195652E+03  0.17038007819E+03  0.00000000000E+00 0.  1.
        -13    1    3    3    0    0 -0.43430989165E+01 -0.57868355720E+02  0.25130105886E+02  0.63238685342E+02  0.00000000000E+00 0.  1.
         13    1    3    3    0    0  0.35396593778E+01  0.33045124682E+02  0.67805502233E+01  0.33918804742E+02  0.00000000000E+00 0. -1.
         21    1    1    2  502  501  0.34656377492E+02  0.84130410888E+01 -0.79599349532E+02  0.87223277897E+02  0.00000000000E+00 0.  1.
<scales pt_clust_5="13000.00000" pt_clust_6="13000.00000" pt_clust_7="13000.00000" pt_clust_8="13000.00000" pt_clust_9="35.66292"></scales>
<clustering>
<clus scale="   35.663">  2  9  1 -1</clus>
<clus scale="   80.727">  5  6 -1 -1</clus>
<clus scale="   84.288">  2  5  1 -1</clus>
<clus scale="   88.343">  7  8 -1 -1</clus>
<clus scale="   35.663">  2  5  1 -1</clus>
</clustering>
</event>
<event>
 9    1  0.2951046E-005  0.1395442E+03  0.7546771E-02  0.1217193E+00
         -2   -1    0    0    0  501 -0.00000000000E+00  0.00000000000E+00  0.45311890585E+03  0.45311890585E+03  0.00000000000E+00 0.  1.
          1   -1    0    0  502    0  0.00000000000E+00 -0.00000000000E+00 -0.79815351344E+02  0.79815351344E+02  0.00000000000E+00 0. -1.
        -24    2    1    2    0    0 -0.96608760525E+02  0.41984113465E+02  0.30814743485E+03  0.33442657153E+03  0.76094492210E+02 0.  0.
         23    2    1    2    0    0  0.10669104632E+03 -0.21272835743E+02  0.87280419680E+02  0.16656877266E+03  0.91059164617E+02 0.  0.
         13    1    3    3    0    0 -0.25137625966E+02  0.45822922018E+02  0.82155576148E+02  0.97371346471E+02  0.00000000000E+00 0. -1.
        -14    1    3    3    0    0 -0.71471134560E+02 -0.38388085531E+01  0.22599185870E+03  0.23705522506E+03  0.00000000000E+00 0.  1.
        -11    1    4    4    0    0  0.74968518705E+02 -0.51652709236E+02  0.81641534238E+02  0.12228500023E+03  0.00000000000E+00 0.  1.
         11    1    4    4    0    0  0.31722527620E+02  0.30379873493E+02  0.56388854412E+01  0.44283772434E+02  0.00000000000E+00 0. -1.
         21    1    1    2  502  501 -0.10082285799E+02 -0.20711277722E+02 -0.22124300029E+02  0.31938912999E+02  0.00000000000E+00 0.  1.
<scales pt_clust_5="13000.00000" pt_clust_6="13000.00000" pt_clust_7="13000.00000" pt_clust_8="13000.00000" pt_clust_9="23.03496"></scales>
<clustering>
<clus scale="   23.035">  2  9  1 -1</clus>
<clus scale="   76.094">  5  6 -1 -1</clus>
<clus scale="   91.059">  7  8 -1 -1</clus>
<clus scale="  130.274">  1  5  2 -1</clus>
<clus scale="   23.035">  2  5  1 -1</clus>
</clustering>
</event>
<event>
 9    1  0.2951046E-005  0.1066043E+03  0.7546771E-02  0.1272396E+00
         -2   -1    0    0    0  501 -0.00000000000E+00  0.00000000000E+00  0.12692179444E+03  0.12692179444E+03  0.00000000000E+00 0.  1.
          1   -1    0    0  502    0  0.00000000000E+00 -0.00000000000E+00 -0.43406014117E+03  0.43406014117E+03  0.00000000000E+00 0. -1.
        -24    2    1    2    0    0 -0.46043324890E+02  0.39287628959E+02  0.77365201294E+02  0.12641039243E+03  0.79565742549E+02 0.  0.
         23    2    1    2    0    0 -0.45652599866E+01 -0.38844836835E+02 -0.86320535309E+02  0.13212397087E+03  0.92063814357E+02 0.  0.
         13    1    3    3    0    0 -0.23139232086E+02 -0.22188842347E+02  0.38721332743E+02  0.50270372941E+02  0.00000000000E+00 0. -1.
        -14    1    3    3    0    0 -0.22904092804E+02  0.61476471306E+02  0.38643868551E+02  0.76140019491E+02  0.00000000000E+00 0.  1.
        -11    1    4    4    0    0 -0.22932163376E+02 -0.50227358051E+01  0.12125283866E+02  0.26422234972E+02  0.00000000000E+00 0.  1.
         11    1    4    4    0    0  0.18366903389E+02 -0.33822101030E+02 -0.98445819174E+02  0.10570173589E+03  0.00000000000E+00 0. -1.
         21    1    1    2  502  501  0.50608584877E+02 -0.44279212419E+00 -0.29818301271E+03  0.30244757231E+03  0.00000000000E+00 0. -1.
<scales pt_clust_5="13000.00000" pt_clust_6="13000.00000" pt_clust_7="13000.00000" pt_clust_8="13000.00000" pt_clust_9="50.61052"></scales>
<clustering>
<clus scale="   50.611">  2  9  1 -1</clus>
<clus scale="   79.566">  5  6 -1 -1</clus>
<clus scale="   92.064">  7  8 -1 -1</clus>
<clus scale="   96.018">  1  5  2 -1</clus>
<clus scale="   50.611">  2  5  1 -1</clus>
</clustering>
</event>
<event>
 9    1  0.2951046E-005  0.9720138E+02  0.7546771E-02  0.1300375E+00
         -2   -1    0    0    0  501 -0.00000000000E+00  0.00000000000E+00  0.17769286883E+03  0.17769286883E+03  0.00000000000E+00 0.  1.
          1   -1    0    0  502    0  0.00000000000E+00 -0.00000000000E+00 -0.77543823759E+02  0.77543823759E+02  0.00000000000E+00 0. -1.
        -24    2    1    2    0    0  0.14841999845E+02 -0.34608386716E+01  0.10503627797E+03  0.12977351458E+03  0.74674513952E+02 0.  0.
         23    2    1    2    0    0  0.67049070600E+01 -0.61175522912E+01 -0.16894348480E+02  0.99002157707E+02  0.97126865467E+02 0.  0.
         11    1    3    3    0    0  0.20223617418E+02  0.20297226360E+02  0.80316759919E+01  0.29757014613E+02  0.00000000000E+00 0. -1.
        -12    1    3    3    0    0 -0.53816175733E+01 -0.23758065032E+02  0.97004601974E+02  0.10001649997E+03  0.00000000000E+00 0.  1.
        -13    1    4    4    0    0 -0.75214084712E+01  0.26569299475E+02 -0.45548534437E+02  0.53265075325E+02  0.00000000000E+00 0.  1.
         13    1    4    4    0    0  0.14226315531E+02 -0.32686851766E+02  0.28654185957E+02  0.45737082383E+02  0.00000000000E+00 0. -1.
         21    1    1    2  502  501 -0.21546906905E+02  0.95783909628E+01  0.12007115582E+02  0.26461020298E+02  0.00000000000E+00 0.  1.
<scales pt_clust_5="13000.00000" pt_clust_6="13000.00000" pt_clust_7="13000.00000" pt_clust_8="13000.00000" pt_clust_9="23.57997"></scales>
<clustering>
<clus scale="   23.580">  1  9  2 -1</clus>
<clus scale="   74.675">  5  6 -1 -1</clus>
<clus scale="   74.771">  1  5  2 -1</clus>
<clus scale="   97.127">  7  8 -1 -1</clus>
<clus scale="   97.201">  2  5  1 -1</clus>
</clustering>
</event>
<event>
 9    1  0.2951046E-005  0.1095765E+03  0.7546771E-02  0.1264931E+00
          1   -1    0    0  502    0  0.00000000000E+00  0.00000000000E+00  0.10248926462E+03  0.10248926462E+03  0.00000000000E+00 0. -1.
         -2   -1    0    0    0  501 -0.00000000000E+00 -0.00000000000E+00 -0.20929022973E+03  0.20929022973E+03  0.00000000000E+00 0.  1.
         23    2    1    2    0    0  0.71554900915E+02 -0.29057823787E+02 -0.12659029660E+03  0.17279042828E+03  0.88695929687E+02 0.  0.
        -24    2    1    2    0    0 -0.43335487366E+02 -0.98856738147E-01 -0.64581896307E+01  0.90663299803E+02  0.79373493560E+02 0.  0.
         11    1    4    4    0    0 -0.74075327946E+01  0.36928960543E+02  0.44587813829E+01  0.37927567814E+02  0.00000000000E+00 0. -1.
        -12    1    4    4    0    0 -0.35927954571E+02 -0.37027817281E+02 -0.10916971014E+02  0.52735731989E+02  0.00000000000E+00 0.  1.
        -13    1    3    3    0    0  0.26300851456E+02 -0.39958682881E+01  0.86664805971E+01  0.27978735436E+02  0.00000000000E+00 0. -1.
         13    1    3    3    0    0  0.45254049459E+02 -0.25061955499E+02 -0.13525677720E+03  0.14481169284E+03  0.00000000000E+00 0.  1.
         21    1    1    2  502  501 -0.28219413550E+02  0.29156680525E+02  0.26247521125E+02  0.48325766270E+02  0.00000000000E+00 0. -1.
<scales pt_clust_5="13000.00000" pt_clust_6="13000.00000" pt_clust_7="13000.00000" pt_clust_8="13000.00000" pt_clust_9="40.57644"></scales>
<clustering>
<clus scale="   40.576">  1  9  2 -1</clus>
<clus scale="   79.373">  5  6 -1 -1</clus>
<clus scale="   88.696">  7  8 -1 -1</clus>
<clus scale="  102.177">  1  5  2 -1</clus>
<clus scale="   40.576">  1  5  2 -1</clus>
</clustering>
</event>
<event>
 9    1  0.2951046E-005  0.1161849E+03  0.7546771E-02  0.1251732E+00
          1   -1    0    0  502    0  0.00000000000E+00  0.00000000000E+00  0.17392142248E+03  0.17392142248E+03  0.00000000000E+00 0. -1.
         -2   -1    0    0    0  501 -0.00000000000E+00 -0.00000000000E+00 -0.13645267586E+03  0.13645267586E+03  0.00000000000E+00 0.  1.
        -24    2    1    2    0    0  0.45876277893E+02 -0.50271826937E+02 -0.62692626898E+02  0.12524689111E+03  0.84406923939E+02 0.  0.
         23    2    1    2    0    0 -0.48332830275E+02  0.72021150435E+02  0.59647989457E+02  0.13907938415E+03  0.90896005723E+02 0.  0.
         11    1    3    3    0    0 -0.16073972523E+02 -0.12803873786E+02 -0.46814987146E+02  0.51126850070E+02  0.00000000000E+00 0. -1.
        -12    1    3    3    0    0  0.61950250416E+02 -0.37467953151E+02 -0.15877639752E+02  0.74120041042E+02  0.00000000000E+00 0.  1.
        -11    1    4    4    0    0 -0.33871127669E+02  0.92461718907E+02  0.57304566789E+02  0.11393083923E+03  0.00000000000E+00 0. -1.
         11    1    4    4    0    0 -0.14461702606E+02 -0.20440568472E+02  0.23434226682E+01  0.25148544918E+02  0.00000000000E+00 0.  1.
         21    1    1    2  502  501  0.24565523817E+01 -0.21749323498E+02  0.40513384065E+02  0.46047823082E+02  0.00000000000E+00 0. -1.
<scales pt_clust_5="13000.00000" pt_clust_6="13000.00000" pt_clust_7="13000.00000" pt_clust_8="13000.00000" pt_clust_9="21.88762"></scales>
<clustering>
<clus scale="   21.888">  1  9  2 -1</clus>
<clus scale="   84.407">  5  6 -1 -1</clus>
<clus scale="   90.896">  7  8 -1 -1</clus>
<clus scale="  111.182">  2  5  1 -1</clus>
<clus scale="   21.888">  1  5  2 -1</clus>
</clustering>
</event>
<event>
 9    1  0.2951046E-005  0.1180699E+03  0.7546771E-02  0.1246428E+00
          1   -1    0    0  502    0  0.00000000000E+00  0.00000000000E+00  0.48691684578E+03  0.48691684578E+03  0.00000000000E+00 0. -1.
         -2   -1    0    0    0  501 -0.00000000000E+00 -0.00000000000E+00 -0.17219344848E+03  0.17219344848E+03  0.00000000000E+00 0.  1.
        -24    2    1    2    0    0 -0.55837674916E+02 -0.47138215249E+02 -0.52715561814E+02  0.12310667890E+03  0.83883649514E+02 0.  0.
         23    2    1    2    0    0  0.33573183963E+02  0.10092066748E+03 -0.26105221708E+02  0.13817792239E+03  0.84258624666E+02 0.  0.
         11    1    3    3    0    0 -0.34308365058E+02 -0.67625664733E+02 -0.54421853198E+02  0.93338269477E+02  0.00000000000E+00 0. -1.
        -12    1    3    3    0    0 -0.21529309858E+02  0.20487449484E+02  0.17062913845E+01  0.29768409423E+02  0.00000000000E+00 0.  1.
        -13    1    4    4    0    0 -0.14981329748E+02  0.60606555425E+02 -0.39209867359E+02  0.73722510130E+02  0.00000000000E+00 0.  1.
         13    1    4    4    0    0  0.48554513711E+02  0.40314112052E+02  0.13104645651E+02  0.64455412262E+02  0.00000000000E+00 0. -1.
         21    1    1    2  502  501  0.22264490953E+02 -0.53782452228E+02  0.39354418082E+03  0.39782569296E+03  0.00000000000E+00 0. -1.
<scales pt_clust_5="13000.00000" pt_clust_6="13000.00000" pt_clust_7="13000.00000" pt_clust_8="13000.00000" pt_clust_9="58.20876"></scales>
<clustering>
<clus scale="   58.209">  1  9  2 -1</clus>
<clus scale="   83.884">  5  6 -1 -1</clus>
<clus scale="   84.259">  7  8 -1 -1</clus>
<clus scale="  117.803">  2  5  1 -1</clus>
<clus scale="   58.209">  1  5  2 -1</clus>
</clustering>
</event>
<event>
 9    1  0.2951046E-005  0.9744172E+02  0.7546771E-02  0.1290024E+00
         -4   -1    0    0    0  501 -0.00000000000E+00  0.00000000000E+00  0.33568997381E+02  0.33568997381E+02  0.00000000000E+00 0.  1.
          3   -1    0    0  502    0  0.00000000000E+00 -0.00000000000E+00 -0.53089356855E+03  0.53089356855E+03  0.00000000000E+00 0. -1.
        -24    2    1    2    0    0 -0.82704729102E+01 -0.30867001794E+02 -0.83098272138E+02  0.12137206617E+03  0.82490503045E+02 0.  0.
         23    2    1    2    0    0 -0.35730239976E+02  0.48748450751E+02 -0.26565061518E+03  0.28710799182E+03  0.90596291988E+02 0.  0.
         13    1    3    3    0    0 -0.49627226965E+01  0.20499739348E+02 -0.62443442459E+02  0.65909418416E+02  0.00000000000E+00 0. -1.
        -14    1    3    3    0    0 -0.33077502136E+01 -0.51366741142E+02 -0.20654829679E+02  0.55462647756E+02  0.00000000000E+00 0.  1.
        -13    1    4    4    0    0 -0.50039473398E+02 -0.59206478645E+01 -0.15289073669E+03  0.16098006192E+03  0.00000000000E+00 0.  1.
         13    1    4    4    0    0  0.14309233422E+02  0.54669098616E+02 -0.11275987849E+03  0.12612792990E+03  0.00000000000E+00 0. -1.
         21    1    1    2  502  501  0.44000712886E+02 -0.17881448957E+02 -0.14857568386E+03  0.15598250794E+03  0.00000000000E+00 0. -1.
<scales pt_clust_5="13000.00000" pt_clust_6="13000.00000" pt_clust_7="13000.00000" pt_clust_8="13000.00000" pt_clust_9="47.49536"></scales>
<clustering>
<clus scale="   47.495">  2  9  1 -1</clus>
<clus scale="   82.491">  5  6 -1 -1</clus>
<clus scale="   89.955">  1  5  2 -1</clus>
<clus scale="   90.596">  7  8 -1 -1</clus>
<clus scale="   47.495">  2  5  1 -1</clus>
</clustering>
</event>
<event>
 9    1  0.2951046E-005  0.9826491E+02  0.7546771E-02  0.1287028E+00
         -2   -1    0    0    0  501 -0.00000000000E+00  0.00000000000E+00  0.23736038539E+02  0.23736038539E+02  0.00000000000E+00 0.  1.
          1   -1    0    0  502    0  0.00000000000E+00 -0.00000000000E+00 -0.68086725433E+03  0.68086725433E+03  0.00000000000E+00 0. -1.
         23    2    1    2    0    0 -0.29594610139E+02 -0.44455268154E+02 -0.16226746725E+03  0.19405461616E+03  0.92056239923E+02 0.  0.
        -24    2    1    2    0    0  0.71582674601E+01  0.28477603944E+02 -0.43801938419E+03  0.44738257041E+03  0.86185663914E+02 0.  0.
         11    1    4    4    0    0  0.46145953512E+02  0.23230562713E+02 -0.25582301620E+03  0.26098759297E+03  0.00000000000E+00 0. -1.
        -12    1    4    4    0    0 -0.38987686052E+02  0.52470412310E+01 -0.18219636799E+03  0.18639497744E+03  0.00000000000E+00 0.  1.
        -13    1    3    3    0    0 -0.53329146663E+02  0.11201926846E+01 -0.65332520861E+02  0.84342106907E+02  0.00000000000E+00 0.  1.
         13    1    3    3    0    0  0.23734536524E+02 -0.45575460839E+02 -0.96934946393E+02  0.10971250925E+03  0.00000000000E+00 0. -1.
         21    1    1    2  502  501  0.22436342679E+02  0.15977664210E+02 -0.56844364350E+02  0.63166106297E+02  0.00000000000E+00 0.  1.
<scales pt_clust_5="13000.00000" pt_clust_6="13000.00000" pt_clust_7="13000.00000" pt_clust_8="13000.00000" pt_clust_9="27.54406"></scales>
<clustering>
<clus scale="   27.544">  1  9  2 -1</clus>
<clus scale="   86.186">  5  6 -1 -1</clus>
<clus scale="   92.056">  7  8 -1 -1</clus>
<clus scale="   92.788">  2  5  1 -1</clus>
<clus scale="   92.788">  2  5  1 -1</clus>
</clustering>
</event>
<event>
 9    1  0.2951046E-005  0.2212455E+03  0.7546771E-02  0.1133784E+00
          3   -1    0    0  502    0  0.00000000000E+00  0.00000000000E+00  0.22353383714E+03  0.22353383714E+03  0.00000000000E+00 0. -1.
         -4   -1    0    0    0  501 -0.00000000000E+00 -0.00000000000E+00 -0.27383417405E+03  0.27383417405E+03  0.00000000000E+00 0.  1.
         23    2    1    2    0    0 -0.20190854591E+03 -0.20919212437E+02 -0.10837340369E+03  0.24780870000E+03  0.91976534019E+02 0.  0.
        -24    2    1    2    0    0  0.19597472579E+03  0.43989132158E+02  0.62509687705E+02  0.22532885469E+03  0.80774344957E+02 0.  0.
         13    1    4    4    0    0  0.16975139659E+03  0.70138128150E+01  0.59054411877E+02  0.17986704472E+03  0.00000000000E+00 0. -1.
        -14    1    4    4    0    0  0.26223329201E+02  0.36975319343E+02  0.34552758274E+01  0.45461809972E+02  0.00000000000E+00 0.  1.
        -13    1    3    3    0    0 -0.64847084363E+02  0.28957046467E+02 -0.96194741152E+01  0.71667211280E+02  0.00000000000E+00 0. -1.
         13    1    3    3    0    0 -0.13706146155E+03 -0.49876258904E+02 -0.98753929570E+02  0.17614148872E+03  0.00000000000E+00 0.  1.
         21    1    1    2  502  501  0.59338201212E+01 -0.23069919721E+02 -0.44366209261E+01  0.24230456504E+02  0.00000000000E+00 0.  1.
<scales pt_clust_5="13000.00000" pt_clust_6="13000.00000" pt_clust_7="13000.00000" pt_clust_8="13000.00000" pt_clust_9="23.82082"></scales>
<clustering>
<clus scale="   23.821">  2  9  1 -1</clus>
<clus scale="   80.774">  5  6 -1 -1</clus>
<clus scale="   91.977">  7  8 -1 -1</clus>
<clus scale="  216.828">  1  5  2 -1</clus>
<clus scale="  216.828">  1  5  2 -1</clus>
</clustering>
</event>
<event>
 9    1  0.2951046E-005  0.1050090E+03  0.7546771E-02  0.1271260E+00
          1   -1    0    0  502    0  0.00000000000E+00  0.00000000000E+00  0.37475026302E+03  0.37475026302E+03  0.00000000000E+00 0. -1.
         -2   -1    0    0    0  501 -0.00000000000E+00 -0.00000000000E+00 -0.20605305778E+03  0.20605305778E+03  0.00000000000E+00 0.  1.
        -24    2    1    2    0    0  0.58616217709E+02 -0.26586727335E+02 -0.17486688083E+03  0.20365896222E+03  0.82193867361E+02 0.  0.
         23    2    1    2    0    0 -0.38131998098E+02 -0.28034936118E+01  0.12664425148E+03  0.15728621572E+03  0.85078072191E+02 0.  0.
         13    1    3    3    0    0  0.44240847567E+02 -0.30894482768E+02 -0.38062396366E+02  0.66033837357E+02  0.00000000000E+00 0. -1.
        -14    1    3    3    0    0  0.14375370142E+02  0.43077554334E+01 -0.13680448447E+03  0.13762512486E+03  0.00000000000E+00 0.  1.
        -11    1    4    4    0    0  0.27502838058E+02  0.99869051753E+00  0.38369394517E+02  0.47218787782E+02  0.00000000000E+00 0.  1.
         11    1    4    4    0    0 -0.65634836156E+02 -0.38021841293E+01  0.88274856959E+02  0.11006742794E+03  0.00000000000E+00 0. -1.
         21    1    1    2  502  501 -0.20484219611E+02  0.29390220947E+02  0.21691983460E+03  0.21985814286E+03  0.00000000000E+00 0. -1.
<scales pt_clust_5="13000.00000" pt_clust_6="13000.00000" pt_clust_7="13000.00000" pt_clust_8="13000.00000" pt_clust_9="35.82441"></scales>
<clustering>
<clus scale="   35.824">  1  9  2 -1</clus>
<clus scale="   82.194">  5  6 -1 -1</clus>
<clus scale="   85.078">  7  8 -1 -1</clus>
<clus scale="  102.686">  2  5  1 -1</clus>
<clus scale="   35.824">  1  5  2 -1</clus>
</clustering>
</event>
<event>
 9    1  0.2951046E-005  0.1420020E+03  0.7546771E-02  0.1214001E+00
          3   -1    0    0  502    0  0.00000000000E+00  0.00000000000E+00  0.67570292254E+02  0.67570292254E+02  0.00000000000E+00 0. -1.
         -4   -1    0    0    0  501 -0.00000000000E+00 -0.00000000000E+00 -0.42520151213E+03  0.42520151213E+03  0.00000000000E+00 0.  1.
         23    2    1    2    0    0  0.87200808607E+02 -0.65695698625E+02 -0.28562212878E+03  0.32031236238E+03  0.95394461092E+02 0.  0.
        -24    2    1    2    0    0 -0.67406356273E+02  0.71324577748E+02 -0.80570176235E+02  0.15017050299E+03  0.80179887838E+02 0.  0.
         13    1    4    4    0    0 -0.76334829915E+02  0.70022972461E+02 -0.44070109268E+02  0.11257174362E+03  0.00000000000E+00 0. -1.
        -14    1    4    4    0    0  0.89284736416E+01  0.13016052865E+01 -0.36500066967E+02  0.37598759374E+02  0.00000000000E+00 0.  1.
        -13    1    3    3    0    0  0.32807131854E+02 -0.70863865621E+02 -0.22755206530E+03  0.24057834020E+03  0.00000000000E+00 0.  1.
         13    1    3    3    0    0  0.54393676753E+02  0.51681669962E+01 -0.58070063479E+02  0.79734022181E+02  0.00000000000E+00 0. -1.
         21    1    1    2  502  501 -0.19794452334E+02 -0.56288791227E+01  0.85610851390E+01  0.22288939009E+02  0.00000000000E+00 0. -1.
<scales pt_clust_5="13000.00000" pt_clust_6="13000.00000" pt_clust_7="13000.00000" pt_clust_8="13000.00000" pt_clust_9="20.57923"></scales>
<clustering>
<clus scale="   20.579">  1  9  2 -1</clus>
<clus scale="   80.180">  5  6 -1 -1</clus>
<clus scale="   95.394">  7  8 -1 -1</clus>
<clus scale="  132.262">  1  5  2 -1</clus>
<clus scale="   20.579">  1  5  2 -1</clus>
</clustering>
</event>
<event>
 9    1  0.2951046E-005  0.1391580E+03  0.7546771E-02  0.1216735E+00
          1   -1    0    0  502    0  0.00000000000E+00  0.00000000000E+00  0.10814584438E+03  0.10814584438E+03  0.00000000000E+00 0. -1.
         -2   -1    0    0    0  501 -0.00000000000E+00 -0.00000000000E+00 -0.25409943365E+03  0.25409943365E+03  0.00000000000E+00 0.  1.
        -24    2    1    2    0    0 -0.10283445315E+03 -0.29797138519E+02 -0.10401800300E+03  0.16967064235E+03  0.80657223540E+02 0.  0.
         23    2    1    2    0    0  0.10715230901E+03 -0.13813499618E+02 -0.46042259327E+02  0.14855877034E+03  0.90980154442E+02 0.  0.
         11    1    3    3    0    0 -0.57846260014E+02 -0.55421927779E+02 -0.47997600302E+02  0.93389236592E+02  0.00000000000E+00 0. -1.
        -12    1    3    3    0    0 -0.44988193134E+02  0.25624789260E+02 -0.56020402696E+02  0.76281405758E+02  0.00000000000E+00 0.  1.
        -11    1    4    4    0    0  0.48537648586E+02 -0.77291777380E+01 -0.69507690873E+02  0.85129093788E+02  0.00000000000E+00 0.  1.
         11    1    4    4    0    0  0.58614660428E+02 -0.60843218804E+01  0.23465431546E+02  0.63429676552E+02  0.00000000000E+00 0. -1.
         21    1    1    2  502  501 -0.43178558649E+01  0.43610638138E+02  0.41066730527E+01  0.44015865340E+02  0.00000000000E+00 0. -1.
<scales pt_clust_5="13000.00000" pt_clust_6="13000.00000" pt_clust_7="13000.00000" pt_clust_8="13000.00000" pt_clust_9="43.82387"></scales>
<clustering>
<clus scale="   43.824">  1  9  2 -1</clus>
<clus scale="   80.657">  5  6 -1 -1</clus>
<clus scale="   90.980">  7  8 -1 -1</clus>
<clus scale="  132.639">  2  5  1 -1</clus>
<clus scale="   43.824">  1  5  2 -1</clus>
</clustering>
</event>
<event>
 9    1  0.2951046E-005  0.9137521E+02  0.7546771E-02  0.1307579E+00
          1   -1    0    0  502    0  0.00000000000E+00  0.00000000000E+00  0.16281844194E+03  0.16281844194E+03  0.00000000000E+00 0. -1.
         -2   -1    0    0    0  501 -0.00000000000E+00 -0.00000000000E+00 -0.82604537726E+02  0.82604537726E+02  0.00000000000E+00 0.  1.
        -24    2    1    2    0    0  0.90557449125E+00  0.17273257881E+02 -0.19494711840E+02  0.82713695333E+02  0.78500484730E+02 0.  0.
         23    2    1    2    0    0  0.94559587083E+01  0.11300458587E+01  0.10657995015E+03  0.14049986761E+03  0.91050726894E+02 0.  0.
         13    1    3    3    0    0 -0.36777776862E+02  0.21270936930E+02 -0.99624516611E+01  0.43638378429E+02  0.00000000000E+00 0. -1.
        -14    1    3    3    0    0  0.37683351353E+02 -0.39976790490E+01 -0.95322601790E+01  0.39075316904E+02  0.00000000000E+00 0.  1.
        -13    1    4    4    0    0 -0.22930646553E+02 -0.29770498729E+02  0.18919790702E+02  0.42072029023E+02  0.00000000000E+00 0.  1.
         13    1    4    4    0    0  0.32386605261E+02  0.30900544588E+02  0.87660159443E+02  0.98427838592E+02  0.00000000000E+00 0. -1.
         21    1    1    2  502  501 -0.10361533200E+02 -0.18403303740E+02 -0.68713340903E+01  0.22209416718E+02  0.00000000000E+00 0.  1.
<scales pt_clust_5="13000.00000" pt_clust_6="13000.00000" pt_clust_7="13000.00000" pt_clust_8="13000.00000" pt_clust_9="21.11973"></scales>
<clustering>
<clus scale="   21.120">  2  9  1 -1</clus>
<clus scale="   78.500">  5  6 -1 -1</clus>
<clus scale="   78.877">  2  5  1 -1</clus>
<clus scale="   91.051">  7  8 -1 -1</clus>
<clus scale="   91.375">  1  5  2 -1</clus>
</clustering>
</event>
<event>
 9    1  0.2951046E-005  0.1439419E+03  0.7546771E-02  0.1210301E+00
         -2   -1    0    0    0  501 -0.00000000000E+00  0.00000000000E+00  0.68541530296E+02  0.68541530296E+02  0.00000000000E+00 0.  1.
          1   -1    0    0  502    0  0.00000000000E+00 -0.00000000000E+00 -0.34368471537E+03  0.34368471537E+03  0.00000000000E+00 0. -1.
        -24    2    1    2    0    0  0.11734051063E+03  0.26210344308E+02 -0.95835903543E+02  0.17278862334E+03  0.78839142332E+02 0.  0.
         23    2    1    2    0    0 -0.10232897710E+03 -0.11630412148E+02 -0.14479743585E+03  0.19907860834E+03  0.89774767236E+02 0.  0.
         13    1    3    3    0    0  0.36478109287E+02 -0.23275324150E+01  0.87083356840E+01  0.37575324013E+02  0.00000000000E+00 0. -1.
        -14    1    3    3    0    0  0.80862401341E+02  0.28537876723E+02 -0.10454423923E+03  0.13521329932E+03  0.00000000000E+00 0.  1.
        -13    1    4    4    0    0 -0.70825764827E+02 -0.47193692848E+02 -0.68739395244E+02  0.10940127086E+03  0.00000000000E+00 0.  1.
         13    1    4    4    0    0 -0.31503212268E+02  0.35563280700E+02 -0.76058040601E+02  0.89677337480E+02  0.00000000000E+00 0. -1.
         21    1    1    2  502  501 -0.15011533533E+02 -0.14579932160E+02 -0.34509845688E+02  0.40359013990E+02  0.00000000000E+00 0.  1.
<scales pt_clust_5="13000.00000" pt_clust_6="13000.00000" pt_clust_7="13000.00000" pt_clust_8="13000.00000" pt_clust_9="20.92655"></scales>
<clustering>
<clus scale="   20.927">  2  9  1 -1</clus>
<clus scale="   78.839">  5  6 -1 -1</clus>
<clus scale="   89.775">  7  8 -1 -1</clus>
<clus scale="  137.388">  1  5  2 -1</clus>
<clus scale="   20.927">  2  5  1 -1</clus>
</clustering>
</event>
<event>
 9    1  0.2951046E-005  0.1001834E+03  0.7546771E-02  0.1296958E+00
          1   -1    0    0  502    0  0.00000000000E+00  0.00000000000E+00  0.51712260955E+02  0.51712260955E+02  0.00000000000E+00 0. -1.
         -2   -1    0    0    0  501 -0.00000000000E+00 -0.00000000000E+00 -0.38943584577E+03  0.38943584577E+03  0.00000000000E+00 0.  1.
         23    2    1    2    0    0  0.10396920367E+02 -0.59359068183E-01 -0.33073780157E+03  0.34567146073E+03  0.99965823636E+02 0.  0.
        -24    2    1    2    0    0  0.11151906292E+02 -0.33005245190E+01 -0.41711161546E+01  0.73486577808E+02  0.72440461291E+02 0.  0.
         13    1    4    4    0    0 -0.87000930755E+00 -0.35766640368E+02 -0.12465075086E+02  0.37886509160E+02  0.00000000000E+00 0. -1.
        -14    1    4    4    0    0  0.12021915599E+02  0.32466115849E+02  0.82939589317E+01  0.35600068648E+02  0.00000000000E+00 0.  1.
        -13    1    3    3    0    0  0.53043722751E+02  0.10434504774E-02 -0.12908733802E+03  0.13956065836E+03  0.00000000000E+00 0.  1.
         13    1    3    3    0    0 -0.42646802383E+02 -0.60402518660E-01 -0.20165046355E+03  0.20611080237E+03  0.00000000000E+00 0. -1.
         21    1    1    2  502  501 -0.21548826659E+02  0.33598835872E+01 -0.28146670848E+01  0.21990068187E+02  0.00000000000E+00 0. -1.
<scales pt_clust_5="13000.00000" pt_clust_6="13000.00000" pt_clust_7="13000.00000" pt_clust_8="13000.00000" pt_clust_9="21.80919"></scales>
<clustering>
<clus scale="   21.809">  1  9  2 -1</clus>
<clus scale="   72.440">  5  6 -1 -1</clus>
<clus scale="   72.740">  1  5  2 -1</clus>
<clus scale="   99.966">  7  8 -1 -1</clus>
<clus scale="   21.809">  1  5  2 -1</clus>
</clustering>
</event>
<event>
 9    1  0.2951046E-005  0.1362863E+03  0.7546771E-02  0.1221369E+00
         -2   -1    0    0    0  501 -0.00000000000E+00  0.00000000000E+00  0.54826613547E+03  0.54826613547E+03  0.00000000000E+00 0.  1.
          1   -1    0    0  502    0  0.00000000000E+00 -0.00000000000E+00 -0.11732642358E+03  0.11732642358E+03  0.00000000000E+00 0. -1.
         23    2    1    2    0    0  0.11416288371E+03  0.28639630612E+02  0.39209214406E+03  0.41961157243E+03  0.92109879052E+02 0.  0.
        -24    2    1    2    0    0 -0.74985319688E+02  0.53141665309E+01  0.11184067825E+03  0.15645034364E+03  0.79481659382E+02 0.  0.
         11    1    4    4    0    0 -0.87763140907E+02 -0.33324918583E+01  0.71469410693E+02  0.11323140496E+03  0.00000000000E+00 0. -1.
        -12    1    4    4    0    0  0.12777821219E+02  0.86466583892E+01  0.40371267560E+02  0.43218938682E+02  0.00000000000E+00 0.  1.
        -11    1    3    3    0    0  0.96528406151E+02 -0.48475920666E+01  0.18134103831E+03  0.20548918346E+03  0.00000000000E+00 0. -1.
         11    1    3    3    0    0  0.17634477563E+02  0.33487222679E+02  0.21075110575E+03  0.21412238897E+03  0.00000000000E+00 0.  1.
         21    1    1    2  502  501 -0.39177564026E+02 -0.33953797143E+02 -0.72993110421E+02  0.89530642980E+02  0.00000000000E+00 0. -1.
<scales pt_clust_5="13000.00000" pt_clust_6="13000.00000" pt_clust_7="13000.00000" pt_clust_8="13000.00000" pt_clust_9="51.84344"></scales>
<clustering>
<clus scale="   51.843">  2  9  1 -1</clus>
<clus scale="   79.482">  5  6 -1 -1</clus>
<clus scale="   92.110">  7  8 -1 -1</clus>
<clus scale="  128.090">  2  5  1 -1</clus>
<clus scale="   51.843">  2  5  1 -1</clus>
</clustering>
</event>
<event>
 9    1  0.3066930E-005  0.1718042E+03  0.7546771E-02  0.1177234E+00
          1   -1    0    0  502    0  0.00000000000E+00  0.00000000000E+00  0.35515239765E+03  0.35515239765E+03  0.00000000000E+00 0. -1.
         -2   -1    0    0    0  501 -0.00000000000E+00 -0.00000000000E+00 -0.24841786016E+03  0.24841786016E+03  0.00000000000E+00 0.  1.
         23    2    1    2    0    0 -0.14053493207E+03 -0.31233789353E+02 -0.18130849220E+03  0.24904213381E+03  0.91780163099E+02 0.  0.
        -24    2    1    2    0    0  0.15663597694E+03  0.17024345631E+02  0.27980341518E+03  0.33152718523E+03  0.82435828308E+02 0.  0.
         13    1    4    4    0    0  0.13370460974E+03 -0.44237537830E+01  0.26491680034E+03  0.29677837416E+03  0.00000000000E+00 0. -1.
        -14    1    4    4    0    0  0.22931367198E+02  0.21448099414E+02  0.14886614835E+02  0.34748811077E+02  0.00000000000E+00 0.  1.
        -11    1    3    3    0    0 -0.71963756557E+02 -0.27813112978E+02 -0.15920719566E+03  0.17691603280E+03  0.00000000000E+00 0.  1.
         11    1    3    3    0    0 -0.68571175516E+02 -0.34206763744E+01 -0.22101296544E+02  0.72126101014E+02  0.00000000000E+00 0. -1.
         21    1    1    2  502  501 -0.16101044862E+02  0.14209443721E+02  0.82396145201E+01  0.23000938763E+02  0.00000000000E+00 0. -1.
<scales pt_clust_5="13000.00000" pt_clust_6="13000.00000" pt_clust_7="13000.00000" pt_clust_8="13000.00000" pt_clust_9="21.47445"></scales>
<clustering>
<clus scale="   21.474">  1  9  2 -1</clus>
<clus scale="   82.436">  5  6 -1 -1</clus>
<clus scale="   91.780">  7  8 -1 -1</clus>
<clus scale="  166.999">  1  5  2 -1</clus>
<clus scale="   21.474">  1  5  2 -1</clus>
</clustering>
</event>
<event>
 9    1  0.2951046E-005  0.1085089E+03  0.7546771E-02  0.1266080E+00
         -2   -1    0    0    0  501 -0.00000000000E+00  0.00000000000E+00  0.54362691477E+02  0.54362691477E+02  0.00000000000E+00 0.  1.
          1   -1    0    0  502    0  0.00000000000E+00 -0.00000000000E+00 -0.45507294784E+03  0.45507294784E+03  0.00000000000E+00 0. -1.
         23    2    1    2    0    0  0.57583263350E+01  0.34548434292E+02 -0.11661845369E+02  0.96238431892E+02  0.88876793942E+02 0.  0.
        -24    2    1    2    0    0 -0.90140631840E+01 -0.54308649250E+02 -0.36814317921E+03  0.38424734329E+03  0.95320185206E+02 0.  0.
         11    1    4    4    0    0  0.30890313283E+02 -0.61439183262E+02 -0.25289644209E+03  0.26207936797E+03  0.00000000000E+00 0. -1.
        -12    1    4    4    0    0 -0.39904376467E+02  0.71305340114E+01 -0.11524673712E+03  0.12216797532E+03  0.00000000000E+00 0.  1.
        -11    1    3    3    0    0  0.40987370563E+02  0.30785013435E+02 -0.26643474597E+02  0.57771587622E+02  0.00000000000E+00 0.  1.
         11    1    3    3    0    0 -0.35229044228E+02  0.37634208572E+01  0.14981629228E+02  0.38466844269E+02  0.00000000000E+00 0. -1.
         21    1    1    2  502  501  0.32557368490E+01  0.19760214958E+02 -0.20905231790E+02  0.28949864141E+02  0.00000000000E+00 0. -1.
<scales pt_clust_5="13000.00000" pt_clust_6="13000.00000" pt_clust_7="13000.00000" pt_clust_8="13000.00000" pt_clust_9="20.02663"></scales>
<clustering>
<clus scale="   20.027">  1  9  2 -1</clus>
<clus scale="   88.877">  7  8 -1 -1</clus>
<clus scale="   95.320">  5  6 -1 -1</clus>
<clus scale="  102.895">  1  7  2 -1</clus>
<clus scale="  108.509">  2  5  1 -1</clus>
</clustering>
</event>
<event>
 9    1  0.2951046E-005  0.2066112E+03  0.7546771E-02  0.1160893E+00
         -2   -1    0    0    0  501 -0.00000000000E+00  0.00000000000E+00  0.56262243678E+02  0.56262243678E+02  0.00000000000E+00 0.  1.
          1   -1    0    0  502    0  0.00000000000E+00 -0.00000000000E+00 -0.18174787633E+04  0.18174787633E+04  0.00000000000E+00 0. -1.
        -24    2    1    2    0    0 -0.42034645176E+02 -0.10637206175E+03 -0.21422392451E+03  0.25570733830E+03  0.80077625538E+02 0.  0.
         23    2    1    2    0    0 -0.11392336715E+03 -0.30008350932E+02 -0.17241979731E+03  0.22793550846E+03  0.91361779784E+02 0.  0.
         11    1    3    3    0    0 -0.25781146000E+02 -0.22247884155E+02 -0.12041734306E+02  0.36119789639E+02  0.00000000000E+00 0. -1.
        -12    1    3    3    0    0 -0.16253499176E+02 -0.84124177600E+02 -0.20218219020E+03  0.21958754866E+03  0.00000000000E+00 0.  1.
        -11    1    4    4    0    0 -0.83027541369E+02  0.16722883729E+02 -0.64917966966E+02  0.10671255737E+03  0.00000000000E+00 0.  1.
         11    1    4    4    0    0 -0.30895825781E+02 -0.46731234660E+02 -0.10750183035E+03  0.12122295109E+03  0.00000000000E+00 0. -1.
         21    1    1    2  502  501  0.15595801233E+03  0.13638041269E+03 -0.13745727978E+04  0.13900981602E+04  0.00000000000E+00 0. -1.
<scales pt_clust_5="13000.00000" pt_clust_6="13000.00000" pt_clust_7="13000.00000" pt_clust_8="13000.00000" pt_clust_9="185.31378"></scales>
<clustering>
<clus scale="   80.078">  5  6 -1 -1</clus>
<clus scale="   91.362">  7  8 -1 -1</clus>
<clus scale="  139.622">  1  5  2 -1</clus>
<clus scale="  185.314">  2  9  1 -1</clus>
<clus scale="  185.314">  2  5  1 -1</clus>
</clustering>
</event>
<event>
 9    1  0.2951046E-005  0.1135679E+03  0.7546771E-02  0.1261036E+00
         -2   -1    0    0    0  501 -0.00000000000E+00  0.00000000000E+00  0.31241256412E+03  0.31241256412E+03  0.00000000000E+00 0.  1.
          1   -1    0    0  502    0  0.00000000000E+00 -0.00000000000E+00 -0.16861539445E+03  0.16861539445E+03  0.00000000000E+00 0. -1.
         23    2    1    2    0    0 -0.34581417560E+02  0.27157753548E+02  0.22183412734E+03  0.24370778558E+03  0.90827785858E+02 0.  0.
        -24    2    1    2    0    0 -0.30316353669E+02 -0.31566016685E+02 -0.11481930118E+03  0.16259337533E+03  0.10647835023E+03 0.  0.
         11    1    4    4    0    0 -0.54135076411E+02 -0.56428176555E+02 -0.94331690266E+02  0.12252841873E+03  0.00000000000E+00 0. -1.
        -12    1    4    4    0    0  0.23818722742E+02  0.24862159870E+02 -0.20487610909E+02  0.40064956598E+02  0.00000000000E+00 0.  1.
        -13    1    3    3    0    0 -0.63181307759E+02  0.15327682717E+02  0.11104876126E+03  0.12868039045E+03  0.00000000000E+00 0. -1.
         13    1    3    3    0    0  0.28599890200E+02  0.11830070831E+02  0.11078536608E+03  0.11502739514E+03  0.00000000000E+00 0.  1.
         21    1    1    2  502  501  0.64897771229E+02  0.44082631374E+01  0.36782343510E+02  0.74726797659E+02  0.00000000000E+00 0. -1.
<scales pt_clust_5="13000.00000" pt_clust_6="13000.00000" pt_clust_7="13000.00000" pt_clust_8="13000.00000" pt_clust_9="65.04732"></scales>
<clustering>
<clus scale="   65.047">  1  9  2 -1</clus>
<clus scale="   90.828">  7  8 -1 -1</clus>
<clus scale="   99.044">  1  7  2 -1</clus>
<clus scale="  106.478">  5  6 -1 -1</clus>
<clus scale="  113.568">  2  5  1 -1</clus>
</clustering>
</event>
<event>
 9    1  0.2951046E-005  0.1280247E+03  0.7546771E-02  0.1234527E+00
          1   -1    0    0  502    0  0.00000000000E+00  0.00000000000E+00  0.63770085722E+03  0.63770085722E+03  0.00000000000E+00 0. -1.
         -2   -1    0    0    0  501 -0.00000000000E+00 -0.00000000000E+00 -0.81874870668E+02  0.81874870668E+02  0.00000000000E+00 0.  1.
         23    2    1    2    0    0 -0.77387664129E+02 -0.12354264749E+02 -0.77411378162E+00  0.12304114668E+03  0.94852760150E+02 0.  0.
        -24    2    1    2    0    0  0.12060265615E+03  0.26006060599E+02  0.28089722830E+03  0.31713168088E+03  0.80299030439E+02 0.  0.
         11    1    4    4    0    0  0.12532965413E+03  0.74682233952E+01  0.22005420587E+03  0.25335183064E+03  0.00000000000E+00 0. -1.
        -12    1    4    4    0    0 -0.47269979808E+01  0.18537837204E+02  0.60843022427E+02  0.63779850236E+02  0.00000000000E+00 0.  1.
        -11    1    3    3    0    0 -0.74370088964E+02  0.23824342105E+02  0.20793267233E+02  0.80813794438E+02  0.00000000000E+00 0. -1.
         11    1    3    3    0    0 -0.30175751647E+01 -0.36178606854E+02 -0.21567381014E+02  0.42227352245E+02  0.00000000000E+00 0.  1.
         21    1    1    2  502  501 -0.43214992023E+02 -0.13651795851E+02  0.27570287203E+03  0.27940290033E+03  0.00000000000E+00 0.  1.
<scales pt_clust_5="13000.00000" pt_clust_6="13000.00000" pt_clust_7="13000.00000" pt_clust_8="13000.00000" pt_clust_9="45.32005"></scales>
<clustering>
<clus scale="   45.320">  1  9  2 -1</clus>
<clus scale="   80.299">  5  6 -1 -1</clus>
<clus scale="   94.853">  7  8 -1 -1</clus>
<clus scale="  117.649">  1  5  2 -1</clus>
<clus scale="   45.320">  1  5  2 -1</clus>
</clustering>
</event>
<event>
 9    1  0.2951046E-005  0.1142097E+03  0.7546771E-02  0.1261667E+00
         -2   -1    0    0    0  501 -0.00000000000E+00  0.00000000000E+00  0.50620440465E+02  0.50620440465E+02  0.00000000000E+00 0.  1.
          1   -1    0    0  502    0  0.00000000000E+00 -0.00000000000E+00 -0.64389967494E+03  0.64389967494E+03  0.00000000000E+00 0. -1.
        -24    2    1    2    0    0 -0.52368521793E+01 -0.46424023069E+02 -0.16287564800E+02  0.96433842066E+02  0.82774311171E+02 0.  0.
         23    2    1    2    0    0  0.25306736029E+02  0.67087364577E+02 -0.50834991918E+03  0.52364526427E+03  0.10316771340E+03 0.  0.
         11    1    3    3    0    0 -0.24295562822E+01 -0.70365426921E+02 -0.16552712358E+02  0.72326954422E+02  0.00000000000E+00 0. -1.
        -12    1    3    3    0    0 -0.28072958971E+01  0.23941403852E+02  0.26514755746E+00  0.24106887644E+02  0.00000000000E+00 0.  1.
        -13    1    4    4    0    0 -0.34205897019E+02  0.55179189560E+02 -0.26779607353E+03  0.27555312255E+03  0.00000000000E+00 0. -1.
         13    1    4    4    0    0  0.59512633048E+02  0.11908175017E+02 -0.24055384565E+03  0.24809214172E+03  0.00000000000E+00 0.  1.
         21    1    1    2  502  501 -0.20069883849E+02 -0.20663341508E+02 -0.68641750499E+02  0.74441009072E+02  0.00000000000E+00 0.  1.
<scales pt_clust_5="13000.00000" pt_clust_6="13000.00000" pt_clust_7="13000.00000" pt_clust_8="13000.00000" pt_clust_9="28.80580"></scales>
<clustering>
<clus scale="   28.806">  2  9  1 -1</clus>
<clus scale="   82.774">  5  6 -1 -1</clus>
<clus scale="   96.187">  1  5  2 -1</clus>
<clus scale="  103.168">  7  8 -1 -1</clus>
<clus scale="   28.806">  2  5  1 -1</clus>
</clustering>
</event>
<event>
 9    1  0.2951046E-005  0.2075743E+03  0.7546771E-02  0.1145851E+00
         -2   -1    0    0    0  501 -0.00000000000E+00  0.00000000000E+00  0.23204328002E+03  0.23204328002E+03  0.00000000000E+00 0.  1.
          1   -1    0    0  502    0  0.00000000000E+00 -0.00000000000E+00 -0.44491316564E+03  0.44491316564E+03  0.00000000000E+00 0. -1.
        -24    2    1    2    0    0 -0.16893548301E+03 -0.35929637902E+02  0.14006752469E+03  0.24803679752E+03  0.10987813773E+03 0.  0.
         23    2    1    2    0    0  0.19394386576E+03  0.43088229638E+02 -0.32612942393E+03  0.39156549474E+03  0.86558170715E+02 0.  0.
         11    1    3    3    0    0 -0.56539428531E+02 -0.25688378829E+02  0.11755711712E+03  0.13295215520E+03  0.00000000000E+00 0. -1.
        -12    1    3    3    0    0 -0.11239605448E+03 -0.10241259073E+02  0.22510407569E+02  0.11508464232E+03  0.00000000000E+00 0.  1.
        -11    1    4    4    0    0  0.12571603596E+03 -0.12729921007E+02 -0.16413613879E+03  0.20714063976E+03  0.00000000000E+00 0. -1.
         11    1    4    4    0    0  0.68227829801E+02  0.55818150645E+02 -0.16199328514E+03  0.18442485497E+03  0.00000000000E+00 0.  1.
         21    1    1    2  502  501 -0.25008382748E+02 -0.71585917359E+01 -0.26807986375E+02  0.37354153408E+02  0.00000000000E+00 0.  1.
<scales pt_clust_5="13000.00000" pt_clust_6="13000.00000" pt_clust_7="13000.00000" pt_clust_8="13000.00000" pt_clust_9="26.01278"></scales>
<clustering>
<clus scale="   26.013">  2  9  1 -1</clus>
<clus scale="   86.558">  7  8 -1 -1</clus>
<clus scale="  109.878">  5  6 -1 -1</clus>
<clus scale="  196.230">  2  7  1 -1</clus>
<clus scale="   26.013">  2  5  1 -1</clus>
</clustering>
</event>
<event>
 9    1  0.2951046E-005  0.1039850E+03  0.7546771E-02  0.1278219E+00
         -4   -1    0    0    0  501 -0.00000000000E+00  0.00000000000E+00  0.10864906493E+04  0.10864906493E+04  0.00000000000E+00 0.  1.
          3   -1    0    0  502    0  0.00000000000E+00 -0.00000000000E+00 -0.20163409313E+02  0.20163409313E+02  0.00000000000E+00 0. -1.
        -24    2    1    2    0    0 -0.42993243178E+02  0.18655271828E+02  0.76457120541E+03  0.77009566814E+03  0.79257629449E+02 0.  0.
         23    2    1    2    0    0  0.31397274639E+02 -0.53169507265E+02  0.20495533389E+03  0.23313656208E+03  0.92375225737E+02 0.  0.
         13    1    3    3    0    0 -0.48709736683E+02 -0.12898652007E+02  0.28246832702E+03  0.28692746373E+03  0.00000000000E+00 0. -1.
        -14    1    3    3    0    0  0.57164935054E+01  0.31553923835E+02  0.48210287839E+03  0.48316820442E+03  0.00000000000E+00 0.  1.
        -11    1    4    4    0    0  0.32068321662E+02  0.19628306820E+02  0.82724459557E+02  0.90867947549E+02  0.00000000000E+00 0.  1.
         11    1    4    4    0    0 -0.67104702332E+00 -0.72797814085E+02  0.12223087433E+03  0.14226861453E+03  0.00000000000E+00 0. -1.
         21    1    1    2  502  501  0.11595968539E+02  0.34514235438E+02  0.96800700674E+02  0.10342182838E+03  0.00000000000E+00 0.  1.
<scales pt_clust_5="13000.00000" pt_clust_6="13000.00000" pt_clust_7="13000.00000" pt_clust_8="13000.00000" pt_clust_9="36.41015"></scales>
<clustering>
<clus scale="   36.410">  2  9  1 -1</clus>
<clus scale="   79.258">  5  6 -1 -1</clus>
<clus scale="   92.375">  7  8 -1 -1</clus>
<clus scale="   92.528">  1  5  2 -1</clus>
<clus scale="   36.410">  2  5  1 -1</clus>
</clustering>
</event>
<event>
 9    1  0.2951046E-005  0.1060524E+03  0.7546771E-02  0.1270050E+00
          1   -1    0    0  502    0  0.00000000000E+00  0.00000000000E+00  0.11484526052E+03  0.11484526052E+03  0.00000000000E+00 0. -1.
         -2   -1    0    0    0  501 -0.00000000000E+00 -0.00000000000E+00 -0.17540038651E+03  0.17540038651E+03  0.00000000000E+00 0.  1.
        -24    2    1    2    0    0  0.25888609219E+02 -0.48953339042E+02 -0.10116535130E+03  0.14272089555E+03  0.84072446342E+02 0.  0.
         23    2    1    2    0    0 -0.71619477715E+01  0.69625393601E+02  0.26236544955E+02  0.11614602659E+03  0.88896311913E+02 0.  0.
         11    1    3    3    0    0 -0.30258961863E+02 -0.13326530395E+02 -0.43944293692E+02  0.54993655393E+02  0.00000000000E+00 0. -1.
        -12    1    3    3    0    0  0.56147571082E+02 -0.35626808647E+02 -0.57221057604E+02  0.87727240159E+02  0.00000000000E+00 0.  1.
        -13    1    4    4    0    0 -0.47826869079E+02  0.40322729784E+02  0.93284426608E+01  0.63248334251E+02  0.00000000000E+00 0. -1.
         13    1    4    4    0    0  0.40664921307E+02  0.29302663817E+02  0.16908102294E+02  0.52897692340E+02  0.00000000000E+00 0.  1.
         21    1    1    2  502  501 -0.18726661447E+02 -0.20672054560E+02  0.14373680355E+02  0.31378724888E+02  0.00000000000E+00 0. -1.
<scales pt_clust_5="13000.00000" pt_clust_6="13000.00000" pt_clust_7="13000.00000" pt_clust_8="13000.00000" pt_clust_9="27.89304"></scales>
<clustering>
<clus scale="   27.893">  1  9  2 -1</clus>
<clus scale="   84.072">  5  6 -1 -1</clus>
<clus scale="   88.896">  7  8 -1 -1</clus>
<clus scale="  102.043">  2  5  1 -1</clus>
<clus scale="   27.893">  1  5  2 -1</clus>
</clustering>
</event>
<event>
 9    1  0.2951046E-005  0.1635533E+03  0.7546771E-02  0.1186022E+00
         -2   -1    0    0    0  501 -0.00000000000E+00  0.00000000000E+00  0.37635940150E+03  0.37635940150E+03  0.00000000000E+00 0.  1.
          1   -1    0    0  502    0  0.00000000000E+00 -0.00000000000E+00 -0.14976367596E+03  0.14976367596E+03  0.00000000000E+00 0. -1.
        -24    2    1    2    0    0  0.44047684510E+02 -0.13297368965E+03  0.28544687405E+03  0.33351608707E+03  0.10065218222E+03 0.  0.
         23    2    1    2    0    0 -0.21802914274E+02  0.82038811716E+02 -0.53363804629E+02  0.13675627386E+03  0.92999188695E+02 0.  0.
         11    1    3    3    0    0  0.33156723688E+02 -0.33562854976E+02  0.22650013059E+02  0.52334086898E+02  0.00000000000E+00 0. -1.
        -12    1    3    3    0    0  0.10890960822E+02 -0.99410834671E+02  0.26279686099E+03  0.28118200018E+03  0.00000000000E+00 0.  1.
        -11    1    4    4    0    0 -0.41909259189E+02  0.20496961049E+02 -0.54835944798E+02  0.71996473941E+02  0.00000000000E+00 0.  1.
         11    1    4    4    0    0  0.20106344916E+02  0.61541850667E+02  0.14721401683E+01  0.64759799922E+02  0.00000000000E+00 0. -1.
         21    1    1    2  502  501 -0.22244770237E+02  0.50934877931E+02 -0.54873438793E+01  0.55850716518E+02  0.00000000000E+00 0. -1.
<scales pt_clust_5="13000.00000" pt_clust_6="13000.00000" pt_clust_7="13000.00000" pt_clust_8="13000.00000" pt_clust_9="55.58050"></scales>
<clustering>
<clus scale="   55.580">  2  9  1 -1</clus>
<clus scale="   92.999">  7  8 -1 -1</clus>
<clus scale="  100.652">  5  6 -1 -1</clus>
<clus scale="  158.958">  2  7  1 -1</clus>
<clus scale="   55.580">  2  5  1 -1</clus>
</clustering>
</event>
<event>
 9    1  0.2951046E-005  0.9375806E+02  0.7546771E-02  0.1301255E+00
         -2   -1    0    0    0  501 -0.00000000000E+00  0.00000000000E+00  0.16218444443E+03  0.16218444443E+03  0.00000000000E+00 0.  1.
          1   -1    0    0  502    0  0.00000000000E+00 -0.00000000000E+00 -0.10582264995E+03  0.10582264995E+03  0.00000000000E+00 0. -1.
        -24    2    1    2    0    0 -0.13878082726E+02 -0.83637015667E+01  0.94631272110E+02  0.12443640309E+03  0.79163047370E+02 0.  0.
         23    2    1    2    0    0  0.44413501318E+02  0.20590981073E+00 -0.11567086472E+02  0.10219462274E+03  0.91309046263E+02 0.  0.
         11    1    3    3    0    0 -0.15429634470E+01 -0.39547741466E+02  0.24098439206E+02  0.46337235172E+02  0.00000000000E+00 0. -1.
        -12    1    3    3    0    0 -0.12335119279E+02  0.31184039899E+02  0.70532832904E+02  0.78099167918E+02  0.00000000000E+00 0.  1.
        -13    1    4    4    0    0 -0.27868722905E+02  0.78817288379E+00 -0.10821000483E+02  0.29906203107E+02  0.00000000000E+00 0.  1.
         13    1    4    4    0    0  0.72282224222E+02 -0.58226307307E+00 -0.74608598950E+00  0.72288419634E+02  0.00000000000E+00 0. -1.
         21    1    1    2  502  501 -0.30535418592E+02  0.81577917559E+01 -0.26702391160E+02  0.41376068549E+02  0.00000000000E+00 0.  1.
<scales pt_clust_5="13000.00000" pt_clust_6="13000.00000" pt_clust_7="13000.00000" pt_clust_8="13000.00000" pt_clust_9="31.60635"></scales>
<clustering>
<clus scale="   31.606">  2  9  1 -1</clus>
<clus scale="   79.163">  5  6 -1 -1</clus>
<clus scale="   81.976">  1  5  2 -1</clus>
<clus scale="   91.309">  7  8 -1 -1</clus>
<clus scale="   31.606">  2  5  1 -1</clus>
</clustering>
</event>
<event>
 9    1  0.2951046E-005  0.1151625E+03  0.7546771E-02  0.1256614E+00
         -2   -1    0    0    0  501 -0.00000000000E+00  0.00000000000E+00  0.14934299657E+03  0.14934299657E+03  0.00000000000E+00 0.  1.
          1   -1    0    0  502    0  0.00000000000E+00 -0.00000000000E+00 -0.51323723675E+03  0.51323723675E+03  0.00000000000E+00 0. -1.
         23    2    1    2    0    0  0.13593748285E+02 -0.66831577497E+02  0.10966754227E+03  0.15950913027E+03  0.93621274660E+02 0.  0.
        -24    2    1    2    0    0  0.45859057344E+02  0.61353719404E+02 -0.30335911908E+03  0.32270040243E+03  0.79002927617E+02 0.  0.
         13    1    4    4    0    0  0.26457781311E+02  0.74885167406E+02 -0.27238253315E+03  0.28372530175E+03  0.00000000000E+00 0. -1.
        -14    1    4    4    0    0  0.19401276033E+02 -0.13531448002E+02 -0.30976585936E+02  0.38975100680E+02  0.00000000000E+00 0.  1.
        -11    1    3    3    0    0 -0.68688921820E+01 -0.64602301696E+02  0.12001519931E+03  0.13647082886E+03  0.00000000000E+00 0.  1.
         11    1    3    3    0    0  0.20462640467E+02 -0.22292758001E+01 -0.10347657043E+02  0.23038301408E+02  0.00000000000E+00 0. -1.
         21    1    1    2  502  501 -0.59452805629E+02  0.54778580929E+01 -0.17020266336E+03  0.18037070062E+03  0.00000000000E+00 0. -1.
<scales pt_clust_5="13000.00000" pt_clust_6="13000.00000" pt_clust_7="13000.00000" pt_clust_8="13000.00000" pt_clust_9="59.70463"></scales>
<clustering>
<clus scale="   59.705">  2  9  1 -1</clus>
<clus scale="   79.003">  5  6 -1 -1</clus>
<clus scale="   93.621">  7  8 -1 -1</clus>
<clus scale="  103.629">  2  5  1 -1</clus>
<clus scale="   59.705">  2  5  1 -1</clus>
</clustering>
</event>
<event>
 9    1  0.2951046E-005  0.8415606E+02  0.7546771E-02  0.1323933E+00
          1   -1    0    0  502    0  0.00000000000E+00  0.00000000000E+00  0.15026322700E+03  0.15026322700E+03  0.00000000000E+00 0. -1.
         -2   -1    0    0    0  501 -0.00000000000E+00 -0.00000000000E+00 -0.12212080185E+03  0.12212080185E+03  0.00000000000E+00 0.  1.
         23    2    1    2    0    0 -0.29046902371E+02 -0.11219637572E+02 -0.55576187476E+02  0.95844401187E+02  0.71608894838E+02 0.  0.
        -24    2    1    2    0    0 -0.29295478019E+02  0.22811561124E+02  0.75005998146E+02  0.11642211198E+03  0.80929698171E+02 0.  0.
         13    1    4    4    0    0 -0.57416545361E+02  0.17615441507E+02  0.45635542504E+02  0.75429213176E+02  0.00000000000E+00 0. -1.
        -14    1    4    4    0    0  0.28121067342E+02  0.51961196172E+01  0.29370455642E+02  0.40992898801E+02  0.00000000000E+00 0.  1.
        -11    1    3    3    0    0 -0.41529453793E+02  0.18790653620E+02 -0.32623543658E+02  0.56054257613E+02  0.00000000000E+00 0.  1.
         11    1    3    3    0    0  0.12482551421E+02 -0.30010291192E+02 -0.22952643818E+02  0.39790143574E+02  0.00000000000E+00 0. -1.
         21    1    1    2  502  501  0.58342380390E+02 -0.11591923552E+02  0.87126144728E+01  0.60117515685E+02  0.00000000000E+00 0.  1.
<scales pt_clust_5="13000.00000" pt_clust_6="13000.00000" pt_clust_7="13000.00000" pt_clust_8="13000.00000" pt_clust_9="59.48282"></scales>
<clustering>
<clus scale="   59.483">  1  9  2 -1</clus>
<clus scale="   71.609">  7  8 -1 -1</clus>
<clus scale="   75.236">  2  7  1 -1</clus>
<clus scale="   80.930">  5  6 -1 -1</clus>
<clus scale="   59.483">  1  5  2 -1</clus>
</clustering>
</event>
<event>
 9    1  0.2951046E-005  0.1447211E+03  0.7546771E-02  0.1209521E+00
          1   -1    0    0  502    0  0.00000000000E+00  0.00000000000E+00  0.47002666480E+03  0.47002666480E+03  0.00000000000E+00 0. -1.
         -2   -1    0    0    0  501 -0.00000000000E+00 -0.00000000000E+00 -0.17783517558E+03  0.17783517558E+03  0.00000000000E+00 0.  1.
        -24    2    1    2    0    0  0.44926943675E+02 -0.10138439445E+03 -0.11569357173E+03  0.17907492586E+03  0.79909954478E+02 0.  0.
         23    2    1    2    0    0  0.54572426979E+01  0.13509418068E+03  0.34319533529E+03  0.38013209779E+03  0.91853984422E+02 0.  0.
         13    1    3    3    0    0  0.26496355004E+02 -0.23109676761E+02  0.34559231506E+01  0.35327855770E+02  0.00000000000E+00 0. -1.
        -14    1    3    3    0    0  0.18430588672E+02 -0.78274717693E+02 -0.11914949488E+03  0.14374707009E+03  0.00000000000E+00 0.  1.
        -13    1    4    4    0    0  0.83801162651E+01  0.97404987334E+02  0.12502555802E+03  0.15871152467E+03  0.00000000000E+00 0.  1.
         13    1    4    4    0    0 -0.29228735671E+01  0.37689193345E+02  0.21816977727E+03  0.22142057312E+03  0.00000000000E+00 0. -1.
         21    1    1    2  502  501 -0.50384186373E+02 -0.33709786225E+02  0.64689725655E+02  0.88654816729E+02  0.00000000000E+00 0. -1.
<scales pt_clust_5="13000.00000" pt_clust_6="13000.00000" pt_clust_7="13000.00000" pt_clust_8="13000.00000" pt_clust_9="60.62108"></scales>
<clustering>
<clus scale="   60.621">  1  9  2 -1</clus>
<clus scale="   79.910">  5  6 -1 -1</clus>
<clus scale="   91.854">  7  8 -1 -1</clus>
<clus scale="  137.450">  2  5  1 -1</clus>
<clus scale="   60.621">  1  5  2 -1</clus>
</clustering>
</event>
<event>
 9    1  0.2951046E-005  0.9500611E+02  0.7546771E-02  0.1296808E+00
          1   -1    0    0  502    0  0.00000000000E+00  0.00000000000E+00  0.31514395296E+02  0.31514395296E+02  0.00000000000E+00 0. -1.
         -2   -1    0    0    0  501 -0.00000000000E+00 -0.00000000000E+00 -0.63160615732E+03  0.63160615732E+03  0.00000000000E+00 0.  1.
        -24    2    1    2    0    0  0.17972270005E+02 -0.45973891444E+02 -0.23263396045E+03  0.25122845092E+03  0.80997369182E+02 0.  0.
         23    2    1    2    0    0  0.22497742180E+02  0.16265401910E+02 -0.93450574341E+02  0.13332365981E+03  0.90947659226E+02 0.  0.
         11    1    3    3    0    0  0.28211930366E+01  0.20233508609E+02 -0.10165045536E+03  0.10368302212E+03  0.00000000000E+00 0. -1.
        -12    1    3    3    0    0  0.15151076969E+02 -0.66207400053E+02 -0.13098350509E+03  0.14754542880E+03  0.00000000000E+00 0.  1.
        -13    1    4    4    0    0 -0.31041197742E+02 -0.10333870644E+02 -0.18969547363E+02  0.37817833979E+02  0.00000000000E+00 0.  1.
         13    1    4    4    0    0  0.53538939922E+02  0.26599272554E+02 -0.74481026978E+02  0.95505825833E+02  0.00000000000E+00 0. -1.
         21    1    1    2  502  501 -0.40470012186E+02  0.29708489533E+02 -0.27400722723E+03  0.27856844188E+03  0.00000000000E+00 0.  1.
<scales pt_clust_5="13000.00000" pt_clust_6="13000.00000" pt_clust_7="13000.00000" pt_clust_8="13000.00000" pt_clust_9="50.20375"></scales>
<clustering>
<clus scale="   50.204">  2  9  1 -1</clus>
<clus scale="   80.997">  5  6 -1 -1</clus>
<clus scale="   85.529">  2  5  1 -1</clus>
<clus scale="   90.948">  7  8 -1 -1</clus>
<clus scale="   95.006">  1  5  2 -1</clus>
</clustering>
</event>
<event>
 9    1  0.2951046E-005  0.1104105E+03  0.7546771E-02  0.1263300E+00
         -2   -1    0    0    0  501 -0.00000000000E+00  0.00000000000E+00  0.12932876966E+03  0.12932876966E+03  0.00000000000E+00 0.  1.
          1   -1    0    0  502    0  0.00000000000E+00 -0.00000000000E+00 -0.30112241160E+03  0.30112241160E+03  0.00000000000E+00 0. -1.
        -24    2    1    2    0    0 -0.43066116321E+02  0.24187588081E+02  0.28553576946E+02  0.98981801812E+02  0.80884859778E+02 0.  0.
         23    2    1    2    0    0  0.95111893657E+02 -0.13895088788E+02 -0.79840370272E+01  0.13192416599E+03  0.90004971619E+02 0.  0.
         11    1    3    3    0    0 -0.14557634423E+02 -0.18857589337E+02 -0.17688066966E+02  0.29671553862E+02  0.00000000000E+00 0. -1.
        -12    1    3    3    0    0 -0.28508481898E+02  0.43045177419E+02  0.46241643912E+02  0.69310247950E+02  0.00000000000E+00 0.  1.
        -11    1    4    4    0    0  0.34624246022E+02  0.20862248704E+02  0.31963332926E+02  0.51533741232E+02  0.00000000000E+00 0.  1.
         11    1    4    4    0    0  0.60487647635E+02 -0.34757337492E+02 -0.39947369953E+02  0.80390424754E+02  0.00000000000E+00 0. -1.
         21    1    1    2  502  501 -0.52045777336E+02 -0.10292499294E+02 -0.19236318186E+03  0.19954521346E+03  0.00000000000E+00 0. -1.
<scales pt_clust_5="13000.00000" pt_clust_6="13000.00000" pt_clust_7="13000.00000" pt_clust_8="13000.00000" pt_clust_9="53.05373"></scales>
<clustering>
<clus scale="   53.054">  2  9  1 -1</clus>
<clus scale="   80.885">  5  6 -1 -1</clus>
<clus scale="   90.005">  7  8 -1 -1</clus>
<clus scale="  103.111">  1  5  2 -1</clus>
<clus scale="   53.054">  2  5  1 -1</clus>
</clustering>
</event>
<event>
 9    1  0.2951046E-005  0.1762015E+03  0.7546771E-02  0.1196501E+00
         -2   -1    0    0    0  501 -0.00000000000E+00  0.00000000000E+00  0.11052707625E+03  0.11052707625E+03  0.00000000000E+00 0.  1.
          1   -1    0    0  502    0  0.00000000000E+00 -0.00000000000E+00 -0.48616081198E+03  0.48616081198E+03  0.00000000000E+00 0. -1.
         23    2    1    2    0    0 -0.78059423138E+02 -0.11199459342E+03 -0.68318525717E+02  0.17787108169E+03  0.91294239968E+02 0.  0.
        -24    2    1    2    0    0 -0.62139985179E+02 -0.54856905780E+01 -0.95151866996E+02  0.13869045051E+03  0.79307582937E+02 0.  0.
         13    1    4    4    0    0 -0.31835534901E+02  0.22956121730E+02 -0.88218113840E+02  0.96555271305E+02  0.00000000000E+00 0. -1.
        -14    1    4    4    0    0 -0.30304450278E+02 -0.28441812308E+02 -0.69337531562E+01  0.42135179207E+02  0.00000000000E+00 0.  1.
        -13    1    3    3    0    0 -0.92219431753E+02 -0.59548037044E+02 -0.48999161114E+02  0.12021360197E+03  0.00000000000E+00 0.  1.
         13    1    3    3    0    0  0.14160008616E+02 -0.52446556373E+02 -0.19319364603E+02  0.57657479724E+02  0.00000000000E+00 0. -1.
         21    1    1    2  502  501  0.14019940832E+03  0.11748028400E+03 -0.21216334302E+03  0.28012635603E+03  0.00000000000E+00 0. -1.
<scales pt_clust_5="13000.00000" pt_clust_6="13000.00000" pt_clust_7="13000.00000" pt_clust_8="13000.00000" pt_clust_9="150.70605"></scales>
<clustering>
<clus scale="   79.308">  5  6 -1 -1</clus>
<clus scale="   91.294">  7  8 -1 -1</clus>
<clus scale="  100.902">  2  5  1 -1</clus>
<clus scale="  150.706">  2  9  1 -1</clus>
<clus scale="  100.902">  2  5  1 -1</clus>
</clustering>
</event>
<event>
 9    1  0.2951046E-005  0.8821629E+02  0.7546771E-02  0.1311636E+00
         -2   -1    0    0    0  501 -0.00000000000E+00  0.00000000000E+00  0.59687155909E+02  0.59687155909E+02  0.00000000000E+00 0.  1.
          1   -1    0    0  502    0  0.00000000000E+00 -0.00000000000E+00 -0.26922909616E+03  0.26922909616E+03  0.00000000000E+00 0. -1.
        -24    2    1    2    0    0 -0.16608608910E+02 -0.10530718844E+02  0.18972261679E+00  0.82648696183E+02  0.80274709945E+02 0.  0.
         23    2    1    2    0    0  0.29621720020E+01 -0.18833616524E+02 -0.11126279273E+03  0.14261135579E+03  0.87149929318E+02 0.  0.
         13    1    3    3    0    0  0.28064440007E+02 -0.22812152423E+02 -0.23996100788E+01  0.36245899349E+02  0.00000000000E+00 0. -1.
        -14    1    3    3    0    0 -0.44673048916E+02  0.12281433579E+02  0.25893326956E+01  0.46402796834E+02  0.00000000000E+00 0.  1.
        -11    1    4    4    0    0 -0.16958746365E+02 -0.21790646823E+02  0.18933800193E+01  0.27676998665E+02  0.00000000000E+00 0.  1.
         11    1    4    4    0    0  0.19920918367E+02  0.29570302986E+01 -0.11315617275E+03  0.11493435712E+03  0.00000000000E+00 0. -1.
         21    1    1    2  502  501  0.13646436908E+02  0.29364335368E+02 -0.98468870144E+02  0.10365620010E+03  0.00000000000E+00 0. -1.
<scales pt_clust_5="13000.00000" pt_clust_6="13000.00000" pt_clust_7="13000.00000" pt_clust_8="13000.00000" pt_clust_9="32.38039"></scales>
<clustering>
<clus scale="   32.380">  2  9  1 -1</clus>
<clus scale="   80.275">  5  6 -1 -1</clus>
<clus scale="   81.431">  1  5  2 -1</clus>
<clus scale="   87.150">  7  8 -1 -1</clus>
<clus scale="   32.380">  2  5  1 -1</clus>
</clustering>
</event>
<event>
 9    1  0.2951046E-005  0.1205724E+03  0.7546771E-02  0.1244838E+00
          1   -1    0    0  502    0  0.00000000000E+00  0.00000000000E+00  0.84669110053E+02  0.84669110053E+02  0.00000000000E+00 0. -1.
         -2   -1    0    0    0  501 -0.00000000000E+00 -0.00000000000E+00 -0.28740483142E+03  0.28740483142E+03  0.00000000000E+00 0.  1.
        -24    2    1    2    0    0  0.20563908548E+02 -0.10400002805E+03 -0.13109680624E+03  0.18806418134E+03  0.83323967310E+02 0.  0.
         23    2    1    2    0    0 -0.31762726464E+02  0.59347346606E+02 -0.21389228775E+02  0.11586061148E+03  0.91843365816E+02 0.  0.
         13    1    3    3    0    0  0.41650328781E+02 -0.24458275286E+02 -0.26881287683E+02  0.55277126779E+02  0.00000000000E+00 0. -1.
        -14    1    3    3    0    0 -0.21086420233E+02 -0.79541752764E+02 -0.10421551856E+03  0.13278705456E+03  0.00000000000E+00 0.  1.
        -11    1    4    4    0    0 -0.55795449584E+02  0.67330078350E+02 -0.23208354385E+02  0.90471538940E+02  0.00000000000E+00 0. -1.
         11    1    4    4    0    0  0.24032723121E+02 -0.79827317437E+01  0.18191256109E+01  0.25389072544E+02  0.00000000000E+00 0.  1.
         21    1    1    2  502  501  0.11198817915E+02  0.44652681443E+02 -0.50249686345E+02  0.68149148641E+02  0.00000000000E+00 0. -1.
<scales pt_clust_5="13000.00000" pt_clust_6="13000.00000" pt_clust_7="13000.00000" pt_clust_8="13000.00000" pt_clust_9="46.03559"></scales>
<clustering>
<clus scale="   46.036">  2  9  1 -1</clus>
<clus scale="   83.324">  5  6 -1 -1</clus>
<clus scale="   91.843">  7  8 -1 -1</clus>
<clus scale="  114.216">  2  5  1 -1</clus>
<clus scale="  120.572">  1  5  2 -1</clus>
</clustering>
</event>
<event>
 9    1  0.2951046E-005  0.1257982E+03  0.7546771E-02  0.1237106E+00
          1   -1    0    0  502    0  0.00000000000E+00  0.00000000000E+00  0.35190263624E+03  0.35190263624E+03  0.00000000000E+00 0. -1.
         -2   -1    0    0    0  501 -0.00000000000E+00 -0.00000000000E+00 -0.10136861111E+03  0.10136861111E+03  0.00000000000E+00 0.  1.
        -24    2    1    2    0    0 -0.78101929382E+02  0.42471792915E+02 -0.44216922745E+02  0.12762975382E+03  0.80190106851E+02 0.  0.
         23    2    1    2    0    0  0.56315494079E+02 -0.41680405465E+02  0.23048274005E+03  0.25777635082E+03  0.91747820172E+02 0.  0.
         13    1    3    3    0    0 -0.25926936952E+02  0.35466898723E+02  0.16805876810E+02  0.47037691909E+02  0.00000000000E+00 0. -1.
        -14    1    3    3    0    0 -0.52174992431E+02  0.70048941920E+01 -0.61022799555E+02  0.80592061913E+02  0.00000000000E+00 0.  1.
        -11    1    4    4    0    0  0.11052667553E+02 -0.63163760039E+02  0.11058721910E+03  0.12783330970E+03  0.00000000000E+00 0.  1.
         11    1    4    4    0    0  0.45262826526E+02  0.21483354574E+02  0.11989552096E+03  0.12994304112E+03  0.00000000000E+00 0. -1.
         21    1    1    2  502  501  0.21786435304E+02 -0.79138744997E+00  0.64268207820E+02  0.67865142700E+02  0.00000000000E+00 0. -1.
<scales pt_clust_5="13000.00000" pt_clust_6="13000.00000" pt_clust_7="13000.00000" pt_clust_8="13000.00000" pt_clust_9="21.80080"></scales>
<clustering>
<clus scale="   21.801">  1  9  2 -1</clus>
<clus scale="   80.190">  5  6 -1 -1</clus>
<clus scale="   91.748">  7  8 -1 -1</clus>
<clus scale="  117.635">  2  5  1 -1</clus>
<clus scale="   21.801">  1  5  2 -1</clus>
</clustering>
</event>
<event>
 9    1  0.2951046E-005  0.9265029E+02  0.7546771E-02  0.1298089E+00
         -2   -1    0    0    0  501 -0.00000000000E+00  0.00000000000E+00  0.32866953737E+03  0.32866953737E+03  0.00000000000E+00 0.  1.
          1   -1    0    0  502    0  0.00000000000E+00 -0.00000000000E+00 -0.71394147019E+02  0.71394147019E+02  0.00000000000E+00 0. -1.
         23    2    1    2    0    0 -0.11050706562E+02  0.10480220367E+01  0.22244906830E+03  0.24090932306E+03  0.91817740569E+02 0.  0.
        -24    2    1    2    0    0  0.27209424655E+01 -0.28959362439E+02  0.67348587011E+02  0.11549516286E+03  0.89203431941E+02 0.  0.
         11    1    4    4    0    0  0.19271984092E+02  0.28268338864E+02  0.22949475308E+02  0.41196926704E+02  0.00000000000E+00 0. -1.
        -12    1    4    4    0    0 -0.16551041627E+02 -0.57227701302E+02  0.44399111703E+02  0.74298236152E+02  0.00000000000E+00 0.  1.
        -13    1    3    3    0    0 -0.39367404947E+02 -0.60347800406E+01  0.20042412690E+03  0.20434295140E+03  0.00000000000E+00 0.  1.
         13    1    3    3    0    0  0.28316698385E+02  0.70828020772E+01  0.22024941397E+02  0.36566371658E+02  0.00000000000E+00 0. -1.
         21    1    1    2  502  501  0.83297640970E+01  0.27911340402E+02 -0.32522264962E+02  0.43659198472E+02  0.00000000000E+00 0. -1.
<scales pt_clust_5="13000.00000" pt_clust_6="13000.00000" pt_clust_7="13000.00000" pt_clust_8="13000.00000" pt_clust_9="29.12779"></scales>
<clustering>
<clus scale="   29.128">  2  9  1 -1</clus>
<clus scale="   89.203">  5  6 -1 -1</clus>
<clus scale="   90.060">  2  5  1 -1</clus>
<clus scale="   91.818">  7  8 -1 -1</clus>
<clus scale="   29.128">  2  5  1 -1</clus>
</clustering>
</event>
<event>
 9    1  0.2951046E-005  0.1610971E+03  0.7546771E-02  0.1189239E+00
         -2   -1    0    0    0  501 -0.00000000000E+00  0.00000000000E+00  0.30553237373E+03  0.30553237373E+03  0.00000000000E+00 0.  1.
          1   -1    0    0  502    0  0.00000000000E+00 -0.00000000000E+00 -0.14232760867E+03  0.14232760867E+03  0.00000000000E+00 0. -1.
        -24    2    1    2    0    0 -0.11788969784E+03 -0.66634479429E+02  0.18279890772E+03  0.24103704658E+03  0.79657281238E+02 0.  0.
         23    2    1    2    0    0  0.12748099515E+03  0.23865122937E+02 -0.31010457211E+02  0.16152897290E+03  0.91153784414E+02 0.  0.
         11    1    3    3    0    0 -0.41607405499E+02  0.65920747670E+01  0.19329865148E+02  0.46349491137E+02  0.00000000000E+00 0. -1.
        -12    1    3    3    0    0 -0.76282292345E+02 -0.73226554196E+02  0.16346904258E+03  0.19468755545E+03  0.00000000000E+00 0.  1.
        -11    1    4    4    0    0  0.31286060621E+02  0.35889591304E+02 -0.42609413797E+02  0.63893994219E+02  0.00000000000E+00 0. -1.
         11    1    4    4    0    0  0.96194934529E+02 -0.12024468367E+02  0.11598956585E+02  0.97634978683E+02  0.00000000000E+00 0.  1.
         21    1    1    2  502  501 -0.95912973058E+01  0.42769356492E+02  0.11416314545E+02  0.45293962915E+02  0.00000000000E+00 0. -1.
<scales pt_clust_5="13000.00000" pt_clust_6="13000.00000" pt_clust_7="13000.00000" pt_clust_8="13000.00000" pt_clust_9="43.83162"></scales>
<clustering>
<clus scale="   43.832">  2  9  1 -1</clus>
<clus scale="   79.657">  5  6 -1 -1</clus>
<clus scale="   91.154">  7  8 -1 -1</clus>
<clus scale="  154.882">  1  5  2 -1</clus>
<clus scale="   43.832">  2  5  1 -1</clus>
</clustering>
</event>
<event>
 9    1  0.2951046E-005  0.1107806E+03  0.7546771E-02  0.1265294E+00
         -2   -1    0    0    0  501 -0.00000000000E+00  0.00000000000E+00  0.15554252613E+03  0.15554252613E+03  0.00000000000E+00 0.  1.
          1   -1    0    0  502    0  0.00000000000E+00 -0.00000000000E+00 -0.51262300024E+03  0.51262300024E+03  0.00000000000E+00 0. -1.
         23    2    1    2    0    0  0.56210634115E+01  0.59193056052E+02  0.12668916174E+03  0.16834369244E+03  0.93563031397E+02 0.  0.
        -24    2    1    2    0    0 -0.30613110300E+02 -0.53774655763E+02 -0.36978786909E+03  0.38300657542E+03  0.78243802043E+02 0.  0.
         13    1    4    4    0    0 -0.25748935978E+02 -0.71311491415E+02 -0.33780108515E+03  0.34620501100E+03  0.00000000000E+00 0. -1.
        -14    1    4    4    0    0 -0.48641743216E+01  0.17536835651E+02 -0.31986783941E+02  0.36801564415E+02  0.00000000000E+00 0.  1.
        -11    1    3    3    0    0  0.48411397912E+02  0.22914377234E+02  0.49572959694E+02  0.72980891092E+02  0.00000000000E+00 0. -1.
         11    1    3    3    0    0 -0.42790334500E+02  0.36278678818E+02  0.77116202044E+02  0.95362801349E+02  0.00000000000E+00 0.  1.
         21    1    1    2  502  501  0.24992046888E+02 -0.54184002884E+01 -0.11398176675E+03  0.11681525851E+03  0.00000000000E+00 0. -1.
<scales pt_clust_5="13000.00000" pt_clust_6="13000.00000" pt_clust_7="13000.00000" pt_clust_8="13000.00000" pt_clust_9="25.57267"></scales>
<clustering>
<clus scale="   25.573">  2  9  1 -1</clus>
<clus scale="   78.244">  5  6 -1 -1</clus>
<clus scale="   93.563">  7  8 -1 -1</clus>
<clus scale="   98.186">  2  5  1 -1</clus>
<clus scale="   25.573">  2  5  1 -1</clus>
</clustering>
</event>
<event>
 9    1  0.2951046E-005  0.1345667E+03  0.7546771E-02  0.1223738E+00
          3   -1    0    0  502    0  0.00000000000E+00  0.00000000000E+00  0.52321934171E+03  0.52321934171E+03  0.00000000000E+00 0. -1.
         -4   -1    0    0    0  501 -0.00000000000E+00 -0.00000000000E+00 -0.62560091625E+02  0.62560091625E+02  0.00000000000E+00 0.  1.
        -24    2    1    2    0    0 -0.58210409087E+02  0.75217896478E+02  0.37514555625E+02  0.12909222204E+03  0.78811650343E+02 0.  0.
         23    2    1    2    0    0  0.65785110592E+02 -0.96151290835E+02  0.34291621557E+03  0.37342742553E+03  0.91015162081E+02 0.  0.
         11    1    3    3    0    0 -0.44945252329E+02 -0.21457968926E+01  0.12259363907E+02  0.46636596731E+02  0.00000000000E+00 0. -1.
        -12    1    3    3    0    0 -0.13265156758E+02  0.77363693371E+02  0.25255191718E+02  0.82455625305E+02  0.00000000000E+00 0.  1.
        -13    1    4    4    0    0 -0.84443824268E+01 -0.67393570456E+02  0.14582016878E+03  0.16086243364E+03  0.00000000000E+00 0. -1.
         13    1    4    4    0    0  0.74229493019E+02 -0.28757720380E+02  0.19709604679E+03  0.21256499188E+03  0.00000000000E+00 0.  1.
         21    1    1    2  502  501 -0.75747015044E+01  0.20933394357E+02  0.80228478891E+02  0.83259785775E+02  0.00000000000E+00 0.  1.
<scales pt_clust_5="13000.00000" pt_clust_6="13000.00000" pt_clust_7="13000.00000" pt_clust_8="13000.00000" pt_clust_9="22.26170"></scales>
<clustering>
<clus scale="   22.262">  1  9  2 -1</clus>
<clus scale="   78.812">  5  6 -1 -1</clus>
<clus scale="   91.015">  7  8 -1 -1</clus>
<clus scale="  126.632">  2  5  1 -1</clus>
<clus scale="   22.262">  1  5  2 -1</clus>
</clustering>
</event>
<event>
 9    1  0.2951046E-005  0.1169491E+03  0.7546771E-02  0.1264356E+00
          1   -1    0    0  502    0  0.00000000000E+00  0.00000000000E+00  0.68274280298E+03  0.68274280298E+03  0.00000000000E+00 0. -1.
         -2   -1    0    0    0  501 -0.00000000000E+00 -0.00000000000E+00 -0.10092877749E+03  0.10092877749E+03  0.00000000000E+00 0.  1.
        -24    2    1    2    0    0 -0.11555506633E+02  0.27306781477E+02 -0.39380691159E+02  0.93674950079E+02  0.79655303577E+02 0.  0.
         23    2    1    2    0    0 -0.25462764105E+02  0.61146051691E+02  0.57000051566E+03  0.58129933384E+03  0.92850070965E+02 0.  0.
         13    1    3    3    0    0  0.25806832983E+02  0.36205194381E+02 -0.31442391361E+02  0.54455786683E+02  0.00000000000E+00 0. -1.
        -14    1    3    3    0    0 -0.37362339616E+02 -0.88984129041E+01 -0.79382997974E+01  0.39219163396E+02  0.00000000000E+00 0.  1.
        -11    1    4    4    0    0  0.30437841755E+02 -0.10030324150E+01  0.14898372727E+03  0.15206452339E+03  0.00000000000E+00 0.  1.
         11    1    4    4    0    0 -0.55900605860E+02  0.62149084106E+02  0.42101678839E+03  0.42923481044E+03  0.00000000000E+00 0. -1.
         21    1    1    2  502  501  0.37018270738E+02 -0.88452833168E+02  0.51194200985E+02  0.10869729656E+03  0.00000000000E+00 0.  1.
<scales pt_clust_5="13000.00000" pt_clust_6="13000.00000" pt_clust_7="13000.00000" pt_clust_8="13000.00000" pt_clust_9="71.10519"></scales>
<clustering>
<clus scale="   79.655">  5  6 -1 -1</clus>
<clus scale="   84.995">  2  5  1 -1</clus>
<clus scale="   71.105">  2  9  1 -1</clus>
<clus scale="   92.850">  7  8 -1 -1</clus>
<clus scale="  116.949">  1  5  2 -1</clus>
</clustering>
</event>
<event>
 9    1  0.2951046E-005  0.1304750E+03  0.7546771E-02  0.1229652E+00
         -2   -1    0    0    0  501 -0.00000000000E+00  0.00000000000E+00  0.23892374298E+03  0.23892374298E+03  0.00000000000E+00 0.  1.
          1   -1    0    0  502    0  0.00000000000E+00 -0.00000000000E+00 -0.14976492603E+03  0.14976492603E+03  0.00000000000E+00 0. -1.
        -24    2    1    2    0    0 -0.19795322498E+02  0.87340593000E+02  0.14790211345E+03  0.19044549247E+03  0.79838690264E+02 0.  0.
         23    2    1    2    0    0 -0.69305647255E+01 -0.11640551117E+03 -0.57433717928E+02  0.15873675286E+03  0.91106799937E+02 0.  0.
         13    1    3    3    0    0 -0.34348808040E+02  0.31004073516E+01  0.42721131921E+02  0.54904901895E+02  0.00000000000E+00 0. -1.
        -14    1    3    3    0    0  0.14553485542E+02  0.84240185648E+02  0.10518098153E+03  0.13554059058E+03  0.00000000000E+00 0.  1.
        -13    1    4    4    0    0  0.22586017927E+02 -0.10371152765E+02 -0.40296803366E+02  0.47344708015E+02  0.00000000000E+00 0. -1.
         13    1    4    4    0    0 -0.29516582652E+02 -0.10603435840E+03 -0.17136914561E+02  0.11139204484E+03  0.00000000000E+00 0.  1.
         21    1    1    2  502  501  0.26725887224E+02  0.29064918167E+02 -0.13095785667E+01  0.39506423680E+02  0.00000000000E+00 0. -1.
<scales pt_clust_5="13000.00000" pt_clust_6="13000.00000" pt_clust_7="13000.00000" pt_clust_8="13000.00000" pt_clust_9="39.48471"></scales>
<clustering>
<clus scale="   39.485">  2  9  1 -1</clus>
<clus scale="   79.839">  5  6 -1 -1</clus>
<clus scale="   91.107">  7  8 -1 -1</clus>
<clus scale="  122.872">  1  5  2 -1</clus>
<clus scale="   39.485">  2  5  1 -1</clus>
</clustering>
</event>
<event>
 9    1  0.2951046E-005  0.9628869E+02  0.7546771E-02  0.1294634E+00
          1   -1    0    0  502    0  0.00000000000E+00  0.00000000000E+00  0.48490046952E+02  0.48490046952E+02  0.00000000000E+00 0. -1.
         -2   -1    0    0    0  501 -0.00000000000E+00 -0.00000000000E+00 -0.36016836001E+03  0.36016836001E+03  0.00000000000E+00 0.  1.
         23    2    1    2    0    0  0.19561397041E+02  0.20065164487E+02 -0.26024604742E+03  0.27730254050E+03  0.91561098118E+02 0.  0.
        -24    2    1    2    0    0 -0.38030718594E+02 -0.85889823992E+01 -0.60552372526E+02  0.10777632144E+03  0.80181291263E+02 0.  0.
         11    1    4    4    0    0 -0.30024844306E+02  0.25893626935E+02 -0.24302814938E+01  0.39722505706E+02  0.00000000000E+00 0. -1.
        -12    1    4    4    0    0 -0.80058742880E+01 -0.34482609334E+02 -0.58122091032E+02  0.68053815731E+02  0.00000000000E+00 0.  1.
        -13    1    3    3    0    0  0.19196565361E+02 -0.35396712875E+02 -0.10646631704E+03  0.11382667555E+03  0.00000000000E+00 0. -1.
         13    1    3    3    0    0  0.36483168004E+00  0.55461877362E+02 -0.15377973039E+03  0.16347586495E+03  0.00000000000E+00 0.  1.
         21    1    1    2  502  501  0.18469321553E+02 -0.11476182088E+02  0.91201068896E+01  0.23579545026E+02  0.00000000000E+00 0. -1.
<scales pt_clust_5="13000.00000" pt_clust_6="13000.00000" pt_clust_7="13000.00000" pt_clust_8="13000.00000" pt_clust_9="21.74439"></scales>
<clustering>
<clus scale="   21.744">  1  9  2 -1</clus>
<clus scale="   80.181">  5  6 -1 -1</clus>
<clus scale="   85.540">  1  5  2 -1</clus>
<clus scale="   91.561">  7  8 -1 -1</clus>
<clus scale="   21.744">  1  5  2 -1</clus>
</clustering>
</event>
<event>
 9    1  0.2951046E-005  0.1527170E+03  0.7546771E-02  0.1224298E+00
         -2   -1    0    0    0  501 -0.00000000000E+00  0.00000000000E+00  0.66210879973E+02  0.66210879973E+02  0.00000000000E+00 0.  1.
          1   -1    0    0  502    0  0.00000000000E+00 -0.00000000000E+00 -0.58132410875E+03  0.58132410875E+03  0.00000000000E+00 0. -1.
         23    2    1    2    0    0  0.12244888555E+03 -0.47672247229E+02 -0.98614276149E+02  0.18762305382E+03  0.90616014790E+02 0.  0.
        -24    2    1    2    0    0 -0.18257751523E+02  0.22174272733E+02 -0.15146487678E+03  0.17399411371E+03  0.80667830299E+02 0.  0.
         13    1    4    4    0    0 -0.26690146341E+02  0.44573801576E+02 -0.13577537074E+03  0.14537585425E+03  0.00000000000E+00 0. -1.
        -14    1    4    4    0    0  0.84323948181E+01 -0.22399528843E+02 -0.15689506039E+02  0.28618259460E+02  0.00000000000E+00 0.  1.
        -11    1    3    3    0    0  0.95401969052E+02 -0.15094199642E+01 -0.93970958745E+02  0.13391921122E+03  0.00000000000E+00 0.  1.
         11    1    3    3    0    0  0.27046916502E+02 -0.46162827265E+02 -0.46433174041E+01  0.53703842599E+02  0.00000000000E+00 0. -1.
         21    1    1    2  502  501 -0.10419113403E+03  0.25497974496E+02 -0.26503407584E+03  0.28591782119E+03  0.00000000000E+00 0.  1.
<scales pt_clust_5="13000.00000" pt_clust_6="13000.00000" pt_clust_7="13000.00000" pt_clust_8="13000.00000" pt_clust_9="122.92772"></scales>
<clustering>
<clus scale="   80.668">  5  6 -1 -1</clus>
<clus scale="   85.629">  2  5  1 -1</clus>
<clus scale="   90.616">  7  8 -1 -1</clus>
<clus scale="  122.928">  2  9  1 -1</clus>
<clus scale="   85.629">  2  5  1 -1</clus>
</clustering>
</event>
<event>
 9    1  0.2951046E-005  0.1014503E+03  0.7546771E-02  0.1282642E+00
          1   -1    0    0  502    0  0.00000000000E+00  0.00000000000E+00  0.15356445410E+03  0.15356445410E+03  0.00000000000E+00 0. -1.
         -2   -1    0    0    0  501 -0.00000000000E+00 -0.00000000000E+00 -0.92421888466E+02  0.92421888466E+02  0.00000000000E+00 0.  1.
        -24    2    1    2    0    0 -0.41565628323E+02 -0.28671522467E+01 -0.19862568085E+02  0.93439396615E+02  0.81243321011E+02 0.  0.
         23    2    1    2    0    0  0.40399052461E+02  0.24854873513E+02  0.51627405512E+02  0.11583357372E+03  0.92207264490E+02 0.  0.
         11    1    3    3    0    0 -0.25761127547E+02  0.38280203131E+02 -0.29753939107E+01  0.46237026431E+02  0.00000000000E+00 0. -1.
        -12    1    3    3    0    0 -0.15804500776E+02 -0.41147355378E+02 -0.16887174174E+02  0.47202370184E+02  0.00000000000E+00 0.  1.
        -13    1    4    4    0    0 -0.29464489503E+02  0.19559126268E+01  0.91027121423E+01  0.30900503301E+02  0.00000000000E+00 0.  1.
         13    1    4    4    0    0  0.69863541964E+02  0.22898960886E+02  0.42524693370E+02  0.84933070424E+02  0.00000000000E+00 0. -1.
         21    1    1    2  502  501  0.11665758618E+01 -0.21987721266E+02  0.29377728208E+02  0.36713372229E+02  0.00000000000E+00 0.  1.
<scales pt_clust_5="13000.00000" pt_clust_6="13000.00000" pt_clust_7="13000.00000" pt_clust_8="13000.00000" pt_clust_9="22.01865"></scales>
<clustering>
<clus scale="   22.019">  1  9  2 -1</clus>
<clus scale="   81.243">  5  6 -1 -1</clus>
<clus scale="   91.599">  2  5  1 -1</clus>
<clus scale="   92.207">  7  8 -1 -1</clus>
<clus scale="   22.019">  1  5  2 -1</clus>
</clustering>
</event>
<event>
 9    1  0.2951046E-005  0.1066844E+03  0.7546771E-02  0.1272216E+00
         -2   -1    0    0    0  501 -0.00000000000E+00  0.00000000000E+00  0.48673549280E+02  0.48673549280E+02  0.00000000000E+00 0.  1.
          1   -1    0    0  502    0  0.00000000000E+00 -0.00000000000E+00 -0.43260519796E+03  0.43260519796E+03  0.00000000000E+00 0. -1.
         23    2    1    2    0    0 -0.40327328471E+02  0.36656785944E+02 -0.46777062415E+02  0.11751257127E+03  0.93011275991E+02 0.  0.
        -24    2    1    2    0    0  0.53021993609E+02 -0.41116550809E+01 -0.28545553046E+03  0.30137120472E+03  0.80693900950E+02 0.  0.
         11    1    4    4    0    0 -0.16380384844E+02 -0.17252338701E+02 -0.10319877475E+03  0.10590536959E+03  0.00000000000E+00 0. -1.
        -12    1    4    4    0    0  0.69402378453E+02  0.13140683620E+02 -0.18225675572E+03  0.19546583514E+03  0.00000000000E+00 0.  1.
        -13    1    3    3    0    0  0.64338119268E+00  0.47267814971E+02  0.83593507938E+01  0.48005614434E+02  0.00000000000E+00 0.  1.
         13    1    3    3    0    0 -0.40970709664E+02 -0.10611029027E+02 -0.55136413208E+02  0.69506956838E+02  0.00000000000E+00 0. -1.
         21    1    1    2  502  501 -0.12694665138E+02 -0.32545130863E+02 -0.51699055798E+02  0.62394971242E+02  0.00000000000E+00 0. -1.
<scales pt_clust_5="13000.00000" pt_clust_6="13000.00000" pt_clust_7="13000.00000" pt_clust_8="13000.00000" pt_clust_9="34.93337"></scales>
<clustering>
<clus scale="   34.933">  2  9  1 -1</clus>
<clus scale="   80.694">  5  6 -1 -1</clus>
<clus scale="   93.011">  7  8 -1 -1</clus>
<clus scale="   96.135">  2  5  1 -1</clus>
<clus scale="   34.933">  2  5  1 -1</clus>
</clustering>
</event>
<event>
 9    1  0.2951046E-005  0.4077811E+03  0.7546771E-02  0.1041298E+00
         -2   -1    0    0    0  501 -0.00000000000E+00  0.00000000000E+00  0.65694726907E+03  0.65694726907E+03  0.00000000000E+00 0.  1.
          1   -1    0    0  502    0  0.00000000000E+00 -0.00000000000E+00 -0.10103798930E+04  0.10103798930E+04  0.00000000000E+00 0. -1.
        -24    2    1    2    0    0 -0.25694988471E+03 -0.30485795059E+03  0.53885321320E+03  0.67510679620E+03  0.80279434545E+02 0.  0.
         23    2    1    2    0    0  0.22431625546E+03  0.31399895697E+03 -0.77979794384E+03  0.87473829109E+03  0.90383168990E+02 0.  0.
         11    1    3    3    0    0 -0.87522040294E+02 -0.66915924550E+02  0.10577889775E+03  0.15273186866E+03  0.00000000000E+00 0. -1.
        -12    1    3    3    0    0 -0.16942784442E+03 -0.23794202605E+03  0.43307431545E+03  0.52237492755E+03  0.00000000000E+00 0.  1.
        -13    1    4    4    0    0  0.12335986063E+03  0.17949565498E+03 -0.53600763075E+03  0.57856764998E+03  0.00000000000E+00 0. -1.
         13    1    4    4    0    0  0.10095639482E+03  0.13450330199E+03 -0.24379031309E+03  0.29617064112E+03  0.00000000000E+00 0.  1.
         21    1    1    2  502  501  0.32633629255E+02 -0.91410063750E+01 -0.11248789325E+03  0.11748207473E+03  0.00000000000E+00 0.  1.
<scales pt_clust_5="13000.00000" pt_clust_6="13000.00000" pt_clust_7="13000.00000" pt_clust_8="13000.00000" pt_clust_9="33.88970"></scales>
<clustering>
<clus scale="   33.890">  2  9  1 -1</clus>
<clus scale="   80.279">  5  6 -1 -1</clus>
<clus scale="   90.383">  7  8 -1 -1</clus>
<clus scale="  405.661">  1  5  2 -1</clus>
<clus scale="   33.890">  2  5  1 -1</clus>
</clustering>
</event>
<event>
 9    1  0.2951046E-005  0.2672864E+03  0.7546771E-02  0.1103361E+00
         -2   -1    0    0    0  501 -0.00000000000E+00  0.00000000000E+00  0.20620128206E+03  0.20620128206E+03  0.00000000000E+00 0.  1.
          1   -1    0    0  502    0  0.00000000000E+00 -0.00000000000E+00 -0.11016322386E+04  0.11016322386E+04  0.00000000000E+00 0. -1.
         23    2    1    2    0    0 -0.59791869158E+02  0.24697904914E+03  0.82269318952E+02  0.28224953958E+03  0.91229619212E+02 0.  0.
        -24    2    1    2    0    0  0.10172510890E+03 -0.20719480820E+03 -0.86594677835E+03  0.89976654768E+03  0.80239211502E+02 0.  0.
         11    1    4    4    0    0  0.64826111254E+02 -0.17730436317E+03 -0.58131601184E+03  0.61120174045E+03  0.00000000000E+00 0. -1.
        -12    1    4    4    0    0  0.36898997651E+02 -0.29890445032E+02 -0.28463076651E+03  0.28856480724E+03  0.00000000000E+00 0.  1.
        -11    1    3    3    0    0 -0.11696635431E+02  0.20526185264E+03  0.71532917875E+02  0.21768371039E+03  0.00000000000E+00 0.  1.
         11    1    3    3    0    0 -0.48095233727E+02  0.41717196501E+02  0.10736401076E+02  0.64565829192E+02  0.00000000000E+00 0. -1.
         21    1    1    2  502  501 -0.41933239746E+02 -0.39784240945E+02 -0.11175349716E+03  0.12581743341E+03  0.00000000000E+00 0.  1.
<scales pt_clust_5="13000.00000" pt_clust_6="13000.00000" pt_clust_7="13000.00000" pt_clust_8="13000.00000" pt_clust_9="57.80296"></scales>
<clustering>
<clus scale="   57.803">  2  9  1 -1</clus>
<clus scale="   80.239">  5  6 -1 -1</clus>
<clus scale="   91.230">  7  8 -1 -1</clus>
<clus scale="  263.738">  2  5  1 -1</clus>
<clus scale="   57.803">  2  5  1 -1</clus>
</clustering>
</event>
<event>
 9    1  0.2951046E-005  0.1136940E+03  0.7546771E-02  0.1260137E+00
          3   -1    0    0  502    0  0.00000000000E+00  0.00000000000E+00  0.12130978669E+03  0.12130978669E+03  0.00000000000E+00 0. -1.
         -4   -1    0    0    0  501 -0.00000000000E+00 -0.00000000000E+00 -0.27280284282E+03  0.27280284282E+03  0.00000000000E+00 0.  1.
         23    2    1    2    0    0  0.45383511761E+02  0.18786420187E+02 -0.14856258134E+03  0.17934789650E+03  0.87648358131E+02 0.  0.
        -24    2    1    2    0    0  0.57413426252E+02 -0.37639821657E+02  0.21730456931E+02  0.10738306434E+03  0.79660856515E+02 0.  0.
         11    1    4    4    0    0  0.63594041274E+02 -0.29130458199E+02  0.44082462697E+02  0.82680403953E+02  0.00000000000E+00 0. -1.
        -12    1    4    4    0    0 -0.61806150216E+01 -0.85093634575E+01 -0.22352005766E+02  0.24702660389E+02  0.00000000000E+00 0.  1.
        -13    1    3    3    0    0  0.17307050064E+02  0.40681311923E+02 -0.25066008521E+02  0.50821333167E+02  0.00000000000E+00 0.  1.
         13    1    3    3    0    0  0.28076461697E+02 -0.21894891736E+02 -0.12349657281E+03  0.12852656333E+03  0.00000000000E+00 0. -1.
         21    1    1    2  502  501 -0.10279693801E+03  0.18853401470E+02 -0.24660931722E+02  0.10738166866E+03  0.00000000000E+00 0.  1.
<scales pt_clust_5="13000.00000" pt_clust_6="13000.00000" pt_clust_7="13000.00000" pt_clust_8="13000.00000" pt_clust_9="81.12015"></scales>
<clustering>
<clus scale="   79.661">  5  6 -1 -1</clus>
<clus scale="   87.648">  7  8 -1 -1</clus>
<clus scale="  100.473">  2  7  1 -1</clus>
<clus scale="   81.120">  2  9  1 -1</clus>
<clus scale="  113.694">  1  5  2 -1</clus>
</clustering>
</event>
<event>
 9    1  0.2951046E-005  0.1832543E+03  0.7546771E-02  0.1165930E+00
          1   -1    0    0  502    0  0.00000000000E+00  0.00000000000E+00  0.66421616485E+03  0.66421616485E+03  0.00000000000E+00 0. -1.
         -2   -1    0    0    0  501 -0.00000000000E+00 -0.00000000000E+00 -0.58748349742E+03  0.58748349742E+03  0.00000000000E+00 0.  1.
        -24    2    1    2    0    0  0.15533709914E+03 -0.46290245469E+02 -0.55001644367E+03  0.57894348965E+03  0.79906662461E+02 0.  0.
         23    2    1    2    0    0 -0.11114456365E+03  0.85048441486E+01  0.22638505384E+03  0.26819209230E+03  0.90836993372E+02 0.  0.
         11    1    3    3    0    0  0.11358015386E+02  0.18919482291E+02 -0.53354651010E+02  0.57737943400E+02  0.00000000000E+00 0. -1.
        -12    1    3    3    0    0  0.14397908376E+03 -0.65209727760E+02 -0.49666179266E+03  0.52120554625E+03  0.00000000000E+00 0.  1.
        -11    1    4    4    0    0 -0.45719950748E+02 -0.39741516090E+02  0.75460274463E+02  0.96767530813E+02  0.00000000000E+00 0. -1.
         11    1    4    4    0    0 -0.65424612906E+02  0.48246360239E+02  0.15092477937E+03  0.17142456148E+03  0.00000000000E+00 0.  1.
         21    1    1    2  502  501 -0.44192535489E+02  0.37785401320E+02  0.40036405725E+03  0.40456408032E+03  0.00000000000E+00 0. -1.
<scales pt_clust_5="13000.00000" pt_clust_6="13000.00000" pt_clust_7="13000.00000" pt_clust_8="13000.00000" pt_clust_9="58.14393"></scales>
<clustering>
<clus scale="   58.144">  1  9  2 -1</clus>
<clus scale="   79.907">  5  6 -1 -1</clus>
<clus scale="   90.837">  7  8 -1 -1</clus>
<clus scale="  178.089">  2  5  1 -1</clus>
<clus scale="   58.144">  1  5  2 -1</clus>
</clustering>
</event>
<event>
 9    1  0.2951046E-005  0.1677281E+03  0.7546771E-02  0.1181829E+00
         -2   -1    0    0    0  501 -0.00000000000E+00  0.00000000000E+00  0.40342773075E+03  0.40342773075E+03  0.00000000000E+00 0.  1.
          1   -1    0    0  502    0  0.00000000000E+00 -0.00000000000E+00 -0.99301480059E+02  0.99301480059E+02  0.00000000000E+00 0. -1.
        -24    2    1    2    0    0 -0.11850327384E+03  0.10080929464E+03  0.16931258836E+03  0.24362195209E+03  0.80494491521E+02 0.  0.
         23    2    1    2    0    0  0.57828607612E+02 -0.11535219507E+03  0.10478198696E+03  0.18986267337E+03  0.91751257115E+02 0.  0.
         13    1    3    3    0    0  0.43213264227E+01  0.21806229519E+02  0.51130294494E+02  0.55753856575E+02  0.00000000000E+00 0. -1.
        -14    1    3    3    0    0 -0.12282460027E+03  0.79003065118E+02  0.11818229387E+03  0.18786809551E+03  0.00000000000E+00 0.  1.
        -13    1    4    4    0    0 -0.74328601366E+01 -0.72046425126E+02  0.79533364730E+02  0.10757086450E+03  0.00000000000E+00 0. -1.
         13    1    4    4    0    0  0.65261467748E+02 -0.43305769939E+02  0.25248622230E+02  0.82291808871E+02  0.00000000000E+00 0.  1.
         21    1    1    2  502  501  0.60674666232E+02  0.14542900428E+02  0.30031675371E+02  0.69244585354E+02  0.00000000000E+00 0.  1.
<scales pt_clust_5="13000.00000" pt_clust_6="13000.00000" pt_clust_7="13000.00000" pt_clust_8="13000.00000" pt_clust_9="62.39320"></scales>
<clustering>
<clus scale="   62.393">  2  9  1 -1</clus>
<clus scale="   80.494">  5  6 -1 -1</clus>
<clus scale="   91.751">  7  8 -1 -1</clus>
<clus scale="  161.845">  1  5  2 -1</clus>
<clus scale="   62.393">  2  5  1 -1</clus>
</clustering>
</event>
<event>
 9    1  0.2951046E-005  0.1036303E+03  0.7546771E-02  0.1277849E+00
          1   -1    0    0  502    0  0.00000000000E+00  0.00000000000E+00  0.88714975828E+02  0.88714975828E+02  0.00000000000E+00 0. -1.
         -2   -1    0    0    0  501 -0.00000000000E+00 -0.00000000000E+00 -0.21322417858E+03  0.21322417858E+03  0.00000000000E+00 0.  1.
         23    2    1    2    0    0  0.31080922978E+02 -0.38472768342E+02 -0.11431875374E+03  0.15444332504E+03  0.91311475265E+02 0.  0.
        -24    2    1    2    0    0 -0.46261495363E+02  0.22176143813E+02 -0.45570216115E+02  0.10568963761E+03  0.80384996070E+02 0.  0.
         13    1    4    4    0    0  0.49640556898E+01  0.38508171574E+02 -0.31802401735E+02  0.50188782441E+02  0.00000000000E+00 0. -1.
        -14    1    4    4    0    0 -0.51225551052E+02 -0.16332027760E+02 -0.13767814381E+02  0.55500855166E+02  0.00000000000E+00 0.  1.
        -13    1    3    3    0    0  0.74448034474E+01  0.25664359856E+02 -0.64633256461E+02  0.69939561809E+02  0.00000000000E+00 0.  1.
         13    1    3    3    0    0  0.23636119531E+02 -0.64137128199E+02 -0.49685497279E+02  0.84503763229E+02  0.00000000000E+00 0. -1.
         21    1    1    2  502  501  0.15180572384E+02  0.16296624529E+02  0.35379767106E+02  0.41806191759E+02  0.00000000000E+00 0. -1.
<scales pt_clust_5="13000.00000" pt_clust_6="13000.00000" pt_clust_7="13000.00000" pt_clust_8="13000.00000" pt_clust_9="22.27173"></scales>
<clustering>
<clus scale="   22.272">  1  9  2 -1</clus>
<clus scale="   80.385">  5  6 -1 -1</clus>
<clus scale="   91.311">  7  8 -1 -1</clus>
<clus scale="   94.145">  1  5  2 -1</clus>
<clus scale="   22.272">  1  5  2 -1</clus>
</clustering>
</event>
<event>
 9    1  0.2951046E-005  0.1814882E+03  0.7546771E-02  0.1167554E+00
         -2   -1    0    0    0  501 -0.00000000000E+00  0.00000000000E+00  0.34828563666E+03  0.34828563666E+03  0.00000000000E+00 0.  1.
          1   -1    0    0  502    0  0.00000000000E+00 -0.00000000000E+00 -0.21147922060E+03  0.21147922060E+03  0.00000000000E+00 0. -1.
         23    2    1    2    0    0  0.58485693564E+02 -0.15704993996E+03  0.26209914265E+03  0.32310080487E+03  0.87251988713E+02 0.  0.
        -24    2    1    2    0    0 -0.39316692606E+02  0.10968739229E+03 -0.12230514667E+03  0.18548214980E+03  0.76602562909E+02 0.  0.
         11    1    4    4    0    0 -0.44907320160E+02  0.11942036231E+03 -0.11682582300E+03  0.17299180113E+03  0.00000000000E+00 0. -1.
        -12    1    4    4    0    0  0.55906275538E+01 -0.97329700196E+01 -0.54793236748E+01  0.12490348665E+02  0.00000000000E+00 0.  1.
        -13    1    3    3    0    0 -0.22105191703E+02 -0.44196272018E+02  0.55940194490E+02  0.74640842171E+02  0.00000000000E+00 0. -1.
         13    1    3    3    0    0  0.80590885267E+02 -0.11285366795E+03  0.20615894816E+03  0.24845996270E+03  0.00000000000E+00 0.  1.
         21    1    1    2  502  501 -0.19169000958E+02  0.47362547671E+02 -0.29875799104E+01  0.51181902596E+02  0.00000000000E+00 0. -1.
<scales pt_clust_5="13000.00000" pt_clust_6="13000.00000" pt_clust_7="13000.00000" pt_clust_8="13000.00000" pt_clust_9="51.09463"></scales>
<clustering>
<clus scale="   51.095">  2  9  1 -1</clus>
<clus scale="   76.603">  5  6 -1 -1</clus>
<clus scale="   87.252">  7  8 -1 -1</clus>
<clus scale="  176.615">  2  5  1 -1</clus>
<clus scale="   51.095">  2  5  1 -1</clus>
</clustering>
</event>
<event>
 9    1  0.2951046E-005  0.1239139E+03  0.7546771E-02  0.1239890E+00
          1   -1    0    0  502    0  0.00000000000E+00  0.00000000000E+00  0.96380494941E+02  0.96380494941E+02  0.00000000000E+00 0. -1.
         -2   -1    0    0    0  501 -0.00000000000E+00 -0.00000000000E+00 -0.40237108291E+03  0.40237108291E+03  0.00000000000E+00 0.  1.
         23    2    1    2    0    0  0.72087661426E+02 -0.52261839608E+02 -0.32820609529E+03  0.35215153611E+03  0.91452351472E+02 0.  0.
        -24    2    1    2    0    0 -0.44466685666E+02  0.45080586208E+02 -0.10457832111E+02  0.10321760505E+03  0.80839114007E+02 0.  0.
         13    1    4    4    0    0 -0.33591377334E+02  0.74585461281E+01  0.30909099833E+02  0.46253464670E+02  0.00000000000E+00 0. -1.
        -14    1    4    4    0    0 -0.10875308332E+02  0.37622040080E+02 -0.41366931944E+02  0.56964140383E+02  0.00000000000E+00 0.  1.
        -13    1    3    3    0    0  0.49907908259E+02 -0.70935119647E+02 -0.16517100207E+03  0.18655843704E+03  0.00000000000E+00 0.  1.
         13    1    3    3    0    0  0.22179753167E+02  0.18673280039E+02 -0.16303509323E+03  0.16559309908E+03  0.00000000000E+00 0. -1.
         21    1    1    2  502  501 -0.27620975760E+02  0.71812534004E+01  0.32673339439E+02  0.43382436682E+02  0.00000000000E+00 0.  1.
<scales pt_clust_5="13000.00000" pt_clust_6="13000.00000" pt_clust_7="13000.00000" pt_clust_8="13000.00000" pt_clust_9="28.53925"></scales>
<clustering>
<clus scale="   28.539">  1  9  2 -1</clus>
<clus scale="   80.839">  5  6 -1 -1</clus>
<clus scale="   91.452">  7  8 -1 -1</clus>
<clus scale="  116.302">  1  5  2 -1</clus>
<clus scale="   28.539">  1  5  2 -1</clus>
</clustering>
</event>
<event>
 9    1  0.2951046E-005  0.9774944E+02  0.7546771E-02  0.1289766E+00
          3   -1    0    0  502    0  0.00000000000E+00  0.00000000000E+00  0.33638562996E+03  0.33638562996E+03  0.00000000000E+00 0. -1.
         -4   -1    0    0    0  501 -0.00000000000E+00 -0.00000000000E+00 -0.23163336056E+03  0.23163336056E+03  0.00000000000E+00 0.  1.
         23    2    1    2    0    0  0.28390980356E+02 -0.32319154313E+02 -0.21071106748E+03  0.23232886845E+03  0.87903206179E+02 0.  0.
        -24    2    1    2    0    0 -0.70812303554E+01  0.42686150112E+02  0.22711403888E+03  0.24421783937E+03  0.78672200758E+02 0.  0.
         11    1    4    4    0    0 -0.11192837450E+02  0.65337877717E+02  0.15700265414E+03  0.17042344698E+03  0.00000000000E+00 0. -1.
        -12    1    4    4    0    0  0.41116070948E+01 -0.22651727606E+02  0.70111384748E+02  0.73794392386E+02  0.00000000000E+00 0.  1.
        -11    1    3    3    0    0 -0.20065241397E+02 -0.40893445196E+02 -0.13055138734E+03  0.13826985394E+03  0.00000000000E+00 0.  1.
         11    1    3    3    0    0  0.48456221753E+02  0.85742908833E+01 -0.80159680140E+02  0.94059014511E+02  0.00000000000E+00 0. -1.
         21    1    1    2  502  501 -0.21309750000E+02 -0.10366995799E+02  0.88349297992E+02  0.91472282702E+02  0.00000000000E+00 0.  1.
<scales pt_clust_5="13000.00000" pt_clust_6="13000.00000" pt_clust_7="13000.00000" pt_clust_8="13000.00000" pt_clust_9="23.69768"></scales>
<clustering>
<clus scale="   23.698">  1  9  2 -1</clus>
<clus scale="   78.672">  5  6 -1 -1</clus>
<clus scale="   87.903">  7  8 -1 -1</clus>
<clus scale="   89.539">  1  5  2 -1</clus>
<clus scale="   23.698">  1  5  2 -1</clus>
</clustering>
</event>
<event>
 9    1  0.2951046E-005  0.9658241E+02  0.7546771E-02  0.1294077E+00
          1   -1    0    0  502    0  0.00000000000E+00  0.00000000000E+00  0.83347074457E+03  0.83347074457E+03  0.00000000000E+00 0. -1.
         -2   -1    0    0    0  501 -0.00000000000E+00 -0.00000000000E+00 -0.31701812617E+02  0.31701812617E+02  0.00000000000E+00 0.  1.
         23    2    1    2    0    0  0.28812812635E+02  0.16700388058E+02  0.63399340537E+02  0.11621815749E+03  0.91531975928E+02 0.  0.
        -24    2    1    2    0    0  0.29217353364E+01 -0.35248425926E+02  0.46682497027E+03  0.47493324628E+03  0.79906492158E+02 0.  0.
         13    1    4    4    0    0 -0.31876754836E+02 -0.11218837389E+02  0.97402738119E+02  0.10309841514E+03  0.00000000000E+00 0. -1.
        -14    1    4    4    0    0  0.34798490172E+02 -0.24029588537E+02  0.36942223215E+03  0.37183483114E+03  0.00000000000E+00 0.  1.
        -13    1    3    3    0    0  0.28155954302E+02  0.51318524501E+02  0.22697909531E+02  0.62781715624E+02  0.00000000000E+00 0. -1.
         13    1    3    3    0    0  0.65685833213E+00 -0.34618136443E+02  0.40701431006E+02  0.53436441869E+02  0.00000000000E+00 0.  1.
         21    1    1    2  502  501 -0.31734547971E+02  0.18548037869E+02  0.27154462115E+03  0.27402115342E+03  0.00000000000E+00 0. -1.
<scales pt_clust_5="13000.00000" pt_clust_6="13000.00000" pt_clust_7="13000.00000" pt_clust_8="13000.00000" pt_clust_9="36.75747"></scales>
<clustering>
<clus scale="   36.757">  1  9  2 -1</clus>
<clus scale="   79.906">  5  6 -1 -1</clus>
<clus scale="   85.645">  1  5  2 -1</clus>
<clus scale="   91.532">  7  8 -1 -1</clus>
<clus scale="   36.757">  1  5  2 -1</clus>
</clustering>
</event>
<event>
 9    1  0.2951046E-005  0.1183872E+03  0.7546771E-02  0.1249809E+00
          1   -1    0    0  502    0  0.00000000000E+00  0.00000000000E+00  0.38692901010E+03  0.38692901010E+03  0.00000000000E+00 0. -1.
         -2   -1    0    0    0  501 -0.00000000000E+00 -0.00000000000E+00 -0.10133028755E+03  0.10133028755E+03  0.00000000000E+00 0.  1.
         23    2    1    2    0    0  0.33335687187E+02  0.61762280529E+02  0.15233294492E+02  0.11539681771E+03  0.90324553365E+02 0.  0.
        -24    2    1    2    0    0 -0.12750252986E+03 -0.13911070368E+02  0.14167829072E+03  0.20637670912E+03  0.77898620043E+02 0.  0.
         11    1    4    4    0    0 -0.11278799567E+03  0.11827490037E+02  0.13439109732E+03  0.17584649137E+03  0.00000000000E+00 0. -1.
        -12    1    4    4    0    0 -0.14714534190E+02 -0.25738560405E+02  0.72871934046E+01  0.30530217750E+02  0.00000000000E+00 0.  1.
        -13    1    3    3    0    0  0.55404846331E+02  0.11153413756E+02 -0.46663609712E+01  0.56708646256E+02  0.00000000000E+00 0.  1.
         13    1    3    3    0    0 -0.22069159145E+02  0.50608866772E+02  0.19899655463E+02  0.58688171456E+02  0.00000000000E+00 0. -1.
         21    1    1    2  502  501  0.94166842671E+02 -0.47851210161E+02  0.12868713733E+03  0.16648577083E+03  0.00000000000E+00 0.  1.
<scales pt_clust_5="13000.00000" pt_clust_6="13000.00000" pt_clust_7="13000.00000" pt_clust_8="13000.00000" pt_clust_9="105.62733"></scales>
<clustering>
<clus scale="   77.899">  5  6 -1 -1</clus>
<clus scale="   90.325">  7  8 -1 -1</clus>
<clus scale="  105.627">  1  9  2 -1</clus>
<clus scale="  109.203">  1  5  2 -1</clus>
<clus scale="  105.627">  1  5  2 -1</clus>
</clustering>
</event>
<event>
 9    1  0.2951046E-005  0.1042726E+03  0.7546771E-02  0.1276149E+00
         -2   -1    0    0    0  501 -0.00000000000E+00  0.00000000000E+00  0.10327665048E+04  0.10327665048E+04  0.00000000000E+00 0.  1.
          1   -1    0    0  502    0  0.00000000000E+00 -0.00000000000E+00 -0.65828918731E+02  0.65828918731E+02  0.00000000000E+00 0. -1.
        -24    2    1    2    0    0  0.52410680362E+02  0.50509086208E+01  0.96767945589E+03  0.97243464227E+03  0.80331893051E+02 0.  0.
         23    2    1    2    0    0 -0.26277472332E+02 -0.16654765918E+02 -0.94379926824E+01  0.96274051444E+02  0.90618599060E+02 0.  0.
         13    1    3    3    0    0  0.51669120439E+02  0.13705169841E+02  0.30173754168E+03  0.30643608428E+03  0.00000000000E+00 0. -1.
        -14    1    3    3    0    0  0.74155992320E+00 -0.86542612206E+01  0.66594191421E+03  0.66599855799E+03  0.00000000000E+00 0.  1.
        -11    1    4    4    0    0 -0.11188240129E+02 -0.53784315231E+02 -0.11562336753E+02  0.56139263562E+02  0.00000000000E+00 0. -1.
         11    1    4    4    0    0 -0.15089232203E+02  0.37129549313E+02  0.21243440706E+01  0.40134787883E+02  0.00000000000E+00 0.  1.
         21    1    1    2  502  501 -0.26133208030E+02  0.11603857297E+02  0.86961228555E+01  0.29886729811E+02  0.00000000000E+00 0. -1.
<scales pt_clust_5="13000.00000" pt_clust_6="13000.00000" pt_clust_7="13000.00000" pt_clust_8="13000.00000" pt_clust_9="28.59360"></scales>
<clustering>
<clus scale="   28.594">  2  9  1 -1</clus>
<clus scale="   80.332">  5  6 -1 -1</clus>
<clus scale="   90.619">  7  8 -1 -1</clus>
<clus scale="   95.469">  1  5  2 -1</clus>
<clus scale="   28.594">  2  5  1 -1</clus>
</clustering>
</event>
<event>
 9    1  0.2951046E-005  0.1624719E+03  0.7546771E-02  0.1187704E+00
         -2   -1    0    0    0  501 -0.00000000000E+00  0.00000000000E+00  0.29935147110E+02  0.29935147110E+02  0.00000000000E+00 0.  1.
          1   -1    0    0  502    0  0.00000000000E+00 -0.00000000000E+00 -0.15721726727E+04  0.15721726727E+04  0.00000000000E+00 0. -1.
         23    2    1    2    0    0 -0.53411593639E+02 -0.12019078517E+03 -0.31437957245E+03  0.35309137510E+03  0.92414178706E+02 0.  0.
        -24    2    1    2    0    0  0.44579566268E+00  0.14818256582E+03 -0.88319962039E+03  0.89919037096E+03  0.80891793266E+02 0.  0.
         13    1    4    4    0    0  0.24727145687E+02  0.13243108762E+03 -0.62383776091E+03  0.63821859628E+03  0.00000000000E+00 0. -1.
        -14    1    4    4    0    0 -0.24281350024E+02  0.15751478202E+02 -0.25936185948E+03  0.26097177467E+03  0.00000000000E+00 0.  1.
        -13    1    3    3    0    0 -0.59499219646E+02 -0.79925579895E+02 -0.12744687731E+03  0.16177441700E+03  0.00000000000E+00 0.  1.
         13    1    3    3    0    0  0.60876260069E+01 -0.40265205270E+02 -0.18693269514E+03  0.19131695810E+03  0.00000000000E+00 0. -1.
         21    1    1    2  502  501  0.52965797977E+02 -0.27991780659E+02 -0.34465833272E+03  0.34982607372E+03  0.00000000000E+00 0. -1.
<scales pt_clust_5="13000.00000" pt_clust_6="13000.00000" pt_clust_7="13000.00000" pt_clust_8="13000.00000" pt_clust_9="59.90756"></scales>
<clustering>
<clus scale="   59.908">  2  9  1 -1</clus>
<clus scale="   80.892">  5  6 -1 -1</clus>
<clus scale="   92.414">  7  8 -1 -1</clus>
<clus scale="  156.206">  2  5  1 -1</clus>
<clus scale="   59.908">  2  5  1 -1</clus>
</clustering>
</event>
<event>
 9    1  0.2951046E-005  0.1455027E+03  0.7546771E-02  0.1208000E+00
          1   -1    0    0  502    0  0.00000000000E+00  0.00000000000E+00  0.32417623988E+03  0.32417623988E+03  0.00000000000E+00 0. -1.
         -2   -1    0    0    0  501 -0.00000000000E+00 -0.00000000000E+00 -0.18565830310E+03  0.18565830310E+03  0.00000000000E+00 0.  1.
        -24    2    1    2    0    0  0.36694417480E+02 -0.10883710923E+03 -0.12794153129E+03  0.19016451584E+03  0.81249683300E+02 0.  0.
         23    2    1    2    0    0 -0.11374740546E+02  0.10768827541E+03  0.17599734429E+03  0.22572428907E+03  0.90830832308E+02 0.  0.
         13    1    3    3    0    0  0.69744543382E+01 -0.94597941013E+02 -0.53849803057E+02  0.10907435421E+03  0.00000000000E+00 0. -1.
        -14    1    3    3    0    0  0.29719963141E+02 -0.14239168218E+02 -0.74091728235E+02  0.81090161632E+02  0.00000000000E+00 0.  1.
        -13    1    4    4    0    0  0.29260471693E+02  0.93941847373E+02  0.12522073832E+03  0.15925287815E+03  0.00000000000E+00 0.  1.
         13    1    4    4    0    0 -0.40635212239E+02  0.13746428040E+02  0.50776605963E+02  0.66471410927E+02  0.00000000000E+00 0. -1.
         21    1    1    2  502  501 -0.25319676933E+02  0.11488338180E+01  0.90462123794E+02  0.93945738064E+02  0.00000000000E+00 0. -1.
<scales pt_clust_5="13000.00000" pt_clust_6="13000.00000" pt_clust_7="13000.00000" pt_clust_8="13000.00000" pt_clust_9="25.34573"></scales>
<clustering>
<clus scale="   25.346">  1  9  2 -1</clus>
<clus scale="   81.250">  5  6 -1 -1</clus>
<clus scale="   90.831">  7  8 -1 -1</clus>
<clus scale="  139.722">  2  5  1 -1</clus>
<clus scale="   25.346">  1  5  2 -1</clus>
</clustering>
</event>
<event>
 9    1  0.2951046E-005  0.1123797E+03  0.7546771E-02  0.1265736E+00
          1   -1    0    0  502    0  0.00000000000E+00  0.00000000000E+00  0.12762901224E+03  0.12762901224E+03  0.00000000000E+00 0. -1.
         -2   -1    0    0    0  501 -0.00000000000E+00 -0.00000000000E+00 -0.47668370434E+03  0.47668370434E+03  0.00000000000E+00 0.  1.
        -24    2    1    2    0    0  0.43326375189E+02  0.20944317000E+02 -0.35699057674E+03  0.36971494433E+03  0.83252801616E+02 0.  0.
         23    2    1    2    0    0  0.10911888413E+02 -0.42377415220E+02 -0.73198248501E+02  0.13467823212E+03  0.10423688404E+03 0.  0.
         11    1    3    3    0    0 -0.21841187081E+01  0.37942602911E+02 -0.80896494536E+02  0.89379272309E+02  0.00000000000E+00 0. -1.
        -12    1    3    3    0    0  0.45510493898E+02 -0.16998285911E+02 -0.27609408220E+03  0.28033567202E+03  0.00000000000E+00 0.  1.
        -11    1    4    4    0    0 -0.37649187683E+02 -0.50304855084E+02 -0.49898437810E+02  0.80236487175E+02  0.00000000000E+00 0. -1.
         11    1    4    4    0    0  0.48561076096E+02  0.79274398648E+01 -0.23299810691E+02  0.54441744944E+02  0.00000000000E+00 0.  1.
         21    1    1    2  502  501 -0.54238263602E+02  0.21433098220E+02  0.81134133151E+02  0.99919540132E+02  0.00000000000E+00 0. -1.
<scales pt_clust_5="13000.00000" pt_clust_6="13000.00000" pt_clust_7="13000.00000" pt_clust_8="13000.00000" pt_clust_9="58.31952"></scales>
<clustering>
<clus scale="   58.320">  1  9  2 -1</clus>
<clus scale="   83.253">  5  6 -1 -1</clus>
<clus scale="   93.246">  2  5  1 -1</clus>
<clus scale="  104.237">  7  8 -1 -1</clus>
<clus scale="   58.320">  1  5  2 -1</clus>
</clustering>
</event>
<event>
 9    1  0.2951046E-005  0.1367576E+03  0.7546771E-02  0.1221700E+00
         -2   -1    0    0    0  501 -0.00000000000E+00  0.00000000000E+00  0.20237945013E+03  0.20237945013E+03  0.00000000000E+00 0.  1.
          1   -1    0    0  502    0  0.00000000000E+00 -0.00000000000E+00 -0.45593754710E+03  0.45593754710E+03  0.00000000000E+00 0. -1.
         23    2    1    2    0    0 -0.53725418612E+02 -0.77311399326E+02  0.14470563277E+03  0.19768909291E+03  0.96321255326E+02 0.  0.
        -24    2    1    2    0    0  0.45611440513E+02  0.10873843651E+03 -0.13826056251E+03  0.19860664130E+03  0.80150881096E+02 0.  0.
         11    1    4    4    0    0  0.58488879999E+02  0.37450043483E+02 -0.77408842164E+02  0.10399799847E+03  0.00000000000E+00 0. -1.
        -12    1    4    4    0    0 -0.12877439486E+02  0.71288393032E+02 -0.60851720347E+02  0.94608642829E+02  0.00000000000E+00 0.  1.
        -11    1    3    3    0    0 -0.27860380966E+02  0.52442024443E+01  0.92268334434E+02  0.96525375037E+02  0.00000000000E+00 0.  1.
         11    1    3    3    0    0 -0.25865037647E+02 -0.82555601771E+02  0.52437298335E+02  0.10116371787E+03  0.00000000000E+00 0. -1.
         21    1    1    2  502  501  0.81139780990E+01 -0.31427037188E+02 -0.26000316723E+03  0.26202126303E+03  0.00000000000E+00 0. -1.
<scales pt_clust_5="13000.00000" pt_clust_6="13000.00000" pt_clust_7="13000.00000" pt_clust_8="13000.00000" pt_clust_9="32.45759"></scales>
<clustering>
<clus scale="   32.458">  2  9  1 -1</clus>
<clus scale="   80.151">  5  6 -1 -1</clus>
<clus scale="   96.321">  7  8 -1 -1</clus>
<clus scale="  125.893">  2  5  1 -1</clus>
<clus scale="   32.458">  2  5  1 -1</clus>
</clustering>
</event>
<event>
 9    1  0.2951046E-005  0.1025357E+03  0.7546771E-02  0.1275446E+00
         -2   -1    0    0    0  501 -0.00000000000E+00  0.00000000000E+00  0.74275009215E+02  0.74275009215E+02  0.00000000000E+00 0.  1.
          1   -1    0    0  502    0  0.00000000000E+00 -0.00000000000E+00 -0.39795424014E+03  0.39795424014E+03  0.00000000000E+00 0. -1.
         23    2    1    2    0    0 -0.10830063130E+02 -0.72273637347E+02  0.75263254155E+01  0.10841944127E+03  0.79733059315E+02 0.  0.
        -24    2    1    2    0    0 -0.88104921429E+01  0.19754168181E+02 -0.26370595165E+03  0.27605878139E+03  0.78738617685E+02 0.  0.
         13    1    4    4    0    0 -0.28901627771E+02 -0.16450869499E+02 -0.17543209844E+03  0.17855631145E+03  0.00000000000E+00 0. -1.
        -14    1    4    4    0    0  0.20091135628E+02  0.36205037680E+02 -0.88273853204E+02  0.97502469936E+02  0.00000000000E+00 0.  1.
        -11    1    3    3    0    0 -0.45076841654E+02 -0.46397025885E+02 -0.81079305731E+00  0.64693609034E+02  0.00000000000E+00 0. -1.
         11    1    3    3    0    0  0.34246778525E+02 -0.25876611462E+02  0.83371184729E+01  0.43725832233E+02  0.00000000000E+00 0.  1.
         21    1    1    2  502  501  0.19640555273E+02  0.52519469166E+02 -0.67499604687E+02  0.87751026694E+02  0.00000000000E+00 0. -1.
<scales pt_clust_5="13000.00000" pt_clust_6="13000.00000" pt_clust_7="13000.00000" pt_clust_8="13000.00000" pt_clust_9="56.07179"></scales>
<clustering>
<clus scale="   56.072">  2  9  1 -1</clus>
<clus scale="   78.739">  5  6 -1 -1</clus>
<clus scale="   79.733">  7  8 -1 -1</clus>
<clus scale="  101.764">  2  5  1 -1</clus>
<clus scale="   56.072">  2  5  1 -1</clus>
</clustering>
</event>
<event>
 9    1  0.2951046E-005  0.1089245E+03  0.7546771E-02  0.1269114E+00
         -2   -1    0    0    0  501 -0.00000000000E+00  0.00000000000E+00  0.12518509286E+03  0.12518509286E+03  0.00000000000E+00 0.  1.
          1   -1    0    0  502    0  0.00000000000E+00 -0.00000000000E+00 -0.22675605228E+03  0.22675605228E+03  0.00000000000E+00 0. -1.
        -24    2    1    2    0    0 -0.34148188964E+02  0.57484457656E+02  0.54656112617E+02  0.11803443404E+03  0.80462881454E+02 0.  0.
         23    2    1    2    0    0 -0.86821293298E+01 -0.51107396447E+02 -0.15652736915E+03  0.19060320947E+03  0.95610777778E+02 0.  0.
         13    1    3    3    0    0  0.21940606792E+02 -0.29789864360E+01  0.11219653110E+02  0.24822272307E+02  0.00000000000E+00 0. -1.
        -14    1    3    3    0    0 -0.56088795756E+02  0.60463444092E+02  0.43436459507E+02  0.93212161735E+02  0.00000000000E+00 0.  1.
        -13    1    4    4    0    0  0.10985812557E+02 -0.66382626732E+02 -0.15068333420E+03  0.16502366016E+03  0.00000000000E+00 0. -1.
         13    1    4    4    0    0 -0.19667941886E+02  0.15275230285E+02 -0.58440349523E+01  0.25579549309E+02  0.00000000000E+00 0.  1.
         21    1    1    2  502  501  0.42830318294E+02 -0.63770612091E+01  0.30029710837E+00  0.43303501627E+02  0.00000000000E+00 0. -1.
<scales pt_clust_5="13000.00000" pt_clust_6="13000.00000" pt_clust_7="13000.00000" pt_clust_8="13000.00000" pt_clust_9="43.30246"></scales>
<clustering>
<clus scale="   43.302">  1  9  2 -1</clus>
<clus scale="   80.463">  5  6 -1 -1</clus>
<clus scale="   95.611">  7  8 -1 -1</clus>
<clus scale="   95.903">  1  5  2 -1</clus>
<clus scale="  108.925">  2  5  1 -1</clus>
</clustering>
</event>
<event>
 9    1  0.2951046E-005  0.9665793E+02  0.7546771E-02  0.1296600E+00
          1   -1    0    0  502    0  0.00000000000E+00  0.00000000000E+00  0.14096839277E+04  0.14096839277E+04  0.00000000000E+00 0. -1.
         -2   -1    0    0    0  501 -0.00000000000E+00 -0.00000000000E+00 -0.19361547753E+02  0.19361547753E+02  0.00000000000E+00 0.  1.
        -24    2    1    2    0    0  0.10878098523E+02  0.12243272169E+02  0.14013793630E+03  0.16236814067E+03  0.80352605268E+02 0.  0.
         23    2    1    2    0    0 -0.24086634404E+02  0.67144771593E+02  0.62048989320E+03  0.63186070474E+03  0.95664289707E+02 0.  0.
         13    1    3    3    0    0  0.41825402579E+02 -0.97223863215E+01  0.87585571664E+02  0.97545484059E+02  0.00000000000E+00 0. -1.
        -14    1    3    3    0    0 -0.30947304056E+02  0.21965658490E+02  0.52552364632E+02  0.64822656607E+02  0.00000000000E+00 0.  1.
        -11    1    4    4    0    0 -0.57119422383E+02  0.64405669043E+02  0.43612719286E+03  0.44454206435E+03  0.00000000000E+00 0.  1.
         11    1    4    4    0    0  0.33032787980E+02  0.27391025503E+01  0.18436270033E+03  0.18731864039E+03  0.00000000000E+00 0. -1.
         21    1    1    2  502  501  0.13208535881E+02 -0.79388043762E+02  0.62969455046E+03  0.63481663005E+03  0.00000000000E+00 0. -1.
<scales pt_clust_5="13000.00000" pt_clust_6="13000.00000" pt_clust_7="13000.00000" pt_clust_8="13000.00000" pt_clust_9="80.47936"></scales>
<clustering>
<clus scale="   80.353">  5  6 -1 -1</clus>
<clus scale="   80.479">  1  9  2 -1</clus>
<clus scale="   81.533">  2  5  1 -1</clus>
<clus scale="   95.664">  7  8 -1 -1</clus>
<clus scale="   80.479">  1  5  2 -1</clus>
</clustering>
</event>
<event>
 9    1  0.2951046E-005  0.1090056E+03  0.7546771E-02  0.1266626E+00
          1   -1    0    0  502    0  0.00000000000E+00  0.00000000000E+00  0.18347285913E+03  0.18347285913E+03  0.00000000000E+00 0. -1.
         -2   -1    0    0    0  501 -0.00000000000E+00 -0.00000000000E+00 -0.10766585578E+03  0.10766585578E+03  0.00000000000E+00 0.  1.
         23    2    1    2    0    0  0.14708885710E+02 -0.47163280906E+02 -0.74497225471E+01  0.10407260043E+03  0.91295571691E+02 0.  0.
        -24    2    1    2    0    0 -0.28741226932E+02  0.66074833632E+02  0.84399992648E+01  0.10863081623E+03  0.80854677551E+02 0.  0.
         11    1    4    4    0    0 -0.83307760645E+01  0.72335920893E+02  0.29573550128E+02  0.78590598347E+02  0.00000000000E+00 0. -1.
        -12    1    4    4    0    0 -0.20410450868E+02 -0.62610872607E+01 -0.21133550864E+02  0.30040217882E+02  0.00000000000E+00 0.  1.
        -13    1    3    3    0    0 -0.12883683902E+02 -0.59208478189E+02  0.19511519427E+02  0.63657934232E+02  0.00000000000E+00 0. -1.
         13    1    3    3    0    0  0.27592569612E+02  0.12045197283E+02 -0.26961241975E+02  0.40414666202E+02  0.00000000000E+00 0.  1.
         21    1    1    2  502  501  0.14032341222E+02 -0.18911552726E+02  0.74816726638E+02  0.78435298250E+02  0.00000000000E+00 0.  1.
<scales pt_clust_5="13000.00000" pt_clust_6="13000.00000" pt_clust_7="13000.00000" pt_clust_8="13000.00000" pt_clust_9="23.54896"></scales>
<clustering>
<clus scale="   23.549">  1  9  2 -1</clus>
<clus scale="   80.855">  5  6 -1 -1</clus>
<clus scale="   91.296">  7  8 -1 -1</clus>
<clus scale="  100.423">  1  5  2 -1</clus>
<clus scale="   23.549">  1  5  2 -1</clus>
</clustering>
</event>
<event>
 9    1  0.2951046E-005  0.1268593E+03  0.7546771E-02  0.1235495E+00
         -2   -1    0    0    0  501 -0.00000000000E+00  0.00000000000E+00  0.69161134911E+02  0.69161134911E+02  0.00000000000E+00 0.  1.
          1   -1    0    0  502    0  0.00000000000E+00 -0.00000000000E+00 -0.59104111275E+03  0.59104111275E+03  0.00000000000E+00 0. -1.
        -24    2    1    2    0    0  0.79278256295E+02  0.33338841336E+02 -0.13739771273E+02  0.11760078196E+03  0.79023049419E+02 0.  0.
         23    2    1    2    0    0 -0.75733994461E+02 -0.80381587924E+02 -0.38196826975E+03  0.40789831266E+03  0.91018881483E+02 0.  0.
         11    1    3    3    0    0  0.23279030056E+02  0.11718625981E+02 -0.43416075202E+02  0.50637881286E+02  0.00000000000E+00 0. -1.
        -12    1    3    3    0    0  0.55999226239E+02  0.21620215354E+02  0.29676303929E+02  0.66962900671E+02  0.00000000000E+00 0.  1.
        -11    1    4    4    0    0 -0.40566955940E+02 -0.95858440065E+02 -0.26164782916E+03  0.28159208964E+03  0.00000000000E+00 0. -1.
         11    1    4    4    0    0 -0.35167038521E+02  0.15476852141E+02 -0.12032044059E+03  0.12630622302E+03  0.00000000000E+00 0.  1.
         21    1    1    2  502  501 -0.35442618346E+01  0.47042746589E+02 -0.12617193682E+03  0.13470315304E+03  0.00000000000E+00 0. -1.
<scales pt_clust_5="13000.00000" pt_clust_6="13000.00000" pt_clust_7="13000.00000" pt_clust_8="13000.00000" pt_clust_9="47.17607"></scales>
<clustering>
<clus scale="   47.176">  2  9  1 -1</clus>
<clus scale="   79.023">  5  6 -1 -1</clus>
<clus scale="   91.019">  7  8 -1 -1</clus>
<clus scale="  118.547">  1  5  2 -1</clus>
<clus scale="   47.176">  2  5  1 -1</clus>
</clustering>
</event>
<event>
 9    1  0.2951046E-005  0.1194461E+03  0.7546771E-02  0.1246870E+00
          1   -1    0    0  502    0  0.00000000000E+00  0.00000000000E+00  0.30954865719E+03  0.30954865719E+03  0.00000000000E+00 0. -1.
         -2   -1    0    0    0  501 -0.00000000000E+00 -0.00000000000E+00 -0.31197333984E+03  0.31197333984E+03  0.00000000000E+00 0.  1.
        -24    2    1    2    0    0 -0.57014344286E+02  0.54140910400E+02 -0.27747955903E+03  0.29919276910E+03  0.79621189222E+02 0.  0.
         23    2    1    2    0    0  0.79597843092E+02 -0.70179626287E+02  0.20854709472E+03  0.25028382665E+03  0.88820642841E+02 0.  0.
         11    1    3    3    0    0  0.17875500695E+02  0.15641619651E+02 -0.33313511731E+02  0.40914347780E+02  0.00000000000E+00 0. -1.
        -12    1    3    3    0    0 -0.74889844981E+02  0.38499290750E+02 -0.24416604730E+03  0.25827842132E+03  0.00000000000E+00 0.  1.
        -13    1    4    4    0    0  0.80543858450E+02 -0.14174676991E+02  0.11227261132E+03  0.13890058983E+03  0.00000000000E+00 0. -1.
         13    1    4    4    0    0 -0.94601535843E+00 -0.56004949295E+02  0.96274483394E+02  0.11138323681E+03  0.00000000000E+00 0.  1.
         21    1    1    2  502  501 -0.22583498806E+02  0.16038715886E+02  0.66507781650E+02  0.72045401280E+02  0.00000000000E+00 0.  1.
<scales pt_clust_5="13000.00000" pt_clust_6="13000.00000" pt_clust_7="13000.00000" pt_clust_8="13000.00000" pt_clust_9="27.69937"></scales>
<clustering>
<clus scale="   27.699">  1  9  2 -1</clus>
<clus scale="   79.621">  5  6 -1 -1</clus>
<clus scale="   88.821">  7  8 -1 -1</clus>
<clus scale="  112.773">  2  5  1 -1</clus>
<clus scale="   27.699">  1  5  2 -1</clus>
</clustering>
</event>
<event>
 9    1  0.2951046E-005  0.1143958E+03  0.7546771E-02  0.1259355E+00
         -2   -1    0    0    0  501 -0.00000000000E+00  0.00000000000E+00  0.19537639342E+03  0.19537639342E+03  0.00000000000E+00 0.  1.
          1   -1    0    0  502    0  0.00000000000E+00 -0.00000000000E+00 -0.23386669455E+03  0.23386669455E+03  0.00000000000E+00 0. -1.
         23    2    1    2    0    0 -0.77925831864E+02 -0.15739733447E+02  0.14680401516E+03  0.18955475717E+03  0.89774231360E+02 0.  0.
        -24    2    1    2    0    0  0.12050793762E+02 -0.38500885873E+01 -0.14002133951E+03  0.15739055319E+03  0.70751437472E+02 0.  0.
         11    1    4    4    0    0  0.35314107924E+02 -0.16546684718E+02 -0.11300598905E+03  0.11954594328E+03  0.00000000000E+00 0. -1.
        -12    1    4    4    0    0 -0.23263314162E+02  0.12696596131E+02 -0.27015350459E+02  0.37844609913E+02  0.00000000000E+00 0.  1.
        -11    1    3    3    0    0 -0.63655058533E+02 -0.51196689362E+02  0.10081442322E+03  0.12975598409E+03  0.00000000000E+00 0.  1.
         11    1    3    3    0    0 -0.14270773331E+02  0.35456955916E+02  0.45989591943E+02  0.59798773076E+02  0.00000000000E+00 0. -1.
         21    1    1    2  502  501  0.65875038102E+02  0.19589822034E+02 -0.45272976785E+02  0.82297777608E+02  0.00000000000E+00 0. -1.
<scales pt_clust_5="13000.00000" pt_clust_6="13000.00000" pt_clust_7="13000.00000" pt_clust_8="13000.00000" pt_clust_9="68.72614"></scales>
<clustering>
<clus scale="   68.726">  2  9  1 -1</clus>
<clus scale="   70.751">  5  6 -1 -1</clus>
<clus scale="   89.774">  7  8 -1 -1</clus>
<clus scale="  100.164">  2  5  1 -1</clus>
<clus scale="   68.726">  2  5  1 -1</clus>
</clustering>
</event>
<event>
 9    1  0.2951046E-005  0.9907163E+02  0.7546771E-02  0.1288638E+00
          1   -1    0    0  502    0  0.00000000000E+00  0.00000000000E+00  0.48395190689E+03  0.48395190689E+03  0.00000000000E+00 0. -1.
         -2   -1    0    0    0  501 -0.00000000000E+00 -0.00000000000E+00 -0.45892427784E+02  0.45892427784E+02  0.00000000000E+00 0.  1.
        -24    2    1    2    0    0  0.32048683161E+02 -0.20030338907E+02  0.32252734792E+02  0.92922633579E+02  0.78524164183E+02 0.  0.
         23    2    1    2    0    0 -0.93631722211E+01  0.64085192582E+02  0.29976797814E+03  0.31987605841E+03  0.90913536540E+02 0.  0.
         11    1    3    3    0    0  0.20054595131E+02 -0.20061401253E+01  0.56753973892E+02  0.60226447153E+02  0.00000000000E+00 0. -1.
        -12    1    3    3    0    0  0.11994088029E+02 -0.18024198782E+02 -0.24501239100E+02  0.32696186426E+02  0.00000000000E+00 0.  1.
        -11    1    4    4    0    0  0.16198421989E+02  0.62064422914E+02  0.28066398730E+03  0.28790042590E+03  0.00000000000E+00 0. -1.
         11    1    4    4    0    0 -0.25561594210E+02  0.20207696682E+01  0.19103990839E+02  0.31975632513E+02  0.00000000000E+00 0.  1.
         21    1    1    2  502  501 -0.22685510940E+02 -0.44054853675E+02  0.10603876618E+03  0.11704564269E+03  0.00000000000E+00 0. -1.
<scales pt_clust_5="13000.00000" pt_clust_6="13000.00000" pt_clust_7="13000.00000" pt_clust_8="13000.00000" pt_clust_9="49.55262"></scales>
<clustering>
<clus scale="   49.553">  1  9  2 -1</clus>
<clus scale="   78.524">  5  6 -1 -1</clus>
<clus scale="   87.841">  2  5  1 -1</clus>
<clus scale="   90.914">  7  8 -1 -1</clus>
<clus scale="   49.553">  1  5  2 -1</clus>
</clustering>
</event>
<event>
 9    1  0.2951046E-005  0.1414455E+03  0.7546771E-02  0.1218696E+00
          1   -1    0    0  502    0  0.00000000000E+00  0.00000000000E+00  0.27667502259E+03  0.27667502259E+03  0.00000000000E+00 0. -1.
         -2   -1    0    0    0  501 -0.00000000000E+00 -0.00000000000E+00 -0.46606381960E+03  0.46606381960E+03  0.00000000000E+00 0.  1.
        -24    2    1    2    0    0 -0.80064866927E+02 -0.42243227306E+02 -0.42844877261E+03  0.44522316398E+03  0.80376873720E+02 0.  0.
         23    2    1    2    0    0  0.97679870410E+02  0.19483053905E+02  0.21086872913E+03  0.25722845669E+03  0.10853530085E+03 0.  0.
         11    1    3    3    0    0 -0.43666502456E+02 -0.70916994617E+00 -0.69723262334E+02  0.82271499738E+02  0.00000000000E+00 0. -1.
        -12    1    3    3    0    0 -0.36398364471E+02 -0.41534057360E+02 -0.35872551027E+03  0.36295166424E+03  0.00000000000E+00 0.  1.
        -13    1    4    4    0    0  0.73516965075E+01 -0.20160422495E+02 -0.30369748754E+01  0.21672869979E+02  0.00000000000E+00 0.  1.
         13    1    4    4    0    0  0.90328173902E+02  0.39643476400E+02  0.21390570401E+03  0.23555558671E+03  0.00000000000E+00 0. -1.
         21    1    1    2  502  501 -0.17615003483E+02  0.22760173401E+02  0.28191246461E+02  0.40287221522E+02  0.00000000000E+00 0.  1.
<scales pt_clust_5="13000.00000" pt_clust_6="13000.00000" pt_clust_7="13000.00000" pt_clust_8="13000.00000" pt_clust_9="28.78044"></scales>
<clustering>
<clus scale="   28.780">  1  9  2 -1</clus>
<clus scale="   80.377">  5  6 -1 -1</clus>
<clus scale="  108.535">  7  8 -1 -1</clus>
<clus scale="  121.191">  2  5  1 -1</clus>
<clus scale="   28.780">  1  5  2 -1</clus>
</clustering>
</event>
<event>
 9    1  0.2951046E-005  0.9963286E+02  0.7546771E-02  0.1287445E+00
         -2   -1    0    0    0  501 -0.00000000000E+00  0.00000000000E+00  0.49162029475E+02  0.49162029475E+02  0.00000000000E+00 0.  1.
          1   -1    0    0  502    0  0.00000000000E+00 -0.00000000000E+00 -0.38968405799E+03  0.38968405799E+03  0.00000000000E+00 0. -1.
        -24    2    1    2    0    0 -0.18145532123E+01 -0.38899580994E+02 -0.14604848057E+02  0.90834527680E+02  0.80753574702E+02 0.  0.
         23    2    1    2    0    0  0.21174683303E+01  0.17299291414E+02 -0.29833219523E+03  0.31297449830E+03  0.92990261428E+02 0.  0.
         11    1    3    3    0    0  0.33643344081E+02 -0.17304944449E+02  0.14084868563E+02  0.40369781096E+02  0.00000000000E+00 0. -1.
        -12    1    3    3    0    0 -0.35457897293E+02 -0.21594636545E+02 -0.28689716620E+02  0.50464746583E+02  0.00000000000E+00 0.  1.
        -11    1    4    4    0    0 -0.29530085465E+02 -0.12374616919E+02 -0.41049429686E+02  0.52059703889E+02  0.00000000000E+00 0.  1.
         11    1    4    4    0    0  0.31647553795E+02  0.29673908333E+02 -0.25728276554E+03  0.26091479441E+03  0.00000000000E+00 0. -1.
         21    1    1    2  502  501 -0.30291511795E+00  0.21600289580E+02 -0.27584985229E+02  0.35037061487E+02  0.00000000000E+00 0.  1.
<scales pt_clust_5="13000.00000" pt_clust_6="13000.00000" pt_clust_7="13000.00000" pt_clust_8="13000.00000" pt_clust_9="21.60241"></scales>
<clustering>
<clus scale="   21.602">  2  9  1 -1</clus>
<clus scale="   80.754">  5  6 -1 -1</clus>
<clus scale="   88.321">  1  5  2 -1</clus>
<clus scale="   92.990">  7  8 -1 -1</clus>
<clus scale="   21.602">  2  5  1 -1</clus>
</clustering>
</event>
<event>
 9    1  0.2951046E-005  0.1639423E+03  0.7546771E-02  0.1214620E+00
         -2   -1    0    0    0  501 -0.00000000000E+00  0.00000000000E+00  0.55435558111E+02  0.55435558111E+02  0.00000000000E+00 0.  1.
          1   -1    0    0  502    0  0.00000000000E+00 -0.00000000000E+00 -0.93795178528E+03  0.93795178528E+03  0.00000000000E+00 0. -1.
        -24    2    1    2    0    0 -0.36033792868E+01 -0.38322739620E+02 -0.41917450184E+02  0.94621434164E+02  0.75594486962E+02 0.  0.
         23    2    1    2    0    0  0.63553961743E+02 -0.94874765047E+02 -0.24361876456E+03  0.28417597860E+03  0.91463420418E+02 0.  0.
         13    1    3    3    0    0 -0.22613915165E+02  0.48803223151E+01 -0.41391331214E+02  0.47417813158E+02  0.00000000000E+00 0. -1.
        -14    1    3    3    0    0  0.19010535878E+02 -0.43203061935E+02 -0.52611897014E+00  0.47203621007E+02  0.00000000000E+00 0.  1.
        -13    1    4    4    0    0  0.21344990111E+02  0.88869384068E+01 -0.10202517898E+02  0.25272072502E+02  0.00000000000E+00 0. -1.
         13    1    4    4    0    0  0.42208971632E+02 -0.10376170345E+03 -0.23341624666E+03  0.25890390610E+03  0.00000000000E+00 0.  1.
         21    1    1    2  502  501 -0.59950582456E+02  0.13319750467E+03 -0.59698001243E+03  0.61458993063E+03  0.00000000000E+00 0. -1.
<scales pt_clust_5="13000.00000" pt_clust_6="13000.00000" pt_clust_7="13000.00000" pt_clust_8="13000.00000" pt_clust_9="136.05701"></scales>
<clustering>
<clus scale="   75.594">  5  6 -1 -1</clus>
<clus scale="   84.830">  1  5  2 -1</clus>
<clus scale="   91.463">  7  8 -1 -1</clus>
<clus scale="  136.057">  2  9  1 -1</clus>
<clus scale="  136.057">  2  5  1 -1</clus>
</clustering>
</event>
<event>
 9    1  0.2951046E-005  0.1001102E+03  0.7546771E-02  0.1285849E+00
         -2   -1    0    0    0  501 -0.00000000000E+00  0.00000000000E+00  0.78812358495E+02  0.78812358495E+02  0.00000000000E+00 0.  1.
          1   -1    0    0  502    0  0.00000000000E+00 -0.00000000000E+00 -0.55290458395E+03  0.55290458395E+03  0.00000000000E+00 0. -1.
         23    2    1    2    0    0  0.73607070559E+01 -0.38603790607E+02  0.34902168112E+02  0.10660135844E+03  0.92742954580E+02 0.  0.
        -24    2    1    2    0    0  0.28629121148E+02  0.24957266882E+02 -0.38162685523E+03  0.39205926073E+03  0.81418152383E+02 0.  0.
         13    1    4    4    0    0  0.24183563639E+02  0.53600450591E+02 -0.21340611854E+03  0.22135949152E+03  0.00000000000E+00 0. -1.
        -14    1    4    4    0    0  0.44455575094E+01 -0.28643183710E+02 -0.16822073669E+03  0.17069976921E+03  0.00000000000E+00 0.  1.
        -11    1    3    3    0    0  0.41167037577E+02 -0.76876694593E+01  0.43063189796E+02  0.60068823528E+02  0.00000000000E+00 0.  1.
         11    1    3    3    0    0 -0.33806330522E+02 -0.30916121148E+02 -0.81610216845E+01  0.46532534909E+02  0.00000000000E+00 0. -1.
         21    1    1    2  502  501 -0.35989828204E+02  0.13646523726E+02 -0.12736753833E+03  0.13305632328E+03  0.00000000000E+00 0. -1.
<scales pt_clust_5="13000.00000" pt_clust_6="13000.00000" pt_clust_7="13000.00000" pt_clust_8="13000.00000" pt_clust_9="38.49020"></scales>
<clustering>
<clus scale="   38.490">  2  9  1 -1</clus>
<clus scale="   81.418">  5  6 -1 -1</clus>
<clus scale="   89.720">  2  5  1 -1</clus>
<clus scale="   92.743">  7  8 -1 -1</clus>
<clus scale="   38.490">  2  5  1 -1</clus>
</clustering>
</event>
<event>
 9    1  0.2951046E-005  0.1220881E+03  0.7546771E-02  0.1243742E+00
         -2   -1    0    0    0  501 -0.00000000000E+00  0.00000000000E+00  0.46716992691E+03  0.46716992691E+03  0.00000000000E+00 0.  1.
          1   -1    0    0  502    0  0.00000000000E+00 -0.00000000000E+00 -0.47173980659E+02  0.47173980659E+02  0.00000000000E+00 0. -1.
         23    2    1    2    0    0  0.52658290541E+02  0.68523783584E+02  0.32548990007E+03  0.34953640149E+03  0.93614189290E+02 0.  0.
        -24    2    1    2    0    0 -0.26869219325E+02 -0.57906284637E+02  0.89734801153E+02  0.13651312047E+03  0.80674684838E+02 0.  0.
         13    1    4    4    0    0 -0.11693285474E+02 -0.75237956277E+02  0.51661959497E+02  0.92013265614E+02  0.00000000000E+00 0. -1.
        -14    1    4    4    0    0 -0.15175933851E+02  0.17331671640E+02  0.38072841655E+02  0.44499854851E+02  0.00000000000E+00 0.  1.
        -11    1    3    3    0    0  0.12233388491E+02  0.79732259604E+02  0.25556490476E+03  0.26799311476E+03  0.00000000000E+00 0.  1.
         11    1    3    3    0    0  0.40424902051E+02 -0.11208476019E+02  0.69924995317E+02  0.81543286729E+02  0.00000000000E+00 0. -1.
         21    1    1    2  502  501 -0.25789071216E+02 -0.10617498948E+02  0.47712450225E+01  0.28294385612E+02  0.00000000000E+00 0.  1.
<scales pt_clust_5="13000.00000" pt_clust_6="13000.00000" pt_clust_7="13000.00000" pt_clust_8="13000.00000" pt_clust_9="27.88920"></scales>
<clustering>
<clus scale="   27.889">  2  9  1 -1</clus>
<clus scale="   80.675">  5  6 -1 -1</clus>
<clus scale="   93.614">  7  8 -1 -1</clus>
<clus scale="  112.474">  2  5  1 -1</clus>
<clus scale="   27.889">  2  5  1 -1</clus>
</clustering>
</event>
<event>
 9    1  0.2951046E-005  0.1187389E+03  0.7546771E-02  0.1248659E+00
          1   -1    0    0  502    0  0.00000000000E+00  0.00000000000E+00  0.15249230459E+03  0.15249230459E+03  0.00000000000E+00 0. -1.
         -2   -1    0    0    0  501 -0.00000000000E+00 -0.00000000000E+00 -0.40621957512E+03  0.40621957512E+03  0.00000000000E+00 0.  1.
         23    2    1    2    0    0  0.25718068882E+01  0.80586619704E+02 -0.32544504492E+03  0.34752307924E+03  0.91416606123E+02 0.  0.
        -24    2    1    2    0    0  0.34416022377E+02 -0.23675620400E+02  0.10218599680E+03  0.13678937888E+03  0.80773502063E+02 0.  0.
         11    1    4    4    0    0  0.33093870636E+02  0.25111257516E+02  0.54784131077E+02  0.68753767501E+02  0.00000000000E+00 0. -1.
        -12    1    4    4    0    0  0.13221517416E+01 -0.48786877917E+02  0.47401865725E+02  0.68035611383E+02  0.00000000000E+00 0.  1.
        -11    1    3    3    0    0 -0.26299725954E+02  0.42321818298E+02 -0.26851926574E+03  0.27310329175E+03  0.00000000000E+00 0.  1.
         11    1    3    3    0    0  0.28871532842E+02  0.38264801406E+02 -0.56925779183E+02  0.74419787495E+02  0.00000000000E+00 0. -1.
         21    1    1    2  502  501 -0.36987829265E+02 -0.56910999304E+02 -0.30468222413E+02  0.74399421588E+02  0.00000000000E+00 0.  1.
<scales pt_clust_5="13000.00000" pt_clust_6="13000.00000" pt_clust_7="13000.00000" pt_clust_8="13000.00000" pt_clust_9="67.87460"></scales>
<clustering>
<clus scale="   67.875">  1  9  2 -1</clus>
<clus scale="   80.774">  5  6 -1 -1</clus>
<clus scale="   91.417">  7  8 -1 -1</clus>
<clus scale="  110.753">  1  5  2 -1</clus>
<clus scale="   67.875">  1  5  2 -1</clus>
</clustering>
</event>
<event>
 9    1  0.2951046E-005  0.2276349E+03  0.7546771E-02  0.1129232E+00
          1   -1    0    0  502    0  0.00000000000E+00  0.00000000000E+00  0.46583630224E+03  0.46583630224E+03  0.00000000000E+00 0. -1.
         -2   -1    0    0    0  501 -0.00000000000E+00 -0.00000000000E+00 -0.35124928021E+03  0.35124928021E+03  0.00000000000E+00 0.  1.
         23    2    1    2    0    0 -0.20480100453E+03  0.40261917716E+02 -0.27252316078E+03  0.35493433402E+03  0.90249846721E+02 0.  0.
        -24    2    1    2    0    0  0.21213824002E+03 -0.16379312378E+02  0.36132593333E+03  0.42624802597E+03  0.76550864096E+02 0.  0.
         13    1    4    4    0    0  0.11254265879E+03 -0.11857662656E+02  0.26256803723E+03  0.28591682075E+03  0.00000000000E+00 0. -1.
        -14    1    4    4    0    0  0.99595581233E+02 -0.45216497218E+01  0.98757896094E+02  0.14033120522E+03  0.00000000000E+00 0.  1.
        -11    1    3    3    0    0 -0.18618247565E+03  0.10300242659E+02 -0.19522838365E+03  0.26997061140E+03  0.00000000000E+00 0.  1.
         11    1    3    3    0    0 -0.18618528874E+02  0.29961675057E+02 -0.77294777131E+02  0.84963722620E+02  0.00000000000E+00 0. -1.
         21    1    1    2  502  501 -0.73372354924E+01 -0.23882605338E+02  0.25784249478E+02  0.35903222468E+02  0.00000000000E+00 0.  1.
<scales pt_clust_5="13000.00000" pt_clust_6="13000.00000" pt_clust_7="13000.00000" pt_clust_8="13000.00000" pt_clust_9="24.98427"></scales>
<clustering>
<clus scale="   24.984">  1  9  2 -1</clus>
<clus scale="   76.551">  5  6 -1 -1</clus>
<clus scale="   90.250">  7  8 -1 -1</clus>
<clus scale="  222.559">  1  5  2 -1</clus>
<clus scale="   24.984">  1  5  2 -1</clus>
</clustering>
</event>
<event>
 9    1  0.2951046E-005  0.1278752E+03  0.7546771E-02  0.1233787E+00
          3   -1    0    0  502    0  0.00000000000E+00  0.00000000000E+00  0.22424433005E+03  0.22424433005E+03  0.00000000000E+00 0. -1.
         -4   -1    0    0    0  501 -0.00000000000E+00 -0.00000000000E+00 -0.14846884510E+03  0.14846884510E+03  0.00000000000E+00 0.  1.
         23    2    1    2    0    0 -0.24996661119E+02  0.85383017218E+02 -0.69876672930E+02  0.14568323280E+03  0.91791950638E+02 0.  0.
        -24    2    1    2    0    0  0.24731616848E+01 -0.91294936939E+02  0.55017038016E+02  0.13345118528E+03  0.80258721278E+02 0.  0.
         13    1    4    4    0    0  0.38151287745E+02 -0.56146845195E+02  0.47397047884E+02  0.82791721386E+02  0.00000000000E+00 0. -1.
        -14    1    4    4    0    0 -0.35678126060E+02 -0.35148091744E+02  0.76199901318E+01  0.50659463894E+02  0.00000000000E+00 0.  1.
        -11    1    3    3    0    0 -0.43439890434E+02  0.66283760047E+02 -0.84105053849E+02  0.11556046474E+03  0.00000000000E+00 0.  1.
         11    1    3    3    0    0  0.18443229315E+02  0.19099257171E+02  0.14228380919E+02  0.30122768061E+02  0.00000000000E+00 0. -1.
         21    1    1    2  502  501  0.22523499434E+02  0.59119197209E+01  0.90635119867E+02  0.93578757070E+02  0.00000000000E+00 0. -1.
<scales pt_clust_5="13000.00000" pt_clust_6="13000.00000" pt_clust_7="13000.00000" pt_clust_8="13000.00000" pt_clust_9="23.28645"></scales>
<clustering>
<clus scale="   23.286">  1  9  2 -1</clus>
<clus scale="   80.259">  5  6 -1 -1</clus>
<clus scale="   91.792">  7  8 -1 -1</clus>
<clus scale="  119.866">  1  5  2 -1</clus>
<clus scale="   23.286">  1  5  2 -1</clus>
</clustering>
</event>
<event>
 9    1  0.2951046E-005  0.5838292E+03  0.7546771E-02  0.9940681E-01
          1   -1    0    0  502    0  0.00000000000E+00  0.00000000000E+00  0.15564418746E+04  0.15564418746E+04  0.00000000000E+00 0. -1.
         -2   -1    0    0    0  501 -0.00000000000E+00 -0.00000000000E+00 -0.31156908312E+03  0.31156908312E+03  0.00000000000E+00 0.  1.
         23    2    1    2    0    0 -0.58877147873E+03  0.53947420427E+02  0.17329034282E+03  0.62344663909E+03  0.95362416781E+02 0.  0.
        -24    2    1    2    0    0  0.54190270973E+03 -0.12936379440E+02  0.82681680079E+03  0.99199985286E+03  0.81312909746E+02 0.  0.
         11    1    4    4    0    0  0.50588973398E+03 -0.25613600110E+02  0.79313878632E+03  0.94108958863E+03  0.00000000000E+00 0. -1.
        -12    1    4    4    0    0  0.36012975744E+02  0.12677220670E+02  0.33678014468E+02  0.50910264234E+02  0.00000000000E+00 0.  1.
        -11    1    3    3    0    0 -0.91230497662E+02 -0.25613585055E+02  0.34178300697E+02  0.10073338911E+03  0.00000000000E+00 0. -1.
         11    1    3    3    0    0 -0.49754098107E+03  0.79561005482E+02  0.13911204212E+03  0.52271324998E+03  0.00000000000E+00 0.  1.
         21    1    1    2  502  501  0.46868769008E+02 -0.41011040988E+02  0.24476564788E+03  0.25256446578E+03  0.00000000000E+00 0. -1.
<scales pt_clust_5="13000.00000" pt_clust_6="13000.00000" pt_clust_7="13000.00000" pt_clust_8="13000.00000" pt_clust_9="62.27830"></scales>
<clustering>
<clus scale="   62.278">  1  9  2 -1</clus>
<clus scale="   81.313">  5  6 -1 -1</clus>
<clus scale="   95.362">  7  8 -1 -1</clus>
<clus scale="  581.699">  1  5  2 -1</clus>
<clus scale="   62.278">  1  5  2 -1</clus>
</clustering>
</event>
<event>
 9    1  0.2951046E-005  0.1094838E+03  0.7546771E-02  0.1264957E+00
         -2   -1    0    0    0  501 -0.00000000000E+00  0.00000000000E+00  0.67048745276E+02  0.67048745276E+02  0.00000000000E+00 0.  1.
          1   -1    0    0  502    0  0.00000000000E+00 -0.00000000000E+00 -0.27025931029E+03  0.27025931029E+03  0.00000000000E+00 0. -1.
        -24    2    1    2    0    0 -0.17779262607E+02 -0.77437760604E+02 -0.41972142865E+02  0.12131264321E+03  0.81500844651E+02 0.  0.
         23    2    1    2    0    0  0.10563195512E+02  0.31217385512E+02 -0.11917236849E+03  0.15308319122E+03  0.90256876554E+02 0.  0.
         11    1    3    3    0    0 -0.13041819110E+02 -0.32191945821E+02  0.23246406834E+02  0.41794806521E+02  0.00000000000E+00 0. -1.
        -12    1    3    3    0    0 -0.47374434975E+01 -0.45245814783E+02 -0.65218549699E+02  0.79517836685E+02  0.00000000000E+00 0.  1.
        -13    1    4    4    0    0 -0.33554757991E+02  0.14498667524E+02 -0.91157045008E+02  0.98212728291E+02  0.00000000000E+00 0.  1.
         13    1    4    4    0    0  0.44117953502E+02  0.16718717989E+02 -0.28015323484E+02  0.54870462931E+02  0.00000000000E+00 0. -1.
         21    1    1    2  502  501  0.72160670955E+01  0.46220375091E+02 -0.42066053654E+02  0.62912221133E+02  0.00000000000E+00 0. -1.
<scales pt_clust_5="13000.00000" pt_clust_6="13000.00000" pt_clust_7="13000.00000" pt_clust_8="13000.00000" pt_clust_9="46.78028"></scales>
<clustering>
<clus scale="   46.780">  2  9  1 -1</clus>
<clus scale="   81.501">  5  6 -1 -1</clus>
<clus scale="   90.257">  7  8 -1 -1</clus>
<clus scale="  102.385">  1  5  2 -1</clus>
<clus scale="   46.780">  2  5  1 -1</clus>
</clustering>
</event>
<event>
 9    1  0.2951046E-005  0.1139126E+03  0.7546771E-02  0.1260382E+00
          1   -1    0    0  502    0  0.00000000000E+00  0.00000000000E+00  0.14282724510E+03  0.14282724510E+03  0.00000000000E+00 0. -1.
         -2   -1    0    0    0  501 -0.00000000000E+00 -0.00000000000E+00 -0.10011443586E+03  0.10011443586E+03  0.00000000000E+00 0.  1.
        -24    2    1    2    0    0  0.68343419248E+02 -0.13162296706E+02  0.22457912034E+01  0.10163631830E+03  0.74032618555E+02 0.  0.
         23    2    1    2    0    0 -0.56174801919E+02  0.30048764933E+02  0.24396853038E+02  0.11500938844E+03  0.92592744564E+02 0.  0.
         11    1    3    3    0    0  0.27880561954E+02 -0.41010162074E+02  0.13185918857E+02  0.51313035228E+02  0.00000000000E+00 0. -1.
        -12    1    3    3    0    0  0.40462857294E+02  0.27847865368E+02 -0.10940127653E+02  0.50323283071E+02  0.00000000000E+00 0.  1.
        -13    1    4    4    0    0 -0.26568793352E+02  0.59617215647E+02 -0.24137215322E+01  0.65314157985E+02  0.00000000000E+00 0.  1.
         13    1    4    4    0    0 -0.29606008567E+02 -0.29568450714E+02  0.26810574571E+02  0.49695230452E+02  0.00000000000E+00 0. -1.
         21    1    1    2  502  501 -0.12168617328E+02 -0.16886468227E+02  0.16070164998E+02  0.26295974215E+02  0.00000000000E+00 0.  1.
<scales pt_clust_5="13000.00000" pt_clust_6="13000.00000" pt_clust_7="13000.00000" pt_clust_8="13000.00000" pt_clust_9="20.81413"></scales>
<clustering>
<clus scale="   20.814">  1  9  2 -1</clus>
<clus scale="   74.033">  5  6 -1 -1</clus>
<clus scale="   92.593">  7  8 -1 -1</clus>
<clus scale="   99.416">  2  5  1 -1</clus>
<clus scale="   20.814">  1  5  2 -1</clus>
</clustering>
</event>
<event>
 9    1  0.2951046E-005  0.1021443E+03  0.7546771E-02  0.1280445E+00
          1   -1    0    0  502    0  0.00000000000E+00  0.00000000000E+00  0.12218205077E+03  0.12218205077E+03  0.00000000000E+00 0. -1.
         -2   -1    0    0    0  501 -0.00000000000E+00 -0.00000000000E+00 -0.37176496853E+03  0.37176496853E+03  0.00000000000E+00 0.  1.
         23    2    1    2    0    0 -0.49441090811E+02 -0.93415888296E+01 -0.32801203400E+03  0.34382483997E+03  0.89955207709E+02 0.  0.
        -24    2    1    2    0    0  0.19921018860E+02  0.28025283643E+02  0.75066953419E+02  0.11502489683E+03  0.80083805346E+02 0.  0.
         11    1    4    4    0    0  0.31159429849E+02  0.50877211991E+02  0.63259086302E+02  0.86954659267E+02  0.00000000000E+00 0. -1.
        -12    1    4    4    0    0 -0.11238410989E+02 -0.22851928348E+02  0.11807867117E+02  0.28070237559E+02  0.00000000000E+00 0.  1.
        -11    1    3    3    0    0 -0.71591158091E+02  0.77699254756E+01 -0.26962045181E+03  0.27907141325E+03  0.00000000000E+00 0.  1.
         11    1    3    3    0    0  0.22150067279E+02 -0.17111514305E+02 -0.58391582183E+02  0.64753426721E+02  0.00000000000E+00 0. -1.
         21    1    1    2  502  501  0.29520071951E+02 -0.18683694814E+02  0.33621628216E+01  0.35097282498E+02  0.00000000000E+00 0. -1.
<scales pt_clust_5="13000.00000" pt_clust_6="13000.00000" pt_clust_7="13000.00000" pt_clust_8="13000.00000" pt_clust_9="34.93587"></scales>
<clustering>
<clus scale="   34.936">  1  9  2 -1</clus>
<clus scale="   80.084">  5  6 -1 -1</clus>
<clus scale="   89.955">  7  8 -1 -1</clus>
<clus scale="   93.568">  1  5  2 -1</clus>
<clus scale="   34.936">  1  5  2 -1</clus>
</clustering>
</event>
<event>
 9    1  0.2951046E-005  0.9590123E+02  0.7546771E-02  0.1295702E+00
         -2   -1    0    0    0  501 -0.00000000000E+00  0.00000000000E+00  0.28928335431E+03  0.28928335431E+03  0.00000000000E+00 0.  1.
          1   -1    0    0  502    0  0.00000000000E+00 -0.00000000000E+00 -0.21209781050E+03  0.21209781050E+03  0.00000000000E+00 0. -1.
        -24    2    1    2    0    0  0.27799593956E+02  0.13247158480E+02  0.23144671954E+03  0.24684524536E+03  0.80104222996E+02 0.  0.
         23    2    1    2    0    0  0.43636803223E+02 -0.17336348527E+02 -0.15114233266E+03  0.18291464119E+03  0.91700826951E+02 0.  0.
         11    1    3    3    0    0 -0.24074749024E+02 -0.37036182366E+01  0.12359433904E+03  0.12597170703E+03  0.00000000000E+00 0. -1.
        -12    1    3    3    0    0  0.51874342980E+02  0.16950776716E+02  0.10785238050E+03  0.12087353834E+03  0.00000000000E+00 0.  1.
        -11    1    4    4    0    0 -0.59719371928E+01  0.29514055002E+02 -0.23568708331E+02  0.38239083264E+02  0.00000000000E+00 0. -1.
         11    1    4    4    0    0  0.49608740416E+02 -0.46850403528E+02 -0.12757362433E+03  0.14467555792E+03  0.00000000000E+00 0.  1.
         21    1    1    2  502  501 -0.71436397179E+02  0.40891900470E+01 -0.31188430659E+01  0.71621278258E+02  0.00000000000E+00 0. -1.
<scales pt_clust_5="13000.00000" pt_clust_6="13000.00000" pt_clust_7="13000.00000" pt_clust_8="13000.00000" pt_clust_9="71.55334"></scales>
<clustering>
<clus scale="   71.553">  2  9  1 -1</clus>
<clus scale="   80.104">  5  6 -1 -1</clus>
<clus scale="   84.880">  1  5  2 -1</clus>
<clus scale="   91.701">  7  8 -1 -1</clus>
<clus scale="   71.553">  2  5  1 -1</clus>
</clustering>
</event>
<event>
 9    1  0.2951046E-005  0.1018218E+03  0.7546771E-02  0.1283644E+00
          1   -1    0    0  502    0  0.00000000000E+00  0.00000000000E+00  0.59004677015E+02  0.59004677015E+02  0.00000000000E+00 0. -1.
         -2   -1    0    0    0  501 -0.00000000000E+00 -0.00000000000E+00 -0.32126592836E+03  0.32126592836E+03  0.00000000000E+00 0.  1.
         23    2    1    2    0    0  0.10591750323E+02  0.45885714401E+02 -0.25214247725E+03  0.27281523467E+03  0.92922760785E+02 0.  0.
        -24    2    1    2    0    0 -0.83776331167E+00 -0.22745899478E+02 -0.95661228560E+01  0.82337713159E+02  0.78548777911E+02 0.  0.
         13    1    4    4    0    0 -0.18082196671E+02 -0.12525973208E+02  0.30460227145E+02  0.37572480341E+02  0.00000000000E+00 0. -1.
        -14    1    4    4    0    0  0.17244433360E+02 -0.10219926270E+02 -0.40026350001E+02  0.44765232818E+02  0.00000000000E+00 0.  1.
        -11    1    3    3    0    0  0.19252248484E+02  0.67217379716E+02 -0.23172228836E+03  0.24204140995E+03  0.00000000000E+00 0.  1.
         11    1    3    3    0    0 -0.86604981609E+01 -0.21331665315E+02 -0.20420188892E+02  0.30773824720E+02  0.00000000000E+00 0. -1.
         21    1    1    2  502  501 -0.97539870111E+01 -0.23139814924E+02 -0.55265123877E+00  0.25117657548E+02  0.00000000000E+00 0. -1.
<scales pt_clust_5="13000.00000" pt_clust_6="13000.00000" pt_clust_7="13000.00000" pt_clust_8="13000.00000" pt_clust_9="25.11158"></scales>
<clustering>
<clus scale="   25.112">  1  9  2 -1</clus>
<clus scale="   78.549">  5  6 -1 -1</clus>
<clus scale="   88.899">  1  5  2 -1</clus>
<clus scale="   92.923">  7  8 -1 -1</clus>
<clus scale="   25.112">  1  5  2 -1</clus>
</clustering>
</event>
<event>
 9    1  0.2951046E-005  0.9706144E+02  0.7546771E-02  0.1294208E+00
         -2   -1    0    0    0  501 -0.00000000000E+00  0.00000000000E+00  0.56084297866E+02  0.56084297866E+02  0.00000000000E+00 0.  1.
          1   -1    0    0  502    0  0.00000000000E+00 -0.00000000000E+00 -0.36246286140E+03  0.36246286140E+03  0.00000000000E+00 0. -1.
         23    2    1    2    0    0  0.14153196892E+02 -0.82224774385E+01 -0.60346447177E+01  0.96540393578E+02  0.94951084974E+02 0.  0.
        -24    2    1    2    0    0 -0.38076302137E+02  0.47665769700E+01 -0.21228506757E+03  0.23069072386E+03  0.81735764026E+02 0.  0.
         13    1    4    4    0    0 -0.53856168585E+02  0.51498878347E+01 -0.20714014169E+03  0.21408887532E+03  0.00000000000E+00 0. -1.
        -14    1    4    4    0    0  0.15779866448E+02 -0.38331086475E+00 -0.51449258789E+01  0.16601848531E+02  0.00000000000E+00 0.  1.
        -13    1    3    3    0    0  0.38905367387E+02 -0.74783390445E+01 -0.38811483117E+02  0.55460656217E+02  0.00000000000E+00 0. -1.
         13    1    3    3    0    0 -0.24752170495E+02 -0.74413839399E+00  0.32776838399E+02  0.41079737360E+02  0.00000000000E+00 0.  1.
         21    1    1    2  502  501  0.23923105245E+02  0.34559004686E+01 -0.88058851246E+02  0.91316041829E+02  0.00000000000E+00 0. -1.
<scales pt_clust_5="13000.00000" pt_clust_6="13000.00000" pt_clust_7="13000.00000" pt_clust_8="13000.00000" pt_clust_9="24.17143"></scales>
<clustering>
<clus scale="   24.171">  2  9  1 -1</clus>
<clus scale="   81.736">  5  6 -1 -1</clus>
<clus scale="   84.178">  2  5  1 -1</clus>
<clus scale="   94.951">  7  8 -1 -1</clus>
<clus scale="   24.171">  2  5  1 -1</clus>
</clustering>
</event>
<event>
 9    1  0.2951046E-005  0.9920995E+02  0.7546771E-02  0.1287718E+00
         -4   -1    0    0    0  501 -0.00000000000E+00  0.00000000000E+00  0.70219962189E+03  0.70219962189E+03  0.00000000000E+00 0.  1.
          3   -1    0    0  502    0  0.00000000000E+00 -0.00000000000E+00 -0.47591518389E+02  0.47591518389E+02  0.00000000000E+00 0. -1.
        -24    2    1    2    0    0 -0.23457372775E+00 -0.39395250660E+02  0.57295916712E+03  0.57998745534E+03  0.80939485849E+02 0.  0.
         23    2    1    2    0    0  0.36948418678E+02  0.17581688194E+02  0.77105559815E+02  0.12685743727E+03  0.92050207130E+02 0.  0.
         11    1    3    3    0    0 -0.24474573670E+02  0.13952498170E+02  0.12048430199E+03  0.12373416662E+03  0.00000000000E+00 0. -1.
        -12    1    3    3    0    0  0.24239999942E+02 -0.53347748830E+02  0.45247486513E+03  0.45625328873E+03  0.00000000000E+00 0.  1.
        -13    1    4    4    0    0  0.56126278388E+02 -0.16720795214E+02  0.30956434327E+02  0.66242319891E+02  0.00000000000E+00 0.  1.
         13    1    4    4    0    0 -0.19177859710E+02  0.34302483409E+02  0.46149125488E+02  0.60615117375E+02  0.00000000000E+00 0. -1.
         21    1    1    2  502  501 -0.36713844950E+02  0.21813562466E+02  0.45433765689E+01  0.42946247673E+02  0.00000000000E+00 0. -1.
<scales pt_clust_5="13000.00000" pt_clust_6="13000.00000" pt_clust_7="13000.00000" pt_clust_8="13000.00000" pt_clust_9="42.70524"></scales>
<clustering>
<clus scale="   42.705">  2  9  1 -1</clus>
<clus scale="   80.939">  5  6 -1 -1</clus>
<clus scale="   88.998">  1  5  2 -1</clus>
<clus scale="   92.050">  7  8 -1 -1</clus>
<clus scale="   42.705">  2  5  1 -1</clus>
</clustering>
</event>
<event>
 9    1  0.2951046E-005  0.9827315E+02  0.7546771E-02  0.1291117E+00
         -4   -1    0    0    0  501 -0.00000000000E+00  0.00000000000E+00  0.34595579801E+03  0.34595579801E+03  0.00000000000E+00 0.  1.
          3   -1    0    0  502    0  0.00000000000E+00 -0.00000000000E+00 -0.43895506035E+02  0.43895506035E+02  0.00000000000E+00 0. -1.
        -24    2    1    2    0    0  0.42477861592E+02  0.31626891368E+02  0.18207723833E+03  0.20501055633E+03  0.77926750897E+02 0.  0.
         23    2    1    2    0    0  0.14242861001E+01 -0.12255984379E+02  0.85576320395E+02  0.12579454629E+03  0.91371349562E+02 0.  0.
         11    1    3    3    0    0  0.19631183940E+01  0.44875860560E+02  0.13097876601E+03  0.13846708577E+03  0.00000000000E+00 0. -1.
        -12    1    3    3    0    0  0.40514743198E+02 -0.13248969192E+02  0.51098472312E+02  0.66543470557E+02  0.00000000000E+00 0.  1.
        -11    1    4    4    0    0 -0.23864445170E+02  0.51923919219E+01 -0.92494429397E+01  0.26115605906E+02  0.00000000000E+00 0. -1.
         11    1    4    4    0    0  0.25288731270E+02 -0.17448376301E+02  0.94825763334E+02  0.99678940387E+02  0.00000000000E+00 0.  1.
         21    1    1    2  502  501 -0.43902147692E+02 -0.19370906988E+02  0.34406733253E+02  0.59046201425E+02  0.00000000000E+00 0.  1.
<scales pt_clust_5="13000.00000" pt_clust_6="13000.00000" pt_clust_7="13000.00000" pt_clust_8="13000.00000" pt_clust_9="47.98573"></scales>
<clustering>
<clus scale="   47.986">  2  9  1 -1</clus>
<clus scale="   77.927">  5  6 -1 -1</clus>
<clus scale="   85.915">  1  5  2 -1</clus>
<clus scale="   91.371">  7  8 -1 -1</clus>
<clus scale="   47.986">  2  5  1 -1</clus>
</clustering>
</event>
<event>
 9    1  0.2951046E-005  0.1700109E+03  0.7546771E-02  0.1178951E+00
         -2   -1    0    0    0  501 -0.00000000000E+00  0.00000000000E+00  0.11567509169E+04  0.11567509169E+04  0.00000000000E+00 0.  1.
          1   -1    0    0  502    0  0.00000000000E+00 -0.00000000000E+00 -0.29908862942E+03  0.29908862942E+03  0.00000000000E+00 0. -1.
        -24    2    1    2    0    0 -0.82452557796E+02 -0.17466570166E+03  0.53793520664E+03  0.57735647589E+03  0.81606875239E+02 0.  0.
         23    2    1    2    0    0  0.14271050960E+03  0.28615210910E+02 -0.24121663588E+03  0.29571414543E+03  0.89868072938E+02 0.  0.
         11    1    3    3    0    0 -0.91652607726E+02 -0.12654454595E+03  0.45441075834E+03  0.48052352691E+03  0.00000000000E+00 0. -1.
        -12    1    3    3    0    0  0.92000499300E+01 -0.48121155711E+02  0.83524448295E+02  0.96832948982E+02  0.00000000000E+00 0.  1.
        -13    1    4    4    0    0  0.46058763423E+02 -0.27041295576E+02 -0.11795375766E+03  0.12948254825E+03  0.00000000000E+00 0. -1.
         13    1    4    4    0    0  0.96651746178E+02  0.55656506486E+02 -0.12326287822E+03  0.16623159718E+03  0.00000000000E+00 0.  1.
         21    1    1    2  502  501 -0.60257951805E+02  0.14605049075E+03  0.56094371676E+03  0.58276892503E+03  0.00000000000E+00 0.  1.
<scales pt_clust_5="13000.00000" pt_clust_6="13000.00000" pt_clust_7="13000.00000" pt_clust_8="13000.00000" pt_clust_9="157.99293"></scales>
<clustering>
<clus scale="   81.607">  5  6 -1 -1</clus>
<clus scale="   89.868">  7  8 -1 -1</clus>
<clus scale="  157.993">  1  9  2 -1</clus>
<clus scale="  165.792">  1  5  2 -1</clus>
<clus scale="  170.011">  2  5  1 -1</clus>
</clustering>
</event>
<event>
 9    1  0.2951046E-005  0.1924782E+03  0.7546771E-02  0.1179306E+00
         -2   -1    0    0    0  501 -0.00000000000E+00  0.00000000000E+00  0.12510368388E+03  0.12510368388E+03  0.00000000000E+00 0.  1.
          1   -1    0    0  502    0  0.00000000000E+00 -0.00000000000E+00 -0.61790179347E+03  0.61790179347E+03  0.00000000000E+00 0. -1.
         23    2    1    2    0    0 -0.63150296462E+02  0.26685878170E+02 -0.18612786965E+02  0.11485649198E+03  0.90252323375E+02 0.  0.
        -24    2    1    2    0    0 -0.74456916457E+02  0.13933430396E+03 -0.30992964221E+03  0.35708003755E+03  0.80572262165E+02 0.  0.
         11    1    4    4    0    0 -0.31050910393E+02  0.12904268504E+03 -0.23318042277E+03  0.26830818691E+03  0.00000000000E+00 0. -1.
        -12    1    4    4    0    0 -0.43406006064E+02  0.10291618921E+02 -0.76749219437E+02  0.88771850643E+02  0.00000000000E+00 0.  1.
        -13    1    3    3    0    0 -0.64055561983E+02 -0.14378203394E+02 -0.30078793411E+02  0.72212059705E+02  0.00000000000E+00 0. -1.
         13    1    3    3    0    0  0.90526552045E+00  0.41064081563E+02  0.11466006446E+02  0.42644432276E+02  0.00000000000E+00 0.  1.
         21    1    1    2  502  501  0.13760721292E+03 -0.16602018213E+03 -0.16425568042E+03  0.27106894782E+03  0.00000000000E+00 0.  1.
<scales pt_clust_5="13000.00000" pt_clust_6="13000.00000" pt_clust_7="13000.00000" pt_clust_8="13000.00000" pt_clust_9="174.80265"></scales>
<clustering>
<clus scale="   80.572">  5  6 -1 -1</clus>
<clus scale="   90.252">  7  8 -1 -1</clus>
<clus scale="  113.338">  1  7  2 -1</clus>
<clus scale="  174.803">  1  9  2 -1</clus>
<clus scale="  192.478">  2  5  1 -1</clus>
</clustering>
</event>
<event>
 9    1  0.2951046E-005  0.2243621E+03  0.7546771E-02  0.1131215E+00
          1   -1    0    0  502    0  0.00000000000E+00  0.00000000000E+00  0.42719443273E+03  0.42719443273E+03  0.00000000000E+00 0. -1.
         -2   -1    0    0    0  501 -0.00000000000E+00 -0.00000000000E+00 -0.18187542572E+03  0.18187542572E+03  0.00000000000E+00 0.  1.
        -24    2    1    2    0    0  0.19490316322E+03 -0.27391068282E+02  0.20827389152E+02  0.21359312452E+03  0.80316430737E+02 0.  0.
         23    2    1    2    0    0 -0.21991172175E+03  0.12949058465E+02  0.83474430884E+02  0.25153283282E+03  0.88158617836E+02 0.  0.
         11    1    3    3    0    0  0.59692480400E+02 -0.33614270810E+02  0.36003840311E+02  0.77391136027E+02  0.00000000000E+00 0. -1.
        -12    1    3    3    0    0  0.13521068282E+03  0.62232025273E+01 -0.15176451159E+02  0.13620198849E+03  0.00000000000E+00 0.  1.
        -13    1    4    4    0    0 -0.11504155741E+03 -0.73036165349E+01 -0.11262508353E+01  0.11527866753E+03  0.00000000000E+00 0.  1.
         13    1    4    4    0    0 -0.10487016434E+03  0.20252675000E+02  0.84600681719E+02  0.13625416530E+03  0.00000000000E+00 0. -1.
         21    1    1    2  502  501  0.25008558526E+02  0.14442009817E+02  0.14101718697E+03  0.14394390112E+03  0.00000000000E+00 0.  1.
<scales pt_clust_5="13000.00000" pt_clust_6="13000.00000" pt_clust_7="13000.00000" pt_clust_8="13000.00000" pt_clust_9="28.87905"></scales>
<clustering>
<clus scale="   28.879">  1  9  2 -1</clus>
<clus scale="   80.316">  5  6 -1 -1</clus>
<clus scale="   88.159">  7  8 -1 -1</clus>
<clus scale="  221.398">  2  5  1 -1</clus>
<clus scale="   28.879">  1  5  2 -1</clus>
</clustering>
</event>
<event>
 9    1  0.2951046E-005  0.9853171E+02  0.7546771E-02  0.1293525E+00
          3   -1    0    0  502    0  0.00000000000E+00  0.00000000000E+00  0.28775165672E+03  0.28775165672E+03  0.00000000000E+00 0. -1.
         -4   -1    0    0    0  501 -0.00000000000E+00 -0.00000000000E+00 -0.97048219683E+02  0.97048219683E+02  0.00000000000E+00 0.  1.
         23    2    1    2    0    0 -0.72880514639E+01 -0.39421825034E+02 -0.57561544723E+02  0.11410257956E+03  0.89993728937E+02 0.  0.
        -24    2    1    2    0    0 -0.14457741364E+02  0.43018191220E+02  0.21380406486E+03  0.22979047407E+03  0.70935835541E+02 0.  0.
         11    1    4    4    0    0 -0.41477175766E+02  0.13066239208E+02  0.99897319381E+02  0.10895208642E+03  0.00000000000E+00 0. -1.
        -12    1    4    4    0    0  0.27019434401E+02  0.29951952012E+02  0.11390674547E+03  0.12083838765E+03  0.00000000000E+00 0.  1.
        -11    1    3    3    0    0 -0.39253341087E+01 -0.63284601969E+02 -0.14944017704E+02  0.65143478257E+02  0.00000000000E+00 0.  1.
         11    1    3    3    0    0 -0.33627173551E+01  0.23862776935E+02 -0.42617527019E+02  0.48959101302E+02  0.00000000000E+00 0. -1.
         21    1    1    2  502  501  0.21745792828E+02 -0.35963661859E+01  0.34460916904E+02  0.40906822772E+02  0.00000000000E+00 0.  1.
<scales pt_clust_5="13000.00000" pt_clust_6="13000.00000" pt_clust_7="13000.00000" pt_clust_8="13000.00000" pt_clust_9="22.04117"></scales>
<clustering>
<clus scale="   22.041">  1  9  2 -1</clus>
<clus scale="   70.936">  5  6 -1 -1</clus>
<clus scale="   81.496">  1  5  2 -1</clus>
<clus scale="   89.994">  7  8 -1 -1</clus>
<clus scale="   22.041">  1  5  2 -1</clus>
</clustering>
</event>
<event>
 9    1  0.2951046E-005  0.1490415E+03  0.7546771E-02  0.1203762E+00
         -2   -1    0    0    0  501 -0.00000000000E+00  0.00000000000E+00  0.15977660530E+03  0.15977660530E+03  0.00000000000E+00 0.  1.
          1   -1    0    0  502    0  0.00000000000E+00 -0.00000000000E+00 -0.42123547765E+03  0.42123547765E+03  0.00000000000E+00 0. -1.
         23    2    1    2    0    0  0.58860877960E+02 -0.10509846438E+03  0.10477673382E+03  0.18398975038E+03  0.91453672020E+02 0.  0.
        -24    2    1    2    0    0 -0.37162457799E+02  0.87753091163E+02 -0.31522976100E+03  0.33894239067E+03  0.80190327939E+02 0.  0.
         11    1    4    4    0    0 -0.43197478948E+02  0.99706864031E+02 -0.25402761519E+03  0.27629243602E+03  0.00000000000E+00 0. -1.
        -12    1    4    4    0    0  0.60350211485E+01 -0.11953772868E+02 -0.61202145812E+02  0.62649954653E+02  0.00000000000E+00 0.  1.
        -11    1    3    3    0    0  0.52053676482E+02 -0.28653703178E+02  0.86759129538E+02  0.10515591519E+03  0.00000000000E+00 0.  1.
         11    1    3    3    0    0  0.68072014781E+01 -0.76444761200E+02  0.18017604284E+02  0.78833835192E+02  0.00000000000E+00 0. -1.
         21    1    1    2  502  501 -0.21698420161E+02  0.17345373215E+02 -0.51005845171E+02  0.58079941899E+02  0.00000000000E+00 0. -1.
<scales pt_clust_5="13000.00000" pt_clust_6="13000.00000" pt_clust_7="13000.00000" pt_clust_8="13000.00000" pt_clust_9="27.77919"></scales>
<clustering>
<clus scale="   27.779">  2  9  1 -1</clus>
<clus scale="   80.190">  5  6 -1 -1</clus>
<clus scale="   91.454">  7  8 -1 -1</clus>
<clus scale="  142.408">  2  5  1 -1</clus>
<clus scale="   27.779">  2  5  1 -1</clus>
</clustering>
</event>
<event>
 9    1  0.2951046E-005  0.1109570E+03  0.7546771E-02  0.1263593E+00
          1   -1    0    0  502    0  0.00000000000E+00  0.00000000000E+00  0.48294015042E+03  0.48294015042E+03  0.00000000000E+00 0. -1.
         -2   -1    0    0    0  501 -0.00000000000E+00 -0.00000000000E+00 -0.19911319720E+03  0.19911319720E+03  0.00000000000E+00 0.  1.
        -24    2    1    2    0    0  0.89888881645E+01  0.63020184520E+02 -0.17267525995E+03  0.20058247467E+03  0.79776186788E+02 0.  0.
         23    2    1    2    0    0 -0.32428291412E+02 -0.16200068998E+02  0.33152001913E+03  0.34596412896E+03  0.92041398975E+02 0.  0.
         11    1    3    3    0    0 -0.73303481110E+01  0.58269225259E+02 -0.51168113526E+02  0.77892313212E+02  0.00000000000E+00 0. -1.
        -12    1    3    3    0    0  0.16319236275E+02  0.47509592614E+01 -0.12150714642E+03  0.12269016145E+03  0.00000000000E+00 0.  1.
        -13    1    4    4    0    0 -0.57935172318E+02 -0.34573002103E+02  0.22940495532E+03  0.23912007484E+03  0.00000000000E+00 0. -1.
         13    1    4    4    0    0  0.25506880906E+02  0.18372933105E+02  0.10211506380E+03  0.10684405412E+03  0.00000000000E+00 0.  1.
         21    1    1    2  502  501  0.23439403248E+02 -0.46820115523E+02  0.12498219404E+03  0.13550674400E+03  0.00000000000E+00 0.  1.
<scales pt_clust_5="13000.00000" pt_clust_6="13000.00000" pt_clust_7="13000.00000" pt_clust_8="13000.00000" pt_clust_9="52.35961"></scales>
<clustering>
<clus scale="   52.360">  1  9  2 -1</clus>
<clus scale="   79.776">  5  6 -1 -1</clus>
<clus scale="   92.041">  7  8 -1 -1</clus>
<clus scale="  101.015">  2  5  1 -1</clus>
<clus scale="   52.360">  1  5  2 -1</clus>
</clustering>
</event>
<event>
 9    1  0.2951046E-005  0.2176708E+03  0.7546771E-02  0.1136258E+00
          1   -1    0    0  502    0  0.00000000000E+00  0.00000000000E+00  0.79794076636E+03  0.79794076636E+03  0.00000000000E+00 0. -1.
         -2   -1    0    0    0  501 -0.00000000000E+00 -0.00000000000E+00 -0.20599245943E+03  0.20599245943E+03  0.00000000000E+00 0.  1.
        -24    2    1    2    0    0 -0.19848674069E+03  0.17559786083E+02 -0.12555840593E+03  0.24892058330E+03  0.80568053059E+02 0.  0.
         23    2    1    2    0    0  0.19333791985E+03  0.18658167707E+01  0.62165319287E+03  0.65707510272E+03  0.88949232022E+02 0.  0.
         11    1    3    3    0    0 -0.59145077926E+02  0.21815894486E+02 -0.80846038237E+02  0.10251904893E+03  0.00000000000E+00 0. -1.
        -12    1    3    3    0    0 -0.13934166277E+03 -0.42561084031E+01 -0.44712367692E+02  0.14640153437E+03  0.00000000000E+00 0.  1.
        -11    1    4    4    0    0  0.69860574156E+02 -0.39173054820E+02  0.28855753371E+03  0.29946699035E+03  0.00000000000E+00 0.  1.
         11    1    4    4    0    0  0.12347734569E+03  0.41038871591E+02  0.33309565916E+03  0.35760811237E+03  0.00000000000E+00 0. -1.
         21    1    1    2  502  501  0.51488208435E+01 -0.19425602854E+02  0.95853519986E+02  0.97937539769E+02  0.00000000000E+00 0. -1.
<scales pt_clust_5="13000.00000" pt_clust_6="13000.00000" pt_clust_7="13000.00000" pt_clust_8="13000.00000" pt_clust_9="20.09638"></scales>
<clustering>
<clus scale="   20.096">  1  9  2 -1</clus>
<clus scale="   80.568">  5  6 -1 -1</clus>
<clus scale="   88.949">  7  8 -1 -1</clus>
<clus scale="  214.382">  2  5  1 -1</clus>
<clus scale="   20.096">  1  5  2 -1</clus>
</clustering>
</event>
<event>
 9    1  0.2951046E-005  0.3360351E+03  0.7546771E-02  0.1068776E+00
         -2   -1    0    0    0  501 -0.00000000000E+00  0.00000000000E+00  0.10029167615E+04  0.10029167615E+04  0.00000000000E+00 0.  1.
          1   -1    0    0  502    0  0.00000000000E+00 -0.00000000000E+00 -0.15202779338E+03  0.15202779338E+03  0.00000000000E+00 0. -1.
        -24    2    1    2    0    0 -0.84347802694E+02 -0.30533355821E+03  0.57318839491E+03  0.65977593160E+03  0.80101250107E+02 0.  0.
         23    2    1    2    0    0  0.10397764310E+03  0.32020737461E+03  0.30155109081E+03  0.46088439608E+03  0.90206724584E+02 0.  0.
         11    1    3    3    0    0  0.11870707313E+02 -0.52091117968E+02  0.67404838843E+02  0.86010525883E+02  0.00000000000E+00 0. -1.
        -12    1    3    3    0    0 -0.96218510007E+02 -0.25324244024E+03  0.50578355607E+03  0.57376540571E+03  0.00000000000E+00 0.  1.
        -11    1    4    4    0    0 -0.92625222602E+01  0.86870480906E+02  0.56327804459E+02  0.10394756528E+03  0.00000000000E+00 0.  1.
         11    1    4    4    0    0  0.11324016536E+03  0.23333689370E+03  0.24522328635E+03  0.35693683080E+03  0.00000000000E+00 0. -1.
         21    1    1    2  502  501 -0.19629840409E+02 -0.14873816401E+02 -0.23850517573E+02  0.34284227238E+02  0.00000000000E+00 0.  1.
<scales pt_clust_5="13000.00000" pt_clust_6="13000.00000" pt_clust_7="13000.00000" pt_clust_8="13000.00000" pt_clust_9="24.62846"></scales>
<clustering>
<clus scale="   24.628">  2  9  1 -1</clus>
<clus scale="   80.101">  5  6 -1 -1</clus>
<clus scale="   90.207">  7  8 -1 -1</clus>
<clus scale="  333.464">  1  5  2 -1</clus>
<clus scale="   24.628">  2  5  1 -1</clus>
</clustering>
</event>
<event>
 9    1  0.2951046E-005  0.1200805E+03  0.7546771E-02  0.1246162E+00
         -2   -1    0    0    0  501 -0.00000000000E+00  0.00000000000E+00  0.49853277411E+03  0.49853277411E+03  0.00000000000E+00 0.  1.
          1   -1    0    0  502    0  0.00000000000E+00 -0.00000000000E+00 -0.83853225088E+02  0.83853225088E+02  0.00000000000E+00 0. -1.
         23    2    1    2    0    0 -0.55409787424E+02  0.10309733797E+02  0.35610153229E+03  0.37147794122E+03  0.89504325933E+02 0.  0.
        -24    2    1    2    0    0  0.63847681743E+02 -0.54659134598E+02 -0.22946279781E+02  0.11771858253E+03  0.79164294088E+02 0.  0.
         11    1    4    4    0    0  0.53477107932E+02 -0.74172959460E+02 -0.26798683553E+02  0.95286926847E+02  0.00000000000E+00 0. -1.
        -12    1    4    4    0    0  0.10370573811E+02  0.19513824862E+02  0.38524037714E+01  0.22431655684E+02  0.00000000000E+00 0.  1.
        -11    1    3    3    0    0 -0.20784957073E+02 -0.34584083597E+02  0.79815175416E+02  0.89434531952E+02  0.00000000000E+00 0. -1.
         11    1    3    3    0    0 -0.34624830351E+02  0.44893817394E+02  0.27628635687E+03  0.28204340927E+03  0.00000000000E+00 0.  1.
         21    1    1    2  502  501 -0.84378943190E+01  0.44349400802E+02  0.81524296516E+02  0.93189475449E+02  0.00000000000E+00 0.  1.
<scales pt_clust_5="13000.00000" pt_clust_6="13000.00000" pt_clust_7="13000.00000" pt_clust_8="13000.00000" pt_clust_9="45.14496"></scales>
<clustering>
<clus scale="   45.145">  1  9  2 -1</clus>
<clus scale="   79.164">  5  6 -1 -1</clus>
<clus scale="   89.504">  7  8 -1 -1</clus>
<clus scale="  112.585">  2  5  1 -1</clus>
<clus scale="  112.585">  2  5  1 -1</clus>
</clustering>
</event>
<event>
 9    1  0.2951046E-005  0.9908139E+02  0.7546771E-02  0.1288204E+00
         -4   -1    0    0    0  501 -0.00000000000E+00  0.00000000000E+00  0.66990743164E+02  0.66990743164E+02  0.00000000000E+00 0.  1.
          3   -1    0    0  502    0  0.00000000000E+00 -0.00000000000E+00 -0.30190730586E+03  0.30190730586E+03  0.00000000000E+00 0. -1.
         23    2    1    2    0    0 -0.23522109138E+02 -0.34836921544E+02  0.96548114971E+01  0.10104829221E+03  0.91381843122E+02 0.  0.
        -24    2    1    2    0    0  0.45350979357E+01  0.25918012521E+02 -0.16019445103E+03  0.18090426414E+03  0.79823431148E+02 0.  0.
         13    1    4    4    0    0  0.31009127684E+02  0.29271591418E+02 -0.14284634641E+03  0.14907538612E+03  0.00000000000E+00 0. -1.
        -14    1    4    4    0    0 -0.26474029748E+02 -0.33535788968E+01 -0.17348104611E+02  0.31828878022E+02  0.00000000000E+00 0.  1.
        -11    1    3    3    0    0 -0.15988312434E+02  0.29925083593E+02 -0.48004721004E+01  0.34266328880E+02  0.00000000000E+00 0. -1.
         11    1    3    3    0    0 -0.75337967043E+01 -0.64762005137E+02  0.14455283597E+02  0.66781963329E+02  0.00000000000E+00 0.  1.
         21    1    1    2  502  501  0.18987011202E+02  0.89189090231E+01 -0.84376923172E+02  0.86945492675E+02  0.00000000000E+00 0. -1.
<scales pt_clust_5="13000.00000" pt_clust_6="13000.00000" pt_clust_7="13000.00000" pt_clust_8="13000.00000" pt_clust_9="20.97745"></scales>
<clustering>
<clus scale="   20.977">  2  9  1 -1</clus>
<clus scale="   79.823">  5  6 -1 -1</clus>
<clus scale="   88.534">  2  5  1 -1</clus>
<clus scale="   91.382">  7  8 -1 -1</clus>
<clus scale="   20.977">  2  5  1 -1</clus>
</clustering>
</event>
<event>
 9    1  0.2951046E-005  0.1168889E+03  0.7546771E-02  0.1251704E+00
         -2   -1    0    0    0  501 -0.00000000000E+00  0.00000000000E+00  0.12140146777E+03  0.12140146777E+03  0.00000000000E+00 0.  1.
          1   -1    0    0  502    0  0.00000000000E+00 -0.00000000000E+00 -0.23427792850E+03  0.23427792850E+03  0.00000000000E+00 0. -1.
        -24    2    1    2    0    0 -0.33676931923E+02 -0.69734198060E+02  0.55887206642E+02  0.12518284952E+03  0.80934367396E+02 0.  0.
         23    2    1    2    0    0  0.57674728346E+02  0.34054838215E+02 -0.11004034691E+03  0.15771372379E+03  0.90987001413E+02 0.  0.
         13    1    3    3    0    0 -0.47251016255E+02 -0.46879228442E+02  0.68715874084E+02  0.95667089156E+02  0.00000000000E+00 0. -1.
        -14    1    3    3    0    0  0.13574084332E+02 -0.22854969618E+02 -0.12828667443E+02  0.29515760367E+02  0.00000000000E+00 0.  1.
        -13    1    4    4    0    0 -0.61862322330E+00  0.51632846458E+02 -0.43459856053E+02  0.67491426242E+02  0.00000000000E+00 0. -1.
         13    1    4    4    0    0  0.58293351570E+02 -0.17578008243E+02 -0.66580490861E+02  0.90222297545E+02  0.00000000000E+00 0.  1.
         21    1    1    2  502  501 -0.23997796423E+02  0.35679359846E+02 -0.58723320461E+02  0.72782822961E+02  0.00000000000E+00 0. -1.
<scales pt_clust_5="13000.00000" pt_clust_6="13000.00000" pt_clust_7="13000.00000" pt_clust_8="13000.00000" pt_clust_9="42.99896"></scales>
<clustering>
<clus scale="   42.999">  2  9  1 -1</clus>
<clus scale="   80.934">  5  6 -1 -1</clus>
<clus scale="   90.987">  7  8 -1 -1</clus>
<clus scale="  109.246">  1  5  2 -1</clus>
<clus scale="   42.999">  2  5  1 -1</clus>
</clustering>
</event>
<event>
 9    1  0.2951046E-005  0.2841510E+03  0.7546771E-02  0.1093443E+00
         -2   -1    0    0    0  501 -0.00000000000E+00  0.00000000000E+00  0.27569786506E+03  0.27569786506E+03  0.00000000000E+00 0.  1.
          1   -1    0    0  502    0  0.00000000000E+00 -0.00000000000E+00 -0.26018882309E+03  0.26018882309E+03  0.00000000000E+00 0. -1.
        -24    2    1    2    0    0  0.15707632467E+03  0.36832519611E+02 -0.67924230552E+02  0.19165900572E+03  0.78037600579E+02 0.  0.
         23    2    1    2    0    0  0.35424334505E+02 -0.94847014041E+01 -0.41813716780E+02  0.11294600294E+03  0.98303456873E+02 0.  0.
         11    1    3    3    0    0  0.73546830991E+02 -0.11047422522E+02 -0.59065462608E+02  0.94973210782E+02  0.00000000000E+00 0. -1.
        -12    1    3    3    0    0  0.83529493677E+02  0.47879942133E+02 -0.88587679440E+01  0.96685794935E+02  0.00000000000E+00 0.  1.
        -11    1    4    4    0    0  0.10308956306E+01 -0.50492568752E+02 -0.27673584608E+02  0.57588102330E+02  0.00000000000E+00 0.  1.
         11    1    4    4    0    0  0.34393438874E+02  0.41007867348E+02 -0.14140132173E+02  0.55357900609E+02  0.00000000000E+00 0. -1.
         21    1    1    2  502  501 -0.19250065917E+03 -0.27347818207E+02  0.12524698930E+03  0.23128167950E+03  0.00000000000E+00 0.  1.
<scales pt_clust_5="13000.00000" pt_clust_6="13000.00000" pt_clust_7="13000.00000" pt_clust_8="13000.00000" pt_clust_9="194.43355"></scales>
<clustering>
<clus scale="   78.038">  5  6 -1 -1</clus>
<clus scale="   98.303">  7  8 -1 -1</clus>
<clus scale="  102.327">  5  7 -1 -1</clus>
<clus scale="  194.434">  1  9  2 -1</clus>
<clus scale="  284.151">  2  5  1 -1</clus>
</clustering>
</event>
<event>
 9    1  0.2951046E-005  0.1422447E+03  0.7546771E-02  0.1212826E+00
         -2   -1    0    0    0  501 -0.00000000000E+00  0.00000000000E+00  0.77329600140E+02  0.77329600140E+02  0.00000000000E+00 0.  1.
          1   -1    0    0  502    0  0.00000000000E+00 -0.00000000000E+00 -0.87500991048E+03  0.87500991048E+03  0.00000000000E+00 0. -1.
        -24    2    1    2    0    0  0.81418810579E+02  0.82447451820E+02 -0.96643819343E+01  0.14028117739E+03  0.78478044208E+02 0.  0.
         23    2    1    2    0    0 -0.85005099117E+02 -0.20163662723E+02 -0.40789475863E+03  0.42685158931E+03  0.90508038380E+02 0.  0.
         13    1    3    3    0    0  0.54575701582E+02  0.29854410009E+02 -0.39938994484E+02  0.73925072070E+02  0.00000000000E+00 0. -1.
        -14    1    3    3    0    0  0.26843108997E+02  0.52593041812E+02  0.30274612550E+02  0.66356105316E+02  0.00000000000E+00 0.  1.
        -13    1    4    4    0    0 -0.23214167406E+02  0.20996781257E+02 -0.36387134235E+02  0.47997770046E+02  0.00000000000E+00 0.  1.
         13    1    4    4    0    0 -0.61790931711E+02 -0.41160443980E+02 -0.37150762440E+03  0.37885381927E+03  0.00000000000E+00 0. -1.
         21    1    1    2  502  501  0.35862885376E+01 -0.62283789097E+02 -0.38012116977E+03  0.38520674392E+03  0.00000000000E+00 0. -1.
<scales pt_clust_5="13000.00000" pt_clust_6="13000.00000" pt_clust_7="13000.00000" pt_clust_8="13000.00000" pt_clust_9="62.38695"></scales>
<clustering>
<clus scale="   62.387">  2  9  1 -1</clus>
<clus scale="   78.478">  5  6 -1 -1</clus>
<clus scale="   90.508">  7  8 -1 -1</clus>
<clus scale="  134.910">  1  5  2 -1</clus>
<clus scale="   62.387">  2  5  1 -1</clus>
</clustering>
</event>
<event>
 9    1  0.2951046E-005  0.1280735E+03  0.7546771E-02  0.1234272E+00
          1   -1    0    0  502    0  0.00000000000E+00  0.00000000000E+00  0.14770301689E+03  0.14770301689E+03  0.00000000000E+00 0. -1.
         -2   -1    0    0    0  501 -0.00000000000E+00 -0.00000000000E+00 -0.16331319425E+03  0.16331319425E+03  0.00000000000E+00 0.  1.
        -24    2    1    2    0    0 -0.62871153930E+02 -0.71939897481E+02 -0.90887706562E+02  0.15206306289E+03  0.75726277109E+02 0.  0.
         23    2    1    2    0    0  0.47967199256E+02  0.56386693924E+02  0.71671115658E+02  0.13711198930E+03  0.90457931286E+02 0.  0.
         11    1    3    3    0    0 -0.78154238306E+02 -0.44325226088E+02 -0.61029315317E+02  0.10861578136E+03  0.00000000000E+00 0. -1.
        -12    1    3    3    0    0  0.15283084377E+02 -0.27614671393E+02 -0.29858391245E+02  0.43447281525E+02  0.00000000000E+00 0.  1.
        -11    1    4    4    0    0  0.69169853177E+02  0.63902733050E+02  0.61111195899E+02  0.11226132969E+03  0.00000000000E+00 0. -1.
         11    1    4    4    0    0 -0.21202653921E+02 -0.75160391260E+01  0.10559919759E+02  0.24850659604E+02  0.00000000000E+00 0.  1.
         21    1    1    2  502  501  0.14903954674E+02  0.15553203557E+02  0.36064135509E+01  0.21841158955E+02  0.00000000000E+00 0. -1.
<scales pt_clust_5="13000.00000" pt_clust_6="13000.00000" pt_clust_7="13000.00000" pt_clust_8="13000.00000" pt_clust_9="21.54136"></scales>
<clustering>
<clus scale="   21.541">  1  9  2 -1</clus>
<clus scale="   75.726">  5  6 -1 -1</clus>
<clus scale="   90.458">  7  8 -1 -1</clus>
<clus scale="  118.130">  2  5  1 -1</clus>
<clus scale="   21.541">  1  5  2 -1</clus>
</clustering>
</event>
<event>
 9    1  0.2951046E-005  0.9114362E+02  0.7546771E-02  0.1307016E+00
          1   -1    0    0  502    0  0.00000000000E+00  0.00000000000E+00  0.44612168687E+03  0.44612168687E+03  0.00000000000E+00 0. -1.
         -2   -1    0    0    0  501 -0.00000000000E+00 -0.00000000000E+00 -0.36322100570E+02  0.36322100570E+02  0.00000000000E+00 0.  1.
        -24    2    1    2    0    0 -0.61969606885E+01 -0.66977632107E+01  0.32815009152E+02  0.86362828240E+02  0.79362780459E+02 0.  0.
         23    2    1    2    0    0  0.28634085059E+02  0.12809384071E+02  0.33126231720E+03  0.34478474575E+03  0.90320578818E+02 0.  0.
         11    1    3    3    0    0 -0.35010304397E+02  0.15803838618E+02  0.18561057081E+01  0.38456831089E+02  0.00000000000E+00 0. -1.
        -12    1    3    3    0    0  0.28813343708E+02 -0.22501601829E+02  0.30958903444E+02  0.47905997151E+02  0.00000000000E+00 0.  1.
        -11    1    4    4    0    0  0.20898524138E+02 -0.38179222483E+02  0.16958798523E+03  0.17508422566E+03  0.00000000000E+00 0.  1.
         11    1    4    4    0    0  0.77355609214E+01  0.50988606554E+02  0.16167433197E+03  0.16970052009E+03  0.00000000000E+00 0. -1.
         21    1    1    2  502  501 -0.22437124371E+02 -0.61116208608E+01  0.45722259950E+02  0.51296213452E+02  0.00000000000E+00 0.  1.
<scales pt_clust_5="13000.00000" pt_clust_6="13000.00000" pt_clust_7="13000.00000" pt_clust_8="13000.00000" pt_clust_9="23.25460"></scales>
<clustering>
<clus scale="   23.255">  1  9  2 -1</clus>
<clus scale="   79.363">  5  6 -1 -1</clus>
<clus scale="   80.298">  2  5  1 -1</clus>
<clus scale="   90.321">  7  8 -1 -1</clus>
<clus scale="   23.255">  1  5  2 -1</clus>
</clustering>
</event>
<event>
 9    1  0.2951046E-005  0.1762802E+03  0.7546771E-02  0.1172785E+00
          1   -1    0    0  502    0  0.00000000000E+00  0.00000000000E+00  0.64957120081E+03  0.64957120081E+03  0.00000000000E+00 0. -1.
         -2   -1    0    0    0  501 -0.00000000000E+00 -0.00000000000E+00 -0.21755503025E+03  0.21755503025E+03  0.00000000000E+00 0.  1.
        -24    2    1    2    0    0  0.10085686071E+02  0.15366509282E+03 -0.16228802654E+03  0.23743796772E+03  0.79528002227E+02 0.  0.
         23    2    1    2    0    0 -0.35804962024E+02 -0.12243571543E+03  0.36830002217E+03  0.40009156857E+03  0.90309784568E+02 0.  0.
         11    1    3    3    0    0 -0.19516818008E+02  0.58637306395E+02 -0.22357660451E+02  0.65719897042E+02  0.00000000000E+00 0. -1.
        -12    1    3    3    0    0  0.29602504080E+02  0.95027786427E+02 -0.13993036609E+03  0.17171807067E+03  0.00000000000E+00 0.  1.
        -11    1    4    4    0    0 -0.42665689552E+02 -0.72422024687E+02  0.11876050312E+03  0.14549696844E+03  0.00000000000E+00 0.  1.
         11    1    4    4    0    0  0.68607275277E+01 -0.50013690742E+02  0.24953951905E+03  0.25459460013E+03  0.00000000000E+00 0. -1.
         21    1    1    2  502  501  0.25719275953E+02 -0.31229377392E+02  0.22600417493E+03  0.22959669478E+03  0.00000000000E+00 0. -1.
<scales pt_clust_5="13000.00000" pt_clust_6="13000.00000" pt_clust_7="13000.00000" pt_clust_8="13000.00000" pt_clust_9="40.45683"></scales>
<clustering>
<clus scale="   40.457">  1  9  2 -1</clus>
<clus scale="   79.528">  5  6 -1 -1</clus>
<clus scale="   90.310">  7  8 -1 -1</clus>
<clus scale="  171.007">  2  5  1 -1</clus>
<clus scale="   40.457">  1  5  2 -1</clus>
</clustering>
</event>
<event>
 9    1  0.2951046E-005  0.1798816E+03  0.7546771E-02  0.1174908E+00
         -2   -1    0    0    0  501 -0.00000000000E+00  0.00000000000E+00  0.13898752560E+03  0.13898752560E+03  0.00000000000E+00 0.  1.
          1   -1    0    0  502    0  0.00000000000E+00 -0.00000000000E+00 -0.14533111871E+04  0.14533111871E+04  0.00000000000E+00 0. -1.
        -24    2    1    2    0    0 -0.14728011417E+03 -0.72806852585E+02  0.49460756195E+02  0.18948080549E+03  0.80401115880E+02 0.  0.
         23    2    1    2    0    0 -0.61602791886E+01  0.12512233766E+03 -0.46814623920E+03  0.49262638281E+03  0.88466396680E+02 0.  0.
         11    1    3    3    0    0 -0.92435135665E+02 -0.62387865740E+02 -0.48103154182E+01  0.11162275409E+03  0.00000000000E+00 0. -1.
        -12    1    3    3    0    0 -0.54844978502E+02 -0.10418986845E+02  0.54271071613E+02  0.77858051400E+02  0.00000000000E+00 0.  1.
        -11    1    4    4    0    0 -0.46933407913E+02  0.60183989572E+02 -0.25048082459E+03  0.26185014964E+03  0.00000000000E+00 0.  1.
         11    1    4    4    0    0  0.40773128725E+02  0.64938348092E+02 -0.21766541460E+03  0.23077623316E+03  0.00000000000E+00 0. -1.
         21    1    1    2  502  501  0.15344039336E+03 -0.52315485078E+02 -0.89563817851E+03  0.91019152440E+03  0.00000000000E+00 0. -1.
<scales pt_clust_5="13000.00000" pt_clust_6="13000.00000" pt_clust_7="13000.00000" pt_clust_8="13000.00000" pt_clust_9="160.91320"></scales>
<clustering>
<clus scale="   80.401">  5  6 -1 -1</clus>
<clus scale="   88.466">  7  8 -1 -1</clus>
<clus scale="  153.362">  2  7  1 -1</clus>
<clus scale="  160.913">  2  9  1 -1</clus>
<clus scale="  153.362">  2  5  1 -1</clus>
</clustering>
</event>
<event>
 9    1  0.2951046E-005  0.9357023E+02  0.7546771E-02  0.1301928E+00
         -4   -1    0    0    0  501 -0.00000000000E+00  0.00000000000E+00  0.53726502486E+03  0.53726502486E+03  0.00000000000E+00 0.  1.
          3   -1    0    0  502    0  0.00000000000E+00 -0.00000000000E+00 -0.49011719611E+02  0.49011719611E+02  0.00000000000E+00 0. -1.
        -24    2    1    2    0    0  0.10455190506E+02 -0.13718709862E+02  0.39352353107E+03  0.40170410430E+03  0.78790252554E+02 0.  0.
         23    2    1    2    0    0 -0.55771038036E+02  0.17834790793E+02  0.45651804684E+02  0.11764644762E+03  0.91258484103E+02 0.  0.
         11    1    3    3    0    0 -0.69412680048E+01 -0.35898358591E+02  0.94056016751E+02  0.10091287152E+03  0.00000000000E+00 0. -1.
        -12    1    3    3    0    0  0.17396458510E+02  0.22179648728E+02  0.29946751432E+03  0.30079123278E+03  0.00000000000E+00 0.  1.
        -11    1    4    4    0    0 -0.68721435433E+02  0.38335274142E+02  0.17726537952E+02  0.80662625045E+02  0.00000000000E+00 0. -1.
         11    1    4    4    0    0  0.12950397397E+02 -0.20500483348E+02  0.27925266732E+02  0.36983822576E+02  0.00000000000E+00 0.  1.
         21    1    1    2  502  501  0.45315847530E+02 -0.41160809313E+01  0.49077969502E+02  0.66926192556E+02  0.00000000000E+00 0.  1.
<scales pt_clust_5="13000.00000" pt_clust_6="13000.00000" pt_clust_7="13000.00000" pt_clust_8="13000.00000" pt_clust_9="45.50240"></scales>
<clustering>
<clus scale="   45.502">  2  9  1 -1</clus>
<clus scale="   78.790">  5  6 -1 -1</clus>
<clus scale="   81.457">  1  5  2 -1</clus>
<clus scale="   91.258">  7  8 -1 -1</clus>
<clus scale="   45.502">  2  5  1 -1</clus>
</clustering>
</event>
<event>
 9    1  0.2951046E-005  0.9840261E+02  0.7546771E-02  0.1289664E+00
         -4   -1    0    0    0  501 -0.00000000000E+00  0.00000000000E+00  0.92699975589E+02  0.92699975589E+02  0.00000000000E+00 0.  1.
          3   -1    0    0  502    0  0.00000000000E+00 -0.00000000000E+00 -0.23961924952E+03  0.23961924952E+03  0.00000000000E+00 0. -1.
         23    2    1    2    0    0  0.47924191344E+01  0.36488937727E+02  0.43767126970E+02  0.10673378927E+03  0.90122863421E+02 0.  0.
        -24    2    1    2    0    0  0.35361614008E+00 -0.56073446991E+02 -0.17543891954E+03  0.20023745032E+03  0.78561221464E+02 0.  0.
         11    1    4    4    0    0  0.23227333243E+02 -0.64700862950E+02 -0.10342450620E+03  0.12418671088E+03  0.00000000000E+00 0. -1.
        -12    1    4    4    0    0 -0.22873717103E+02  0.86274159596E+01 -0.72014413345E+02  0.76050739442E+02  0.00000000000E+00 0.  1.
        -13    1    3    3    0    0  0.42800571636E+02  0.41527339795E+01  0.45036042121E+01  0.43236750372E+02  0.00000000000E+00 0.  1.
         13    1    3    3    0    0 -0.38008152502E+02  0.32336203748E+02  0.39263522758E+02  0.63497038898E+02  0.00000000000E+00 0. -1.
         21    1    1    2  502  501 -0.51460352745E+01  0.19584509263E+02 -0.15247481355E+02  0.25347985518E+02  0.00000000000E+00 0.  1.
<scales pt_clust_5="13000.00000" pt_clust_6="13000.00000" pt_clust_7="13000.00000" pt_clust_8="13000.00000" pt_clust_9="20.24931"></scales>
<clustering>
<clus scale="   20.249">  2  9  1 -1</clus>
<clus scale="   78.561">  5  6 -1 -1</clus>
<clus scale="   87.936">  2  5  1 -1</clus>
<clus scale="   90.123">  7  8 -1 -1</clus>
<clus scale="   20.249">  2  5  1 -1</clus>
</clustering>
</event>
<event>
 9    1  0.2951046E-005  0.1034190E+03  0.7546771E-02  0.1277328E+00
         -4   -1    0    0    0  501 -0.00000000000E+00  0.00000000000E+00  0.59524066824E+03  0.59524066824E+03  0.00000000000E+00 0.  1.
          3   -1    0    0  502    0  0.00000000000E+00 -0.00000000000E+00 -0.31880310758E+02  0.31880310758E+02  0.00000000000E+00 0. -1.
        -24    2    1    2    0    0  0.44995830668E+02  0.98971463648E+00  0.36989760372E+03  0.38137736376E+03  0.81233318524E+02 0.  0.
         23    2    1    2    0    0 -0.65024975421E+02  0.15696907034E+02  0.18816682062E+03  0.21914179406E+03  0.90231553255E+02 0.  0.
         13    1    3    3    0    0  0.64809929547E+02 -0.99682208537E+01  0.21330500472E+03  0.22315626236E+03  0.00000000000E+00 0. -1.
        -14    1    3    3    0    0 -0.19814098879E+02  0.10957935490E+02  0.15659259900E+03  0.15822110140E+03  0.00000000000E+00 0.  1.
        -11    1    4    4    0    0 -0.60748588387E+02  0.42390960996E+02  0.86222046109E+02  0.11367332933E+03  0.00000000000E+00 0.  1.
         11    1    4    4    0    0 -0.42763870337E+01 -0.26694053961E+02  0.10194477451E+03  0.10546846474E+03  0.00000000000E+00 0. -1.
         21    1    1    2  502  501  0.20029144752E+02 -0.16686621671E+02  0.52959331472E+01  0.26601821182E+02  0.00000000000E+00 0. -1.
<scales pt_clust_5="13000.00000" pt_clust_6="13000.00000" pt_clust_7="13000.00000" pt_clust_8="13000.00000" pt_clust_9="26.06933"></scales>
<clustering>
<clus scale="   26.069">  2  9  1 -1</clus>
<clus scale="   81.233">  5  6 -1 -1</clus>
<clus scale="   90.232">  7  8 -1 -1</clus>
<clus scale="   95.669">  1  5  2 -1</clus>
<clus scale="   26.069">  2  5  1 -1</clus>
</clustering>
</event>
<event>
 9    1  0.2951046E-005  0.1082889E+03  0.7546771E-02  0.1271657E+00
          1   -1    0    0  502    0  0.00000000000E+00  0.00000000000E+00  0.68498335575E+02  0.68498335575E+02  0.00000000000E+00 0. -1.
         -2   -1    0    0    0  501 -0.00000000000E+00 -0.00000000000E+00 -0.30642899410E+03  0.30642899410E+03  0.00000000000E+00 0.  1.
         23    2    1    2    0    0  0.46211590415E+02  0.32913632210E+02 -0.22581975502E+03  0.25163424937E+03  0.95427540172E+02 0.  0.
        -24    2    1    2    0    0 -0.14382227372E+02 -0.39205020660E+02 -0.19044856115E+02  0.90115231981E+02  0.77551056610E+02 0.  0.
         11    1    4    4    0    0  0.12605835781E+02 -0.48265875121E+02  0.83822449065E+01  0.50584225077E+02  0.00000000000E+00 0. -1.
        -12    1    4    4    0    0 -0.26988063154E+02  0.90608544619E+01 -0.27427101022E+02  0.39531006904E+02  0.00000000000E+00 0.  1.
        -13    1    3    3    0    0 -0.13969692027E+02  0.27711141249E+02 -0.19494441056E+02  0.36648231563E+02  0.00000000000E+00 0.  1.
         13    1    3    3    0    0  0.60181282442E+02  0.52024909614E+01 -0.20632531397E+03  0.21498601781E+03  0.00000000000E+00 0. -1.
         21    1    1    2  502  501 -0.31829363043E+02  0.62913884496E+01  0.69339526163E+01  0.33177848321E+02  0.00000000000E+00 0.  1.
<scales pt_clust_5="13000.00000" pt_clust_6="13000.00000" pt_clust_7="13000.00000" pt_clust_8="13000.00000" pt_clust_9="32.44518"></scales>
<clustering>
<clus scale="   32.445">  1  9  2 -1</clus>
<clus scale="   77.551">  5  6 -1 -1</clus>
<clus scale="   92.921">  1  5  2 -1</clus>
<clus scale="   95.428">  7  8 -1 -1</clus>
<clus scale="   32.445">  1  5  2 -1</clus>
</clustering>
</event>
<event>
 9    1  0.2951046E-005  0.1574610E+03  0.7546771E-02  0.1193635E+00
          1   -1    0    0  502    0  0.00000000000E+00  0.00000000000E+00  0.78319205004E+03  0.78319205004E+03  0.00000000000E+00 0. -1.
         -2   -1    0    0    0  501 -0.00000000000E+00 -0.00000000000E+00 -0.48113206036E+02  0.48113206036E+02  0.00000000000E+00 0.  1.
        -24    2    1    2    0    0 -0.18659063153E+02 -0.11365160763E+03  0.21673489267E+03  0.25801703570E+03  0.79585981541E+02 0.  0.
         23    2    1    2    0    0  0.46350926324E+02  0.13571649222E+03  0.24952671208E+03  0.30214912962E+03  0.91995336044E+02 0.  0.
         11    1    3    3    0    0  0.14553537299E+02 -0.10437958907E+03  0.16788271278E+03  0.19822085993E+03  0.00000000000E+00 0. -1.
        -12    1    3    3    0    0 -0.33212600452E+02 -0.92720185658E+01  0.48852179894E+02  0.59796175776E+02  0.00000000000E+00 0.  1.
        -11    1    4    4    0    0 -0.68914590195E+00  0.43570601707E+02  0.15459906570E+02  0.46237224898E+02  0.00000000000E+00 0.  1.
         11    1    4    4    0    0  0.47040072226E+02  0.92145890511E+02  0.23406680551E+03  0.25591190472E+03  0.00000000000E+00 0. -1.
         21    1    1    2  502  501 -0.27691863171E+02 -0.22064884586E+02  0.26881723925E+03  0.27113909076E+03  0.00000000000E+00 0.  1.
<scales pt_clust_5="13000.00000" pt_clust_6="13000.00000" pt_clust_7="13000.00000" pt_clust_8="13000.00000" pt_clust_9="35.40760"></scales>
<clustering>
<clus scale="   35.408">  1  9  2 -1</clus>
<clus scale="   79.586">  5  6 -1 -1</clus>
<clus scale="   91.995">  7  8 -1 -1</clus>
<clus scale="  150.548">  2  5  1 -1</clus>
<clus scale="   35.408">  1  5  2 -1</clus>
</clustering>
</event>
<event>
 9    1  0.2951046E-005  0.1298028E+03  0.7546771E-02  0.1230850E+00
          1   -1    0    0  502    0  0.00000000000E+00  0.00000000000E+00  0.23182186875E+03  0.23182186875E+03  0.00000000000E+00 0. -1.
         -2   -1    0    0    0  501 -0.00000000000E+00 -0.00000000000E+00 -0.98656168672E+02  0.98656168672E+02  0.00000000000E+00 0.  1.
         23    2    1    2    0    0  0.86845639485E+02  0.93063876399E+01  0.11312097305E+02  0.12746052710E+03  0.92138203116E+02 0.  0.
        -24    2    1    2    0    0 -0.98257222304E+02  0.81129186908E+01  0.65798357816E+02  0.14321912454E+03  0.80386519756E+02 0.  0.
         13    1    4    4    0    0 -0.71821122820E+02 -0.14947852960E+02  0.56365212239E+01  0.73576370954E+02  0.00000000000E+00 0. -1.
        -14    1    4    4    0    0 -0.26436099484E+02  0.23060771651E+02  0.60161836592E+02  0.69642753587E+02  0.00000000000E+00 0.  1.
        -13    1    3    3    0    0  0.37630760242E+02  0.21927118967E+02  0.47983030343E+02  0.64801573002E+02  0.00000000000E+00 0. -1.
         13    1    3    3    0    0  0.49214879243E+02 -0.12620731328E+02 -0.36670933038E+02  0.62658954093E+02  0.00000000000E+00 0.  1.
         21    1    1    2  502  501  0.11411582818E+02 -0.17419306331E+02  0.56055244952E+02  0.59798385782E+02  0.00000000000E+00 0. -1.
<scales pt_clust_5="13000.00000" pt_clust_6="13000.00000" pt_clust_7="13000.00000" pt_clust_8="13000.00000" pt_clust_9="20.82442"></scales>
<clustering>
<clus scale="   20.824">  1  9  2 -1</clus>
<clus scale="   80.387">  5  6 -1 -1</clus>
<clus scale="   92.138">  7  8 -1 -1</clus>
<clus scale="  121.743">  1  5  2 -1</clus>
<clus scale="   20.824">  1  5  2 -1</clus>
</clustering>
</event>
<event>
 9    1  0.2951046E-005  0.9865481E+02  0.7546771E-02  0.1289540E+00
          1   -1    0    0  502    0  0.00000000000E+00  0.00000000000E+00  0.11409524885E+03  0.11409524885E+03  0.00000000000E+00 0. -1.
         -2   -1    0    0    0  501 -0.00000000000E+00 -0.00000000000E+00 -0.14968249973E+03  0.14968249973E+03  0.00000000000E+00 0.  1.
         23    2    1    2    0    0  0.91882682431E+01  0.33330106436E+02 -0.46222322508E+02  0.10661336119E+03  0.89635848958E+02 0.  0.
        -24    2    1    2    0    0 -0.28434217328E+02 -0.39727390404E+02 -0.42180675564E+02  0.10058846539E+03  0.77149593100E+02 0.  0.
         11    1    4    4    0    0 -0.43362583167E+02 -0.12537131484E+02  0.36077331311E+01  0.45282546562E+02  0.00000000000E+00 0. -1.
        -12    1    4    4    0    0  0.14928365839E+02 -0.27190258920E+02 -0.45788408696E+02  0.55305918830E+02  0.00000000000E+00 0.  1.
        -11    1    3    3    0    0  0.28082343569E+02 -0.15827270071E+02 -0.43148772035E+02  0.53860347440E+02  0.00000000000E+00 0.  1.
         11    1    3    3    0    0 -0.18894075325E+02  0.49157376507E+02 -0.30735504722E+01  0.52753013753E+02  0.00000000000E+00 0. -1.
         21    1    1    2  502  501  0.19245949085E+02  0.63972839677E+01  0.52815747190E+02  0.56575921995E+02  0.00000000000E+00 0. -1.
<scales pt_clust_5="13000.00000" pt_clust_6="13000.00000" pt_clust_7="13000.00000" pt_clust_8="13000.00000" pt_clust_9="20.28132"></scales>
<clustering>
<clus scale="   20.281">  1  9  2 -1</clus>
<clus scale="   77.150">  5  6 -1 -1</clus>
<clus scale="   87.466">  1  5  2 -1</clus>
<clus scale="   89.636">  7  8 -1 -1</clus>
<clus scale="   20.281">  1  5  2 -1</clus>
</clustering>
</event>
<event>
 9    1  0.2951046E-005  0.9714999E+02  0.7546771E-02  0.1295185E+00
         -2   -1    0    0    0  501 -0.00000000000E+00  0.00000000000E+00  0.30972320827E+03  0.30972320827E+03  0.00000000000E+00 0.  1.
          1   -1    0    0  502    0  0.00000000000E+00 -0.00000000000E+00 -0.96871453929E+02  0.96871453929E+02  0.00000000000E+00 0. -1.
        -24    2    1    2    0    0  0.22714856349E+02  0.61637789011E+01  0.14737839223E+03  0.16720341049E+03  0.75383241603E+02 0.  0.
         23    2    1    2    0    0 -0.25162282483E+02 -0.67354378792E+02  0.11285656360E+03  0.16196097860E+03  0.91241448037E+02 0.  0.
         11    1    3    3    0    0  0.19308404381E+02  0.39661963597E+02  0.68959980596E+02  0.81861863892E+02  0.00000000000E+00 0. -1.
        -12    1    3    3    0    0  0.34064519681E+01 -0.33498184696E+02  0.78418411635E+02  0.85341546602E+02  0.00000000000E+00 0.  1.
        -13    1    4    4    0    0 -0.30325523400E+02  0.11943043107E+02  0.14932406313E+02  0.35850389209E+02  0.00000000000E+00 0. -1.
         13    1    4    4    0    0  0.51632409170E+01 -0.79297421899E+02  0.97924157286E+02  0.12611058939E+03  0.00000000000E+00 0.  1.
         21    1    1    2  502  501  0.24474261347E+01  0.61190599891E+02 -0.47383201489E+02  0.77430273105E+02  0.00000000000E+00 0. -1.
<scales pt_clust_5="13000.00000" pt_clust_6="13000.00000" pt_clust_7="13000.00000" pt_clust_8="13000.00000" pt_clust_9="61.23952"></scales>
<clustering>
<clus scale="   61.240">  2  9  1 -1</clus>
<clus scale="   75.383">  5  6 -1 -1</clus>
<clus scale="   82.436">  1  5  2 -1</clus>
<clus scale="   91.241">  7  8 -1 -1</clus>
<clus scale="   61.240">  2  5  1 -1</clus>
</clustering>
</event>
<event>
 9    1  0.2951046E-005  0.1117891E+03  0.7546771E-02  0.1262955E+00
          1   -1    0    0  502    0  0.00000000000E+00  0.00000000000E+00  0.63273952012E+03  0.63273952012E+03  0.00000000000E+00 0. -1.
         -2   -1    0    0    0  501 -0.00000000000E+00 -0.00000000000E+00 -0.41012240202E+02  0.41012240202E+02  0.00000000000E+00 0.  1.
         23    2    1    2    0    0 -0.64495771953E+02  0.24752622439E+02  0.63997779459E+02  0.13170594909E+03  0.92077925321E+02 0.  0.
        -24    2    1    2    0    0  0.30586315859E+02 -0.27060292576E+02  0.42258440095E+03  0.43154391756E+03  0.77361454933E+02 0.  0.
         13    1    4    4    0    0 -0.72924929291E+01 -0.44903795361E+02  0.23111258439E+03  0.23554735820E+03  0.00000000000E+00 0. -1.
        -14    1    4    4    0    0  0.37878808789E+02  0.17843502784E+02  0.19147181655E+03  0.19599655936E+03  0.00000000000E+00 0.  1.
        -11    1    3    3    0    0 -0.75527330043E+02  0.43770385268E+02  0.66275893860E+02  0.10960254704E+03  0.00000000000E+00 0. -1.
         11    1    3    3    0    0  0.11031558089E+02 -0.19017762830E+02 -0.22781144013E+01  0.22103402049E+02  0.00000000000E+00 0.  1.
         21    1    1    2  502  501  0.33909456094E+02  0.23076701372E+01  0.10514509951E+03  0.11050189367E+03  0.00000000000E+00 0. -1.
<scales pt_clust_5="13000.00000" pt_clust_6="13000.00000" pt_clust_7="13000.00000" pt_clust_8="13000.00000" pt_clust_9="33.98789"></scales>
<clustering>
<clus scale="   33.988">  1  9  2 -1</clus>
<clus scale="   77.361">  5  6 -1 -1</clus>
<clus scale="   92.078">  7  8 -1 -1</clus>
<clus scale="  100.016">  1  5  2 -1</clus>
<clus scale="   33.988">  1  5  2 -1</clus>
</clustering>
</event>
<event>
 9    1  0.3020713E-005  0.1073954E+03  0.7546771E-02  0.1271492E+00
          1   -1    0    0  502    0  0.00000000000E+00  0.00000000000E+00  0.82905791010E+03  0.82905791010E+03  0.00000000000E+00 0. -1.
         -2   -1    0    0    0  501 -0.00000000000E+00 -0.00000000000E+00 -0.63449295023E+02  0.63449295023E+02  0.00000000000E+00 0.  1.
         23    2    1    2    0    0  0.56202209488E+02 -0.66626070003E+01 -0.70267552763E+01  0.10751586974E+03  0.91143887749E+02 0.  0.
        -24    2    1    2    0    0 -0.56468247302E+02  0.29385499938E+02  0.72895488638E+03  0.73575328790E+03  0.76847275249E+02 0.  0.
         11    1    4    4    0    0 -0.64991639859E+02  0.40396890748E+02  0.45070058953E+03  0.45715078851E+03  0.00000000000E+00 0. -1.
        -12    1    4    4    0    0  0.85233925569E+01 -0.11011390810E+02  0.27825429685E+03  0.27860249938E+03  0.00000000000E+00 0.  1.
        -11    1    3    3    0    0  0.60314741642E+01 -0.38929003719E+02  0.17390165491E+02  0.43061164254E+02  0.00000000000E+00 0. -1.
         11    1    3    3    0    0  0.50170735324E+02  0.32266396719E+02 -0.24416920767E+02  0.64454705491E+02  0.00000000000E+00 0.  1.
         21    1    1    2  502  501  0.26603781438E+00 -0.22722892938E+02  0.43680483972E+02  0.49238047480E+02  0.00000000000E+00 0. -1.
<scales pt_clust_5="13000.00000" pt_clust_6="13000.00000" pt_clust_7="13000.00000" pt_clust_8="13000.00000" pt_clust_9="22.72445"></scales>
<clustering>
<clus scale="   22.724">  1  9  2 -1</clus>
<clus scale="   76.847">  5  6 -1 -1</clus>
<clus scale="   91.144">  7  8 -1 -1</clus>
<clus scale="   95.562">  1  5  2 -1</clus>
<clus scale="   22.724">  1  5  2 -1</clus>
</clustering>
</event>
<event>
 9    1  0.2951046E-005  0.9349294E+02  0.7546771E-02  0.1300907E+00
          1   -1    0    0  502    0  0.00000000000E+00  0.00000000000E+00  0.48197824570E+03  0.48197824570E+03  0.00000000000E+00 0. -1.
         -2   -1    0    0    0  501 -0.00000000000E+00 -0.00000000000E+00 -0.14846748391E+03  0.14846748391E+03  0.00000000000E+00 0.  1.
         23    2    1    2    0    0 -0.72954708272E+01  0.19599563980E+02 -0.12570388578E+03  0.15672071899E+03  0.91228011359E+02 0.  0.
        -24    2    1    2    0    0  0.28507212449E+02  0.12820586854E+01  0.36633941624E+03  0.37619661095E+03  0.80653687835E+02 0.  0.
         13    1    4    4    0    0  0.42631055740E+02 -0.29381673159E+02  0.21801187675E+03  0.22407558554E+03  0.00000000000E+00 0. -1.
        -14    1    4    4    0    0 -0.14123843291E+02  0.30663731844E+02  0.14832753949E+03  0.15212102541E+03  0.00000000000E+00 0.  1.
        -13    1    3    3    0    0 -0.30098710253E+02  0.48213390068E+02 -0.71836579026E+02  0.91602169335E+02  0.00000000000E+00 0.  1.
         13    1    3    3    0    0  0.22803239426E+02 -0.28613826088E+02 -0.53867306757E+02  0.65118549654E+02  0.00000000000E+00 0. -1.
         21    1    1    2  502  501 -0.21211741622E+02 -0.20881622666E+02  0.92875231332E+02  0.97528399673E+02  0.00000000000E+00 0. -1.
<scales pt_clust_5="13000.00000" pt_clust_6="13000.00000" pt_clust_7="13000.00000" pt_clust_8="13000.00000" pt_clust_9="29.76542"></scales>
<clustering>
<clus scale="   29.765">  1  9  2 -1</clus>
<clus scale="   80.654">  5  6 -1 -1</clus>
<clus scale="   83.207">  1  5  2 -1</clus>
<clus scale="   91.228">  7  8 -1 -1</clus>
<clus scale="   29.765">  1  5  2 -1</clus>
</clustering>
</event>
<event>
 9    1  0.2951046E-005  0.8273158E+02  0.7546771E-02  0.1324692E+00
          1   -1    0    0  502    0  0.00000000000E+00  0.00000000000E+00  0.29755390651E+03  0.29755390651E+03  0.00000000000E+00 0. -1.
         -2   -1    0    0    0  501 -0.00000000000E+00 -0.00000000000E+00 -0.69324422879E+02  0.69324422879E+02  0.00000000000E+00 0.  1.
        -24    2    1    2    0    0 -0.35141609426E+02 -0.89758716343E+01 -0.17670760933E+02  0.83141359965E+02  0.72696155059E+02 0.  0.
         23    2    1    2    0    0  0.12259181206E+02  0.40241588044E+02  0.22724058056E+03  0.24073309048E+03  0.67412658047E+02 0.  0.
         11    1    3    3    0    0 -0.51893312187E+02 -0.15470483865E+02  0.48096464231E+01  0.54363447458E+02  0.00000000000E+00 0. -1.
        -12    1    3    3    0    0  0.16751702761E+02  0.64946122309E+01 -0.22480407356E+02  0.28777912508E+02  0.00000000000E+00 0.  1.
        -11    1    4    4    0    0  0.33902602346E+02  0.31293485854E+01  0.71778996285E+02  0.79444342631E+02  0.00000000000E+00 0.  1.
         11    1    4    4    0    0 -0.21643421140E+02  0.37112239458E+02  0.15546158427E+03  0.16128874784E+03  0.00000000000E+00 0. -1.
         21    1    1    2  502  501  0.22882428220E+02 -0.31265716409E+02  0.18659664006E+02  0.43003878949E+02  0.00000000000E+00 0.  1.
<scales pt_clust_5="13000.00000" pt_clust_6="13000.00000" pt_clust_7="13000.00000" pt_clust_8="13000.00000" pt_clust_9="38.74468"></scales>
<clustering>
<clus scale="   38.745">  2  9  1 -1</clus>
<clus scale="   67.413">  7  8 -1 -1</clus>
<clus scale="   72.696">  5  6 -1 -1</clus>
<clus scale="   78.130">  1  7  2 -1</clus>
<clus scale="   78.130">  1  5  2 -1</clus>
</clustering>
</event>
<event>
 9    1  0.3770692E-005  0.1580637E+03  0.7546771E-02  0.1212356E+00
          1   -1    0    0  502    0  0.00000000000E+00  0.00000000000E+00  0.11019410561E+04  0.11019410561E+04  0.00000000000E+00 0. -1.
         -2   -1    0    0    0  501 -0.00000000000E+00 -0.00000000000E+00 -0.23725831554E+03  0.23725831554E+03  0.00000000000E+00 0.  1.
         23    2    1    2    0    0  0.13166233286E+02  0.36916752557E+02 -0.20557381506E+03  0.22830501115E+03  0.91249045819E+02 0.  0.
        -24    2    1    2    0    0 -0.18625162744E+01 -0.15718031859E+03  0.64464515208E+03  0.66847355836E+03  0.81119693063E+02 0.  0.
         11    1    4    4    0    0  0.70064727947E+01 -0.16492605387E+03  0.59812491321E+03  0.62048618495E+03  0.00000000000E+00 0. -1.
        -12    1    4    4    0    0 -0.88689890691E+01  0.77457352849E+01  0.46520238874E+02  0.47987373414E+02  0.00000000000E+00 0.  1.
        -11    1    3    3    0    0  0.40493667058E+02  0.44785323941E+02 -0.18071281881E+03  0.19053237308E+03  0.00000000000E+00 0.  1.
         11    1    3    3    0    0 -0.27327433772E+02 -0.78685713837E+01 -0.24860996251E+02  0.37772638070E+02  0.00000000000E+00 0. -1.
         21    1    1    2  502  501 -0.11303717011E+02  0.12026356603E+03  0.42561140356E+03  0.44242080214E+03  0.00000000000E+00 0.  1.
<scales pt_clust_5="13000.00000" pt_clust_6="13000.00000" pt_clust_7="13000.00000" pt_clust_8="13000.00000" pt_clust_9="135.66031"></scales>
<clustering>
<clus scale="   81.120">  5  6 -1 -1</clus>
<clus scale="   91.249">  7  8 -1 -1</clus>
<clus scale="   99.311">  2  7  1 -1</clus>
<clus scale="  135.660">  1  9  2 -1</clus>
<clus scale="  135.660">  1  5  2 -1</clus>
</clustering>
</event>
<event>
 9    1  0.2951046E-005  0.9636879E+02  0.7546771E-02  0.1291582E+00
          1   -1    0    0  502    0  0.00000000000E+00  0.00000000000E+00  0.65740507897E+02  0.65740507897E+02  0.00000000000E+00 0. -1.
         -2   -1    0    0    0  501 -0.00000000000E+00 -0.00000000000E+00 -0.58502237640E+03  0.58502237640E+03  0.00000000000E+00 0.  1.
        -24    2    1    2    0    0 -0.99089319087E+01 -0.35886088372E+02 -0.52025098556E+03  0.52819690234E+03  0.83335954975E+02 0.  0.
         23    2    1    2    0    0 -0.32446939483E+01  0.12590292679E+02 -0.14072235923E+02  0.91874708453E+02  0.89854831372E+02 0.  0.
         13    1    3    3    0    0  0.23001421561E+02 -0.50218593251E+02 -0.30075562971E+03  0.30578574412E+03  0.00000000000E+00 0. -1.
        -14    1    3    3    0    0 -0.32910353470E+02  0.14332504879E+02 -0.21949535585E+03  0.22241115822E+03  0.00000000000E+00 0.  1.
        -11    1    4    4    0    0 -0.42858110587E+02  0.84868717436E+00  0.10053637665E+02  0.44029689339E+02  0.00000000000E+00 0.  1.
         11    1    4    4    0    0  0.39613416638E+02  0.11741605504E+02 -0.24125873589E+02  0.47845019114E+02  0.00000000000E+00 0. -1.
         21    1    1    2  502  501  0.13153625857E+02  0.23295795693E+02  0.15041352979E+02  0.30691273509E+02  0.00000000000E+00 0. -1.
<scales pt_clust_5="13000.00000" pt_clust_6="13000.00000" pt_clust_7="13000.00000" pt_clust_8="13000.00000" pt_clust_9="26.75279"></scales>
<clustering>
<clus scale="   26.753">  1  9  2 -1</clus>
<clus scale="   83.336">  5  6 -1 -1</clus>
<clus scale="   89.855">  7  8 -1 -1</clus>
<clus scale="   90.321">  2  5  1 -1</clus>
<clus scale="   26.753">  1  5  2 -1</clus>
</clustering>
</event>
<event>
 9    1  0.2951046E-005  0.1508149E+03  0.7546771E-02  0.1201827E+00
          1   -1    0    0  502    0  0.00000000000E+00  0.00000000000E+00  0.21076897827E+03  0.21076897827E+03  0.00000000000E+00 0. -1.
         -2   -1    0    0    0  501 -0.00000000000E+00 -0.00000000000E+00 -0.18256067803E+03  0.18256067803E+03  0.00000000000E+00 0.  1.
         23    2    1    2    0    0 -0.28419697599E+02  0.11490632898E+03 -0.89462677366E+02  0.17575237392E+03  0.94202880233E+02 0.  0.
        -24    2    1    2    0    0 -0.65460019086E+01 -0.11980107625E+03  0.79095304510E+02  0.16528348497E+03  0.81654241758E+02 0.  0.
         11    1    4    4    0    0  0.21430760579E+02 -0.90776536514E+02  0.82904530754E+02  0.12479109864E+03  0.00000000000E+00 0. -1.
        -12    1    4    4    0    0 -0.27976762487E+02 -0.29024539734E+02 -0.38092262440E+01  0.40492386329E+02  0.00000000000E+00 0.  1.
        -11    1    3    3    0    0 -0.62375457284E+02  0.88261338286E+02 -0.65734889113E+02  0.12649836819E+03  0.00000000000E+00 0.  1.
         11    1    3    3    0    0  0.33955759686E+02  0.26644990697E+02 -0.23727788253E+02  0.49254005730E+02  0.00000000000E+00 0. -1.
         21    1    1    2  502  501  0.34965699508E+02  0.48947472639E+01  0.38575673102E+02  0.52293797415E+02  0.00000000000E+00 0. -1.
<scales pt_clust_5="13000.00000" pt_clust_6="13000.00000" pt_clust_7="13000.00000" pt_clust_8="13000.00000" pt_clust_9="35.30664"></scales>
<clustering>
<clus scale="   35.307">  1  9  2 -1</clus>
<clus scale="   81.654">  5  6 -1 -1</clus>
<clus scale="   94.203">  7  8 -1 -1</clus>
<clus scale="  143.312">  1  5  2 -1</clus>
<clus scale="   35.307">  1  5  2 -1</clus>
</clustering>
</event>
<event>
 9    1  0.2951046E-005  0.1402492E+03  0.7546771E-02  0.1216782E+00
          3   -1    0    0  502    0  0.00000000000E+00  0.00000000000E+00  0.16039023613E+03  0.16039023613E+03  0.00000000000E+00 0. -1.
         -4   -1    0    0    0  501 -0.00000000000E+00 -0.00000000000E+00 -0.23545774151E+03  0.23545774151E+03  0.00000000000E+00 0.  1.
        -24    2    1    2    0    0 -0.66155069444E+02  0.75808148981E+02 -0.96202270857E+02  0.15904806935E+03  0.76928816319E+02 0.  0.
         23    2    1    2    0    0  0.12613052251E+03 -0.33650975159E+02  0.27588563150E+02  0.16320688024E+03  0.93989680833E+02 0.  0.
         13    1    3    3    0    0 -0.56077264038E+02  0.19346373873E+02 -0.79726667116E+02  0.99374459362E+02  0.00000000000E+00 0. -1.
        -14    1    3    3    0    0 -0.10077805406E+02  0.56461775108E+02 -0.16475603741E+02  0.59673609986E+02  0.00000000000E+00 0.  1.
        -13    1    4    4    0    0  0.44318397916E+02 -0.28418541527E+02  0.55603081648E+02  0.76573080029E+02  0.00000000000E+00 0. -1.
         13    1    4    4    0    0  0.81812124589E+02 -0.52324336321E+01 -0.28014518499E+02  0.86633800206E+02  0.00000000000E+00 0.  1.
         21    1    1    2  502  501 -0.59975453061E+02 -0.42157173822E+02 -0.64537976720E+01  0.73593028059E+02  0.00000000000E+00 0. -1.
<scales pt_clust_5="13000.00000" pt_clust_6="13000.00000" pt_clust_7="13000.00000" pt_clust_8="13000.00000" pt_clust_9="73.30950"></scales>
<clustering>
<clus scale="   73.309">  1  9  2 -1</clus>
<clus scale="   76.929">  5  6 -1 -1</clus>
<clus scale="   93.990">  7  8 -1 -1</clus>
<clus scale="  129.437">  2  5  1 -1</clus>
<clus scale="   73.309">  1  5  2 -1</clus>
</clustering>
</event>
<event>
 9    1  0.2951046E-005  0.1171166E+03  0.7546771E-02  0.1251245E+00
         -2   -1    0    0    0  501 -0.00000000000E+00  0.00000000000E+00  0.12798424139E+03  0.12798424139E+03  0.00000000000E+00 0.  1.
          1   -1    0    0  502    0  0.00000000000E+00 -0.00000000000E+00 -0.48177601239E+03  0.48177601239E+03  0.00000000000E+00 0. -1.
         23    2    1    2    0    0 -0.48479566747E+02 -0.52171730065E+02  0.70599062533E+02  0.13505286000E+03  0.90459325414E+02 0.  0.
        -24    2    1    2    0    0  0.32208459697E+02  0.11530501804E+03 -0.32814631511E+03  0.35845951939E+03  0.80502117092E+02 0.  0.
         13    1    4    4    0    0  0.39764736699E+02  0.10285133716E+03 -0.32547800971E+03  0.34365035522E+03  0.00000000000E+00 0. -1.
        -14    1    4    4    0    0 -0.75562770024E+01  0.12453680878E+02 -0.26683054046E+01  0.14809164165E+02  0.00000000000E+00 0.  1.
        -13    1    3    3    0    0 -0.81983053645E+01 -0.68231692956E+02  0.57913444951E+02  0.89870702904E+02  0.00000000000E+00 0.  1.
         13    1    3    3    0    0 -0.40281261383E+02  0.16059962890E+02  0.12685617582E+02  0.45182157098E+02  0.00000000000E+00 0. -1.
         21    1    1    2  502  501  0.16271107051E+02 -0.63133287971E+02 -0.96244518421E+02  0.11624787439E+03  0.00000000000E+00 0.  1.
<scales pt_clust_5="13000.00000" pt_clust_6="13000.00000" pt_clust_7="13000.00000" pt_clust_8="13000.00000" pt_clust_9="65.19633"></scales>
<clustering>
<clus scale="   65.196">  2  9  1 -1</clus>
<clus scale="   80.502">  5  6 -1 -1</clus>
<clus scale="   90.459">  7  8 -1 -1</clus>
<clus scale="  109.608">  2  5  1 -1</clus>
<clus scale="   65.196">  2  5  1 -1</clus>
</clustering>
</event>
<event>
 9    1  0.2951046E-005  0.9606597E+02  0.7546771E-02  0.1294318E+00
         -2   -1    0    0    0  501 -0.00000000000E+00  0.00000000000E+00  0.37736826633E+03  0.37736826633E+03  0.00000000000E+00 0.  1.
          1   -1    0    0  502    0  0.00000000000E+00 -0.00000000000E+00 -0.49205866382E+02  0.49205866382E+02  0.00000000000E+00 0. -1.
         23    2    1    2    0    0 -0.12381920221E+02  0.30396139130E+02  0.29091636105E+03  0.30630003513E+03  0.90056344441E+02 0.  0.
        -24    2    1    2    0    0  0.34641733536E+02 -0.22909672684E+02  0.35165203682E+02  0.96697067573E+02  0.79930147770E+02 0.  0.
         13    1    4    4    0    0  0.59451958955E+02 -0.18347620413E+02  0.14015136385E+02  0.63777697091E+02  0.00000000000E+00 0. -1.
        -14    1    4    4    0    0 -0.24810225419E+02 -0.45620522713E+01  0.21150067297E+02  0.32919370482E+02  0.00000000000E+00 0.  1.
        -11    1    3    3    0    0 -0.36213170212E+02  0.48233682342E+02  0.23862419334E+03  0.24612880258E+03  0.00000000000E+00 0.  1.
         11    1    3    3    0    0  0.23831249991E+02 -0.17837543212E+02  0.52292167709E+02  0.60171232559E+02  0.00000000000E+00 0. -1.
         21    1    1    2  502  501 -0.22259813315E+02 -0.74864664461E+01  0.20808352170E+01  0.23577030005E+02  0.00000000000E+00 0.  1.
<scales pt_clust_5="13000.00000" pt_clust_6="13000.00000" pt_clust_7="13000.00000" pt_clust_8="13000.00000" pt_clust_9="23.48503"></scales>
<clustering>
<clus scale="   23.485">  2  9  1 -1</clus>
<clus scale="   79.930">  5  6 -1 -1</clus>
<clus scale="   86.645">  2  5  1 -1</clus>
<clus scale="   90.056">  7  8 -1 -1</clus>
<clus scale="   23.485">  2  5  1 -1</clus>
</clustering>
</event>
<event>
 9    1  0.2951046E-005  0.1064961E+03  0.7546771E-02  0.1276081E+00
         -2   -1    0    0    0  501 -0.00000000000E+00  0.00000000000E+00  0.65100844370E+02  0.65100844370E+02  0.00000000000E+00 0.  1.
          1   -1    0    0  502    0  0.00000000000E+00 -0.00000000000E+00 -0.52869784009E+03  0.52869784009E+03  0.00000000000E+00 0. -1.
        -24    2    1    2    0    0  0.37989708241E+02  0.30818139200E+02  0.47067071607E+01  0.92334795851E+02  0.78170236001E+02 0.  0.
         23    2    1    2    0    0 -0.36842017945E+02  0.10520046724E+02 -0.16378226525E+03  0.19414732741E+03  0.96956426613E+02 0.  0.
         11    1    3    3    0    0  0.28117882694E+02 -0.21930382734E+02  0.13157996509E+02  0.38009076366E+02  0.00000000000E+00 0. -1.
        -12    1    3    3    0    0  0.98718255472E+01  0.52748521934E+02 -0.84512893481E+01  0.54325719485E+02  0.00000000000E+00 0.  1.
        -11    1    4    4    0    0  0.35721733612E+01  0.44840631527E+02 -0.42951252564E+02  0.62195279202E+02  0.00000000000E+00 0.  1.
         11    1    4    4    0    0 -0.40414191306E+02 -0.34320584803E+02 -0.12083101268E+03  0.13195204821E+03  0.00000000000E+00 0. -1.
         21    1    1    2  502  501 -0.11476902963E+01 -0.41338185924E+02 -0.30452143763E+03  0.30731656120E+03  0.00000000000E+00 0. -1.
<scales pt_clust_5="13000.00000" pt_clust_6="13000.00000" pt_clust_7="13000.00000" pt_clust_8="13000.00000" pt_clust_9="41.35411"></scales>
<clustering>
<clus scale="   41.354">  2  9  1 -1</clus>
<clus scale="   78.170">  5  6 -1 -1</clus>
<clus scale="   89.730">  1  5  2 -1</clus>
<clus scale="   96.956">  7  8 -1 -1</clus>
<clus scale="   41.354">  2  5  1 -1</clus>
</clustering>
</event>
<event>
 9    1  0.2951046E-005  0.9877969E+02  0.7546771E-02  0.1289598E+00
          1   -1    0    0  502    0  0.00000000000E+00  0.00000000000E+00  0.38752828393E+03  0.38752828393E+03  0.00000000000E+00 0. -1.
         -2   -1    0    0    0  501 -0.00000000000E+00 -0.00000000000E+00 -0.39778999534E+02  0.39778999534E+02  0.00000000000E+00 0.  1.
        -24    2    1    2    0    0 -0.16797682466E+02 -0.50592045922E+02  0.52869236457E+02  0.10575225294E+03  0.74475939679E+02 0.  0.
         23    2    1    2    0    0  0.18462070127E+02  0.14643524600E+02  0.23018341018E+03  0.24752313667E+03  0.87909157744E+02 0.  0.
         13    1    3    3    0    0  0.19957389456E+02 -0.50271562292E+02  0.37998647888E+02  0.66101623357E+02  0.00000000000E+00 0. -1.
        -14    1    3    3    0    0 -0.36755071922E+02 -0.32048363023E+00  0.14870588568E+02  0.39650629580E+02  0.00000000000E+00 0.  1.
        -11    1    4    4    0    0  0.45589344514E+02  0.23046991387E+02  0.81755936763E+02  0.96403243417E+02  0.00000000000E+00 0.  1.
         11    1    4    4    0    0 -0.27127274387E+02 -0.84034667872E+01  0.14842747342E+03  0.15111989325E+03  0.00000000000E+00 0. -1.
         21    1    1    2  502  501 -0.16643876617E+01  0.35948521322E+02  0.64696637757E+02  0.74031893861E+02  0.00000000000E+00 0.  1.
<scales pt_clust_5="13000.00000" pt_clust_6="13000.00000" pt_clust_7="13000.00000" pt_clust_8="13000.00000" pt_clust_9="35.98703"></scales>
<clustering>
<clus scale="   35.987">  1  9  2 -1</clus>
<clus scale="   74.476">  5  6 -1 -1</clus>
<clus scale="   87.041">  2  5  1 -1</clus>
<clus scale="   87.909">  7  8 -1 -1</clus>
<clus scale="   35.987">  1  5  2 -1</clus>
</clustering>
</event>
<event>
 9    1  0.2951046E-005  0.1821068E+03  0.7546771E-02  0.1200284E+00
         -2   -1    0    0    0  501 -0.00000000000E+00  0.00000000000E+00  0.37542149078E+03  0.37542149078E+03  0.00000000000E+00 0.  1.
          1   -1    0    0  502    0  0.00000000000E+00 -0.00000000000E+00 -0.30501462550E+03  0.30501462550E+03  0.00000000000E+00 0. -1.
        -24    2    1    2    0    0 -0.22510158274E+02  0.65433115559E+01  0.25653694248E+03  0.26999307943E+03  0.80842673944E+02 0.  0.
         23    2    1    2    0    0 -0.11886795822E+03  0.75459769569E+02 -0.77597615269E+01  0.16851691868E+03  0.92271174640E+02 0.  0.
         11    1    3    3    0    0  0.19299538045E+02 -0.24390637118E+02  0.11750735203E+03  0.12155391038E+03  0.00000000000E+00 0. -1.
        -12    1    3    3    0    0 -0.41809696319E+02  0.30933948674E+02  0.13902959046E+03  0.14843916905E+03  0.00000000000E+00 0.  1.
        -13    1    4    4    0    0 -0.45416262715E+02 -0.89039346716E+01  0.24140311360E+02  0.52198386988E+02  0.00000000000E+00 0.  1.
         13    1    4    4    0    0 -0.73451695502E+02  0.84363704241E+02 -0.31900072887E+02  0.11631853169E+03  0.00000000000E+00 0. -1.
         21    1    1    2  502  501  0.14137811649E+03 -0.82003081125E+02 -0.17837031568E+03  0.24192611817E+03  0.00000000000E+00 0. -1.
<scales pt_clust_5="13000.00000" pt_clust_6="13000.00000" pt_clust_7="13000.00000" pt_clust_8="13000.00000" pt_clust_9="156.99979"></scales>
<clustering>
<clus scale="   80.843">  5  6 -1 -1</clus>
<clus scale="   84.173">  1  5  2 -1</clus>
<clus scale="   92.271">  7  8 -1 -1</clus>
<clus scale="  157.000">  2  9  1 -1</clus>
<clus scale="  157.000">  2  5  1 -1</clus>
</clustering>
</event>
<event>
 9    1  0.2951046E-005  0.1027442E+03  0.7546771E-02  0.1279246E+00
         -2   -1    0    0    0  501 -0.00000000000E+00  0.00000000000E+00  0.19202744420E+02  0.19202744420E+02  0.00000000000E+00 0.  1.
          1   -1    0    0  502    0  0.00000000000E+00 -0.00000000000E+00 -0.73581501638E+03  0.73581501638E+03  0.00000000000E+00 0. -1.
         23    2    1    2    0    0 -0.32455312519E+02  0.99728837876E+01 -0.26538980294E+03  0.28284411816E+03  0.91740078198E+02 0.  0.
        -24    2    1    2    0    0  0.52642474156E+02 -0.24663394143E+02 -0.25017397454E+03  0.26958087446E+03  0.81898212687E+02 0.  0.
         11    1    4    4    0    0  0.19161394374E+02  0.29228095076E+02 -0.64404149864E+02  0.73275746983E+02  0.00000000000E+00 0. -1.
        -12    1    4    4    0    0  0.33481079782E+02 -0.53891489219E+02 -0.18576982468E+03  0.19630512748E+03  0.00000000000E+00 0.  1.
        -11    1    3    3    0    0  0.33650471852E+01  0.35056090115E+02 -0.40185142228E+02  0.53433123178E+02  0.00000000000E+00 0.  1.
         11    1    3    3    0    0 -0.35820359704E+02 -0.25083206328E+02 -0.22520466071E+03  0.22941099498E+03  0.00000000000E+00 0. -1.
         21    1    1    2  502  501 -0.20187161637E+02  0.14690510355E+02 -0.20104849447E+03  0.20259276818E+03  0.00000000000E+00 0. -1.
<scales pt_clust_5="13000.00000" pt_clust_6="13000.00000" pt_clust_7="13000.00000" pt_clust_8="13000.00000" pt_clust_9="24.96663"></scales>
<clustering>
<clus scale="   24.967">  2  9  1 -1</clus>
<clus scale="   81.898">  5  6 -1 -1</clus>
<clus scale="   91.740">  7  8 -1 -1</clus>
<clus scale="   94.061">  2  5  1 -1</clus>
<clus scale="   24.967">  2  5  1 -1</clus>
</clustering>
</event>
<event>
 9    1  0.2951046E-005  0.1841357E+03  0.7546771E-02  0.1165790E+00
          1   -1    0    0  502    0  0.00000000000E+00  0.00000000000E+00  0.83687157367E+03  0.83687157367E+03  0.00000000000E+00 0. -1.
         -2   -1    0    0    0  501 -0.00000000000E+00 -0.00000000000E+00 -0.69959338016E+02  0.69959338016E+02  0.00000000000E+00 0.  1.
         23    2    1    2    0    0  0.16088198303E+03 -0.31520052395E+02  0.13604369414E+03  0.23256984019E+03  0.93296932876E+02 0.  0.
        -24    2    1    2    0    0 -0.12748168415E+03  0.82343899758E+02  0.52925546173E+03  0.55583868590E+03  0.76244366037E+02 0.  0.
         11    1    4    4    0    0 -0.98502938135E+02  0.22511527538E+02  0.36252598915E+03  0.37634384611E+03  0.00000000000E+00 0. -1.
        -12    1    4    4    0    0 -0.28978746014E+02  0.59832372220E+02  0.16672947258E+03  0.17949483980E+03  0.00000000000E+00 0.  1.
        -13    1    3    3    0    0  0.16152444860E+02 -0.26002345754E+02  0.63698638381E+02  0.70672059481E+02  0.00000000000E+00 0. -1.
         13    1    3    3    0    0  0.14472953817E+03 -0.55177066410E+01  0.72345055758E+02  0.16189778071E+03  0.00000000000E+00 0.  1.
         21    1    1    2  502  501 -0.33400298883E+02 -0.50823847363E+02  0.10161307978E+03  0.11842238559E+03  0.00000000000E+00 0. -1.
<scales pt_clust_5="13000.00000" pt_clust_6="13000.00000" pt_clust_7="13000.00000" pt_clust_8="13000.00000" pt_clust_9="60.81647"></scales>
<clustering>
<clus scale="   60.816">  1  9  2 -1</clus>
<clus scale="   76.244">  5  6 -1 -1</clus>
<clus scale="   93.297">  7  8 -1 -1</clus>
<clus scale="  176.110">  1  5  2 -1</clus>
<clus scale="   60.816">  1  5  2 -1</clus>
</clustering>
</event>
<event>
 9    1  0.2951046E-005  0.1483123E+03  0.7546771E-02  0.1205384E+00
          1   -1    0    0  502    0  0.00000000000E+00  0.00000000000E+00  0.38252248416E+03  0.38252248416E+03  0.00000000000E+00 0. -1.
         -2   -1    0    0    0  501 -0.00000000000E+00 -0.00000000000E+00 -0.77964232104E+02  0.77964232104E+02  0.00000000000E+00 0.  1.
        -24    2    1    2    0    0 -0.68405280011E+02 -0.68431665047E+02  0.10774390925E+03  0.16551680199E+03  0.80155390612E+02 0.  0.
         23    2    1    2    0    0  0.75417576199E+02  0.11256338277E+03  0.11362015092E+03  0.20053446346E+03  0.94584387720E+02 0.  0.
         11    1    3    3    0    0 -0.86353855683E+02 -0.49938134869E+02  0.88502878670E+02  0.13335503454E+03  0.00000000000E+00 0. -1.
        -12    1    3    3    0    0  0.17948575671E+02 -0.18493530179E+02  0.19241030583E+02  0.32161767442E+02  0.00000000000E+00 0.  1.
        -13    1    4    4    0    0 -0.89775462227E+01  0.51175884361E+02  0.70593711761E+02  0.87652949845E+02  0.00000000000E+00 0. -1.
         13    1    4    4    0    0  0.84395122422E+02  0.61387498411E+02  0.43026439154E+02  0.11288151362E+03  0.00000000000E+00 0.  1.
         21    1    1    2  502  501 -0.70122961878E+01 -0.44131717725E+02  0.83194191887E+02  0.94435450817E+02  0.00000000000E+00 0.  1.
<scales pt_clust_5="13000.00000" pt_clust_6="13000.00000" pt_clust_7="13000.00000" pt_clust_8="13000.00000" pt_clust_9="44.68535"></scales>
<clustering>
<clus scale="   44.685">  1  9  2 -1</clus>
<clus scale="   80.155">  5  6 -1 -1</clus>
<clus scale="   94.584">  7  8 -1 -1</clus>
<clus scale="  139.554">  2  5  1 -1</clus>
<clus scale="   44.685">  1  5  2 -1</clus>
</clustering>
</event>
<event>
 9    1  0.2951046E-005  0.1007362E+03  0.7546771E-02  0.1297608E+00
         -2   -1    0    0    0  501 -0.00000000000E+00  0.00000000000E+00  0.40035364257E+02  0.40035364257E+02  0.00000000000E+00 0.  1.
          1   -1    0    0  502    0  0.00000000000E+00 -0.00000000000E+00 -0.47089879971E+03  0.47089879971E+03  0.00000000000E+00 0. -1.
         23    2    1    2    0    0  0.26598300166E+02 -0.35835820908E+02 -0.93816150595E+02  0.13796822037E+03  0.90785924509E+02 0.  0.
        -24    2    1    2    0    0 -0.64246210935E+02 -0.23998757834E+02 -0.15122401935E+03  0.17414987784E+03  0.52497237308E+02 0.  0.
         11    1    4    4    0    0 -0.63452364460E+02 -0.30236051352E+02 -0.15233135951E+03  0.16776550435E+03  0.00000000000E+00 0. -1.
        -12    1    4    4    0    0 -0.79384647413E+00  0.62372935182E+01  0.11073401618E+01  0.63843734924E+01  0.00000000000E+00 0.  1.
        -13    1    3    3    0    0 -0.27016761436E+02  0.11472820336E+02 -0.22538983666E+02  0.37007253203E+02  0.00000000000E+00 0. -1.
         13    1    3    3    0    0  0.53615061602E+02 -0.47308641243E+02 -0.71277166929E+02  0.10096096717E+03  0.00000000000E+00 0.  1.
         21    1    1    2  502  501  0.37647910769E+02  0.59834578741E+02 -0.18582326550E+03  0.19881606575E+03  0.00000000000E+00 0. -1.
<scales pt_clust_5="13000.00000" pt_clust_6="13000.00000" pt_clust_7="13000.00000" pt_clust_8="13000.00000" pt_clust_9="70.69330"></scales>
<clustering>
<clus scale="   52.497">  5  6 -1 -1</clus>
<clus scale="   70.693">  2  9  1 -1</clus>
<clus scale="   70.693">  2  5  1 -1</clus>
<clus scale="   90.786">  7  8 -1 -1</clus>
<clus scale="   70.693">  2  5  1 -1</clus>
</clustering>
</event>
<event>
 9    1  0.2951046E-005  0.1457794E+03  0.7546771E-02  0.1207808E+00
         -2   -1    0    0    0  501 -0.00000000000E+00  0.00000000000E+00  0.13612718822E+03  0.13612718822E+03  0.00000000000E+00 0.  1.
          1   -1    0    0  502    0  0.00000000000E+00 -0.00000000000E+00 -0.19767141823E+03  0.19767141823E+03  0.00000000000E+00 0. -1.
         23    2    1    2    0    0 -0.15088449057E+02  0.10926032662E+03  0.21071046045E+02  0.14448343674E+03  0.90917513395E+02 0.  0.
        -24    2    1    2    0    0 -0.17728484323E+01 -0.12108340517E+03 -0.56329014632E+02  0.15592271430E+03  0.80464905059E+02 0.  0.
         11    1    4    4    0    0 -0.29305367049E+02 -0.10423255836E+02 -0.15916712364E+02  0.34939813002E+02  0.00000000000E+00 0. -1.
        -12    1    4    4    0    0  0.27532518617E+02 -0.11066014933E+03 -0.40412302268E+02  0.12098290130E+03  0.00000000000E+00 0.  1.
        -13    1    3    3    0    0  0.28837777181E+02  0.90405785859E+02  0.17977897802E+02  0.96581718347E+02  0.00000000000E+00 0.  1.
         13    1    3    3    0    0 -0.43926226238E+02  0.18854540764E+02  0.30931482433E+01  0.47901718392E+02  0.00000000000E+00 0. -1.
         21    1    1    2  502  501  0.16861297489E+02  0.11823078545E+02 -0.26286261421E+02  0.33392455417E+02  0.00000000000E+00 0.  1.
<scales pt_clust_5="13000.00000" pt_clust_6="13000.00000" pt_clust_7="13000.00000" pt_clust_8="13000.00000" pt_clust_9="20.59341"></scales>
<clustering>
<clus scale="   20.593">  2  9  1 -1</clus>
<clus scale="   80.465">  5  6 -1 -1</clus>
<clus scale="   90.918">  7  8 -1 -1</clus>
<clus scale="  139.500">  2  5  1 -1</clus>
<clus scale="   20.593">  2  5  1 -1</clus>
</clustering>
</event>
<event>
 9    1  0.2951046E-005  0.1226422E+03  0.7546771E-02  0.1241259E+00
          3   -1    0    0  502    0  0.00000000000E+00  0.00000000000E+00  0.82435409348E+02  0.82435409348E+02  0.00000000000E+00 0. -1.
         -4   -1    0    0    0  501 -0.00000000000E+00 -0.00000000000E+00 -0.96293489832E+03  0.96293489832E+03  0.00000000000E+00 0.  1.
        -24    2    1    2    0    0  0.84187363376E+02  0.10078483450E+02 -0.85468352502E+03  0.86262876443E+03  0.80345312848E+02 0.  0.
         23    2    1    2    0    0 -0.75120743315E+02 -0.56183377659E+02 -0.37154509732E+02  0.13440493713E+03  0.88794884600E+02 0.  0.
         13    1    3    3    0    0  0.44288943375E+02  0.37527417639E+02 -0.28268776270E+03  0.28858653600E+03  0.00000000000E+00 0. -1.
        -14    1    3    3    0    0  0.39898420002E+02 -0.27448934190E+02 -0.57199576232E+03  0.57404222843E+03  0.00000000000E+00 0.  1.
        -13    1    4    4    0    0 -0.30542093688E+02 -0.16992131748E+02 -0.61108217991E+02  0.70397204023E+02  0.00000000000E+00 0.  1.
         13    1    4    4    0    0 -0.44578649627E+02 -0.39191245912E+02  0.23953708259E+02  0.64007733111E+02  0.00000000000E+00 0. -1.
         21    1    1    2  502  501 -0.90666200607E+01  0.46104894210E+02  0.11338545780E+02  0.48336606106E+02  0.00000000000E+00 0. -1.
<scales pt_clust_5="13000.00000" pt_clust_6="13000.00000" pt_clust_7="13000.00000" pt_clust_8="13000.00000" pt_clust_9="46.98792"></scales>
<clustering>
<clus scale="   46.988">  1  9  2 -1</clus>
<clus scale="   80.345">  5  6 -1 -1</clus>
<clus scale="   88.795">  7  8 -1 -1</clus>
<clus scale="  116.670">  2  5  1 -1</clus>
<clus scale="   46.988">  1  5  2 -1</clus>
</clustering>
</event>
<event>
 9    1  0.2951046E-005  0.1098925E+03  0.7546771E-02  0.1265206E+00
         -2   -1    0    0    0  501 -0.00000000000E+00  0.00000000000E+00  0.11187471797E+03  0.11187471797E+03  0.00000000000E+00 0.  1.
          1   -1    0    0  502    0  0.00000000000E+00 -0.00000000000E+00 -0.22784606976E+03  0.22784606976E+03  0.00000000000E+00 0. -1.
         23    2    1    2    0    0  0.29565506094E+02 -0.63249820460E+02  0.35823170047E+02  0.12078164039E+03  0.91816372197E+02 0.  0.
        -24    2    1    2    0    0  0.25894141375E+02  0.48919644506E+02 -0.75695535466E+02  0.12369114386E+03  0.80660069452E+02 0.  0.
         13    1    4    4    0    0  0.19665895298E+02  0.71627045546E+02 -0.57239398962E+02  0.93773823027E+02  0.00000000000E+00 0. -1.
        -14    1    4    4    0    0  0.62282460772E+01 -0.22707401040E+02 -0.18456136504E+02  0.29917320834E+02  0.00000000000E+00 0.  1.
        -11    1    3    3    0    0  0.17576594232E+02 -0.86532939834E+02  0.21288018283E+02  0.90829874291E+02  0.00000000000E+00 0.  1.
         11    1    3    3    0    0  0.11988911861E+02  0.23283119375E+02  0.14535151764E+02  0.29951766096E+02  0.00000000000E+00 0. -1.
         21    1    1    2  502  501 -0.55459647469E+02  0.14330175954E+02 -0.76098986374E+02  0.95248003483E+02  0.00000000000E+00 0. -1.
<scales pt_clust_5="13000.00000" pt_clust_6="13000.00000" pt_clust_7="13000.00000" pt_clust_8="13000.00000" pt_clust_9="57.28112"></scales>
<clustering>
<clus scale="   57.281">  2  9  1 -1</clus>
<clus scale="   80.660">  5  6 -1 -1</clus>
<clus scale="   91.816">  7  8 -1 -1</clus>
<clus scale="  100.758">  2  5  1 -1</clus>
<clus scale="   57.281">  2  5  1 -1</clus>
</clustering>
</event>
<event>
 9    1  0.2951046E-005  0.1154696E+03  0.7546771E-02  0.1254487E+00
         -2   -1    0    0    0  501 -0.00000000000E+00  0.00000000000E+00  0.44244760778E+02  0.44244760778E+02  0.00000000000E+00 0.  1.
          1   -1    0    0  502    0  0.00000000000E+00 -0.00000000000E+00 -0.91078533945E+03  0.91078533945E+03  0.00000000000E+00 0. -1.
         23    2    1    2    0    0  0.55115952388E+02 -0.49492830219E+02 -0.76126154341E+02  0.13986863571E+03  0.90998546310E+02 0.  0.
        -24    2    1    2    0    0 -0.84591722988E+02 -0.20253111644E+02 -0.56827622021E+03  0.58047294927E+03  0.80280970650E+02 0.  0.
         11    1    4    4    0    0 -0.48875350410E+02  0.29054990955E+02 -0.30426870212E+03  0.30953583875E+03  0.00000000000E+00 0. -1.
        -12    1    4    4    0    0 -0.35716372578E+02 -0.49308102600E+02 -0.26400751808E+03  0.27093711052E+03  0.00000000000E+00 0.  1.
        -13    1    3    3    0    0 -0.13568557817E+02 -0.16293658975E+02 -0.57579132837E+02  0.61359152718E+02  0.00000000000E+00 0. -1.
         13    1    3    3    0    0  0.68684510205E+02 -0.33199171244E+02 -0.18547021504E+02  0.78509482994E+02  0.00000000000E+00 0.  1.
         21    1    1    2  502  501  0.29475770600E+02  0.69745941863E+02 -0.22213820412E+03  0.23468851525E+03  0.00000000000E+00 0.  1.
<scales pt_clust_5="13000.00000" pt_clust_6="13000.00000" pt_clust_7="13000.00000" pt_clust_8="13000.00000" pt_clust_9="75.71867"></scales>
<clustering>
<clus scale="   75.719">  2  9  1 -1</clus>
<clus scale="   80.281">  5  6 -1 -1</clus>
<clus scale="   90.999">  7  8 -1 -1</clus>
<clus scale="  107.227">  2  5  1 -1</clus>
<clus scale="   75.719">  2  5  1 -1</clus>
</clustering>
</event>
<event>
 9    1  0.2951046E-005  0.9374242E+02  0.7546771E-02  0.1300390E+00
         -2   -1    0    0    0  501 -0.00000000000E+00  0.00000000000E+00  0.21031428611E+03  0.21031428611E+03  0.00000000000E+00 0.  1.
          1   -1    0    0  502    0  0.00000000000E+00 -0.00000000000E+00 -0.90758961322E+02  0.90758961322E+02  0.00000000000E+00 0. -1.
        -24    2    1    2    0    0  0.25132623738E+02 -0.18261294453E+02  0.11731447112E+03  0.14497594030E+03  0.79310872411E+02 0.  0.
         23    2    1    2    0    0 -0.20187783463E+02 -0.22640763813E+02 -0.34184929450E+02  0.10110396670E+03  0.90184543538E+02 0.  0.
         13    1    3    3    0    0  0.35899496592E+02  0.22524488528E+02  0.67484129430E+02  0.79688356515E+02  0.00000000000E+00 0. -1.
        -14    1    3    3    0    0 -0.10766872854E+02 -0.40785782982E+02  0.49830341685E+02  0.65287583789E+02  0.00000000000E+00 0.  1.
        -11    1    4    4    0    0  0.16825279912E+02  0.17974431092E+02  0.13736154462E+02  0.28193122505E+02  0.00000000000E+00 0.  1.
         11    1    4    4    0    0 -0.37013063375E+02 -0.40615194905E+02 -0.47921083912E+02  0.72910844192E+02  0.00000000000E+00 0. -1.
         21    1    1    2  502  501 -0.49448402752E+01  0.40902058267E+02  0.36425783124E+02  0.54993340433E+02  0.00000000000E+00 0. -1.
<scales pt_clust_5="13000.00000" pt_clust_6="13000.00000" pt_clust_7="13000.00000" pt_clust_8="13000.00000" pt_clust_9="41.19988"></scales>
<clustering>
<clus scale="   41.200">  1  9  2 -1</clus>
<clus scale="   79.311">  5  6 -1 -1</clus>
<clus scale="   83.334">  1  5  2 -1</clus>
<clus scale="   90.185">  7  8 -1 -1</clus>
<clus scale="   93.742">  2  5  1 -1</clus>
</clustering>
</event>
<event>
 9    1  0.4874353E-005  0.1114356E+03  0.7546771E-02  0.1262985E+00
         -2   -1    0    0    0  501 -0.00000000000E+00  0.00000000000E+00  0.16403068829E+03  0.16403068829E+03  0.00000000000E+00 0.  1.
          1   -1    0    0  502    0  0.00000000000E+00 -0.00000000000E+00 -0.10614110897E+04  0.10614110897E+04  0.00000000000E+00 0. -1.
         23    2    1    2    0    0  0.20415693095E+02  0.58148138539E+02  0.13020070148E+03  0.17176351887E+03  0.93554674977E+02 0.  0.
        -24    2    1    2    0    0 -0.49684309337E+02  0.50141561952E+01 -0.92408565497E+03  0.92894881148E+03  0.80733662557E+02 0.  0.
         11    1    4    4    0    0 -0.34023689156E+02  0.32928384894E+02 -0.27290402791E+03  0.27698104340E+03  0.00000000000E+00 0. -1.
        -12    1    4    4    0    0 -0.15660620181E+02 -0.27914228698E+02 -0.65118162707E+03  0.65196776808E+03  0.00000000000E+00 0.  1.
        -11    1    3    3    0    0 -0.13194828175E+02  0.73617944833E+02  0.92282650428E+02  0.11878464910E+03  0.00000000000E+00 0.  1.
         11    1    3    3    0    0  0.33610521270E+02 -0.15469806295E+02  0.37918051048E+02  0.52978869770E+02  0.00000000000E+00 0. -1.
         21    1    1    2  502  501  0.29268616242E+02 -0.63162294734E+02 -0.10349544795E+03  0.12472944768E+03  0.00000000000E+00 0. -1.
<scales pt_clust_5="13000.00000" pt_clust_6="13000.00000" pt_clust_7="13000.00000" pt_clust_8="13000.00000" pt_clust_9="69.61413"></scales>
<clustering>
<clus scale="   69.614">  2  9  1 -1</clus>
<clus scale="   80.734">  5  6 -1 -1</clus>
<clus scale="   93.555">  7  8 -1 -1</clus>
<clus scale="  100.913">  2  5  1 -1</clus>
<clus scale="   69.614">  2  5  1 -1</clus>
</clustering>
</event>
<event>
 9    1  0.2951046E-005  0.2198842E+03  0.7546771E-02  0.1134794E+00
          1   -1    0    0  502    0  0.00000000000E+00  0.00000000000E+00  0.16637882740E+03  0.16637882740E+03  0.00000000000E+00 0. -1.
         -2   -1    0    0    0  501 -0.00000000000E+00 -0.00000000000E+00 -0.52901795552E+03  0.52901795552E+03  0.00000000000E+00 0.  1.
        -24    2    1    2    0    0 -0.19680573172E+03 -0.20845170569E+02 -0.38396091894E+03  0.43946554882E+03  0.80851494487E+02 0.  0.
         23    2    1    2    0    0  0.20939286039E+03 -0.13990743731E+01  0.25301772703E+02  0.23006460507E+03  0.91881529232E+02 0.  0.
         13    1    3    3    0    0 -0.73502840940E+02  0.31318583163E+02 -0.14494769073E+03  0.16550937836E+03  0.00000000000E+00 0. -1.
        -14    1    3    3    0    0 -0.12330289078E+03 -0.52163753732E+02 -0.23901322820E+03  0.27395617046E+03  0.00000000000E+00 0.  1.
        -13    1    4    4    0    0  0.12567623016E+02 -0.26057535541E+02 -0.51262329766E+01  0.29380581534E+02  0.00000000000E+00 0.  1.
         13    1    4    4    0    0  0.19682523737E+03  0.24658461168E+02  0.30428005680E+02  0.20068402353E+03  0.00000000000E+00 0. -1.
         21    1    1    2  502  501 -0.12587128669E+02  0.22244244942E+02 -0.39799818902E+01  0.25866629023E+02  0.00000000000E+00 0.  1.
<scales pt_clust_5="13000.00000" pt_clust_6="13000.00000" pt_clust_7="13000.00000" pt_clust_8="13000.00000" pt_clust_9="25.55860"></scales>
<clustering>
<clus scale="   25.559">  1  9  2 -1</clus>
<clus scale="   80.851">  5  6 -1 -1</clus>
<clus scale="   91.882">  7  8 -1 -1</clus>
<clus scale="  215.508">  2  5  1 -1</clus>
<clus scale="   25.559">  1  5  2 -1</clus>
</clustering>
</event>
<event>
 9    1  0.2951046E-005  0.1034377E+03  0.7546771E-02  0.1279255E+00
          3   -1    0    0  502    0  0.00000000000E+00  0.00000000000E+00  0.70042653316E+02  0.70042653316E+02  0.00000000000E+00 0. -1.
         -4   -1    0    0    0  501 -0.00000000000E+00 -0.00000000000E+00 -0.26087590484E+03  0.26087590484E+03  0.00000000000E+00 0.  1.
        -24    2    1    2    0    0  0.14270796521E+02 -0.39358116812E+02 -0.17654293726E+03  0.19875676927E+03  0.81142637622E+02 0.  0.
         23    2    1    2    0    0  0.19852087048E+01  0.55021549789E+02 -0.99623474661E+01  0.10917631228E+03  0.93749169603E+02 0.  0.
         11    1    3    3    0    0  0.47414633096E+02 -0.18203116055E+02 -0.11513044122E+03  0.12583528663E+03  0.00000000000E+00 0. -1.
        -12    1    3    3    0    0 -0.33143836575E+02 -0.21155000757E+02 -0.61412496038E+02  0.72921482634E+02  0.00000000000E+00 0.  1.
        -13    1    4    4    0    0 -0.39831245286E+02  0.46750398801E+02 -0.21404690560E+02  0.65040669331E+02  0.00000000000E+00 0.  1.
         13    1    4    4    0    0  0.41816453991E+02  0.82711509876E+01  0.11442343094E+02  0.44135642949E+02  0.00000000000E+00 0. -1.
         21    1    1    2  502  501 -0.16256005226E+02 -0.15663432977E+02 -0.43279668018E+01  0.22985476614E+02  0.00000000000E+00 0.  1.
<scales pt_clust_5="13000.00000" pt_clust_6="13000.00000" pt_clust_7="13000.00000" pt_clust_8="13000.00000" pt_clust_9="22.57434"></scales>
<clustering>
<clus scale="   22.574">  1  9  2 -1</clus>
<clus scale="   81.143">  5  6 -1 -1</clus>
<clus scale="   92.166">  2  5  1 -1</clus>
<clus scale="   93.749">  7  8 -1 -1</clus>
<clus scale="   22.574">  1  5  2 -1</clus>
</clustering>
</event>
<event>
 9    1  0.2951046E-005  0.8898355E+02  0.7546771E-02  0.1311276E+00
          1   -1    0    0  502    0  0.00000000000E+00  0.00000000000E+00  0.18554664460E+03  0.18554664460E+03  0.00000000000E+00 0. -1.
         -2   -1    0    0    0  501 -0.00000000000E+00 -0.00000000000E+00 -0.16631054720E+03  0.16631054720E+03  0.00000000000E+00 0.  1.
        -24    2    1    2    0    0 -0.60919453531E+00 -0.14392701899E+02 -0.11824465611E+03  0.14320591564E+03  0.79489713732E+02 0.  0.
         23    2    1    2    0    0 -0.87596686186E+01 -0.36186134538E+02  0.53129782594E+02  0.10985309508E+03  0.88649650720E+02 0.  0.
         11    1    3    3    0    0 -0.37827430779E+02 -0.12541894879E+02 -0.82250125304E+02  0.91396371695E+02  0.00000000000E+00 0. -1.
        -12    1    3    3    0    0  0.37218236243E+02 -0.18508070205E+01 -0.35994530808E+02  0.51809543945E+02  0.00000000000E+00 0.  1.
        -11    1    4    4    0    0  0.48880224631E+01 -0.63534434856E+02  0.45650550621E+02  0.78386797027E+02  0.00000000000E+00 0.  1.
         11    1    4    4    0    0 -0.13647691082E+02  0.27348300319E+02  0.74792319730E+01  0.31466298052E+02  0.00000000000E+00 0. -1.
         21    1    1    2  502  501  0.93688631539E+01  0.50578836437E+02  0.84350970908E+02  0.98798181083E+02  0.00000000000E+00 0. -1.
<scales pt_clust_5="13000.00000" pt_clust_6="13000.00000" pt_clust_7="13000.00000" pt_clust_8="13000.00000" pt_clust_9="51.43923"></scales>
<clustering>
<clus scale="   51.439">  1  9  2 -1</clus>
<clus scale="   79.490">  5  6 -1 -1</clus>
<clus scale="   79.862">  2  5  1 -1</clus>
<clus scale="   88.650">  7  8 -1 -1</clus>
<clus scale="   51.439">  1  5  2 -1</clus>
</clustering>
</event>
<event>
 9    1  0.2951046E-005  0.3542067E+03  0.7546771E-02  0.1061169E+00
         -2   -1    0    0    0  501 -0.00000000000E+00  0.00000000000E+00  0.11362626330E+04  0.11362626330E+04  0.00000000000E+00 0.  1.
          1   -1    0    0  502    0  0.00000000000E+00 -0.00000000000E+00 -0.20375444136E+03  0.20375444136E+03  0.00000000000E+00 0. -1.
        -24    2    1    2    0    0  0.33960995129E+03  0.35186732946E+02  0.90569945504E+03  0.97321935075E+03  0.10144642244E+03 0.  0.
         23    2    1    2    0    0 -0.32629018316E+03 -0.51246299557E+02  0.34540904056E+02  0.34454660412E+03  0.91803167218E+02 0.  0.
         11    1    3    3    0    0  0.18173128076E+03 -0.26641421965E+02  0.40817128322E+03  0.44759336481E+03  0.00000000000E+00 0. -1.
        -12    1    3    3    0    0  0.15787867053E+03  0.61828154911E+02  0.49752817182E+03  0.52562598594E+03  0.00000000000E+00 0.  1.
        -13    1    4    4    0    0 -0.91572926822E+02 -0.33815052646E+02  0.48037305842E+02  0.10879633020E+03  0.00000000000E+00 0.  1.
         13    1    4    4    0    0 -0.23471725634E+03 -0.17431246911E+02 -0.13496401786E+02  0.23575027392E+03  0.00000000000E+00 0. -1.
         21    1    1    2  502  501 -0.13319768132E+02  0.16059566611E+02 -0.77321674890E+01  0.22251119453E+02  0.00000000000E+00 0.  1.
<scales pt_clust_5="13000.00000" pt_clust_6="13000.00000" pt_clust_7="13000.00000" pt_clust_8="13000.00000" pt_clust_9="20.86447"></scales>
<clustering>
<clus scale="   20.864">  2  9  1 -1</clus>
<clus scale="   91.803">  7  8 -1 -1</clus>
<clus scale="  101.446">  5  6 -1 -1</clus>
<clus scale="  351.566">  2  7  1 -1</clus>
<clus scale="   20.864">  2  5  1 -1</clus>
</clustering>
</event>
<event>
 9    1  0.2951046E-005  0.1253269E+03  0.7546771E-02  0.1240023E+00
          1   -1    0    0  502    0  0.00000000000E+00  0.00000000000E+00  0.90571190014E+03  0.90571190014E+03  0.00000000000E+00 0. -1.
         -2   -1    0    0    0  501 -0.00000000000E+00 -0.00000000000E+00 -0.23903360036E+03  0.23903360036E+03  0.00000000000E+00 0.  1.
        -24    2    1    2    0    0  0.12898106527E+02 -0.75142057284E+02 -0.19736245782E+03  0.22625163567E+03  0.80157176631E+02 0.  0.
         23    2    1    2    0    0 -0.19075733757E+02  0.17701476039E+03  0.65664645113E+03  0.68734757117E+03  0.97795770834E+02 0.  0.
         11    1    3    3    0    0  0.43535291252E+02 -0.23570811854E+02 -0.73353018800E+02  0.88496158804E+02  0.00000000000E+00 0. -1.
        -12    1    3    3    0    0 -0.30637184725E+02 -0.51571245430E+02 -0.12400943902E+03  0.13775547687E+03  0.00000000000E+00 0.  1.
        -13    1    4    4    0    0 -0.31851938211E+02  0.11465525298E+03  0.55344806952E+03  0.56609640403E+03  0.00000000000E+00 0. -1.
         13    1    4    4    0    0  0.12776204454E+02  0.62359507408E+02  0.10319838162E+03  0.12125116714E+03  0.00000000000E+00 0.  1.
         21    1    1    2  502  501  0.61776272295E+01 -0.10187270310E+03  0.20739430647E+03  0.23114629365E+03  0.00000000000E+00 0.  1.
<scales pt_clust_5="13000.00000" pt_clust_6="13000.00000" pt_clust_7="13000.00000" pt_clust_8="13000.00000" pt_clust_9="102.05984"></scales>
<clustering>
<clus scale="   80.157">  5  6 -1 -1</clus>
<clus scale="   97.796">  7  8 -1 -1</clus>
<clus scale="  102.060">  1  9  2 -1</clus>
<clus scale="  112.107">  2  5  1 -1</clus>
<clus scale="  102.060">  1  5  2 -1</clus>
</clustering>
</event>
<event>
 9    1  0.2951046E-005  0.1028090E+03  0.7546771E-02  0.1279049E+00
          1   -1    0    0  502    0  0.00000000000E+00  0.00000000000E+00  0.14766127395E+03  0.14766127395E+03  0.00000000000E+00 0. -1.
         -2   -1    0    0    0  501 -0.00000000000E+00 -0.00000000000E+00 -0.15382333739E+03  0.15382333739E+03  0.00000000000E+00 0.  1.
         23    2    1    2    0    0  0.44376417088E+02  0.17554018065E+02 -0.10491469661E+03  0.14688662019E+03  0.91055893176E+02 0.  0.
        -24    2    1    2    0    0 -0.51605513293E+02  0.29476278232E+01  0.72663041565E+02  0.12063854319E+03  0.81252218315E+02 0.  0.
         11    1    4    4    0    0 -0.58266163805E+02  0.29189588151E+02  0.66009294971E+02  0.92758853613E+02  0.00000000000E+00 0. -1.
        -12    1    4    4    0    0  0.66606505124E+01 -0.26241960328E+02  0.66537465945E+01  0.27879689576E+02  0.00000000000E+00 0.  1.
        -11    1    3    3    0    0 -0.35481331654E+01 -0.30546615989E+02 -0.15003134735E+02  0.34216648714E+02  0.00000000000E+00 0. -1.
         11    1    3    3    0    0  0.47924550253E+02  0.48100634054E+02 -0.89911561877E+02  0.11266997148E+03  0.00000000000E+00 0.  1.
         21    1    1    2  502  501  0.72290962048E+01 -0.20501645888E+02  0.26089591608E+02  0.33959447969E+02  0.00000000000E+00 0. -1.
<scales pt_clust_5="13000.00000" pt_clust_6="13000.00000" pt_clust_7="13000.00000" pt_clust_8="13000.00000" pt_clust_9="21.73884"></scales>
<clustering>
<clus scale="   21.739">  1  9  2 -1</clus>
<clus scale="   81.252">  5  6 -1 -1</clus>
<clus scale="   91.056">  7  8 -1 -1</clus>
<clus scale="   94.236">  1  5  2 -1</clus>
<clus scale="   21.739">  1  5  2 -1</clus>
</clustering>
</event>
<event>
 9    1  0.2951046E-005  0.1010506E+03  0.7546771E-02  0.1286927E+00
         -2   -1    0    0    0  501 -0.00000000000E+00  0.00000000000E+00  0.16813164592E+03  0.16813164592E+03  0.00000000000E+00 0.  1.
          1   -1    0    0  502    0  0.00000000000E+00 -0.00000000000E+00 -0.11111129529E+03  0.11111129529E+03  0.00000000000E+00 0. -1.
         23    2    1    2    0    0  0.47868864035E+02  0.46558940977E+02  0.44892109976E+02  0.12675956363E+03  0.97946527776E+02 0.  0.
        -24    2    1    2    0    0  0.97278941983E+01 -0.12869706304E+02 -0.52447871901E+01  0.83532864980E+02  0.81792239688E+02 0.  0.
         13    1    4    4    0    0 -0.80086877627E+01 -0.43389394623E+02 -0.15513783207E+02  0.46770248180E+02  0.00000000000E+00 0. -1.
        -14    1    4    4    0    0  0.17736581961E+02  0.30519688319E+02  0.10268996017E+02  0.36762616800E+02  0.00000000000E+00 0.  1.
        -13    1    3    3    0    0  0.13805531840E+02 -0.23633757317E+02  0.40153136709E+02  0.48594460403E+02  0.00000000000E+00 0.  1.
         13    1    3    3    0    0  0.34063332195E+02  0.70192698294E+02  0.47389732669E+01  0.78165103222E+02  0.00000000000E+00 0. -1.
         21    1    1    2  502  501 -0.57596758234E+02 -0.33689234673E+02  0.17373027846E+02  0.68950512604E+02  0.00000000000E+00 0. -1.
<scales pt_clust_5="13000.00000" pt_clust_6="13000.00000" pt_clust_7="13000.00000" pt_clust_8="13000.00000" pt_clust_9="66.72594"></scales>
<clustering>
<clus scale="   66.726">  1  9  2 -1</clus>
<clus scale="   81.792">  5  6 -1 -1</clus>
<clus scale="   85.485">  2  5  1 -1</clus>
<clus scale="   97.947">  7  8 -1 -1</clus>
<clus scale="   85.485">  2  5  1 -1</clus>
</clustering>
</event>
<event>
 9    1  0.2951046E-005  0.9635835E+02  0.7546771E-02  0.1291230E+00
          1   -1    0    0  502    0  0.00000000000E+00  0.00000000000E+00  0.15592363430E+03  0.15592363430E+03  0.00000000000E+00 0. -1.
         -2   -1    0    0    0  501 -0.00000000000E+00 -0.00000000000E+00 -0.29085895569E+03  0.29085895569E+03  0.00000000000E+00 0.  1.
        -24    2    1    2    0    0  0.17441921201E+02  0.37571827462E+02 -0.24506892906E+03  0.26188705143E+03  0.82523844341E+02 0.  0.
         23    2    1    2    0    0 -0.31484488082E+02  0.14087329414E+02  0.72563335932E+02  0.11949379935E+03  0.88451142008E+02 0.  0.
         11    1    3    3    0    0 -0.13687901309E+02 -0.21526415039E+02 -0.70807937027E+02  0.75262933325E+02  0.00000000000E+00 0. -1.
        -12    1    3    3    0    0  0.31129822510E+02  0.59098242501E+02 -0.17426099203E+03  0.18662411811E+03  0.00000000000E+00 0.  1.
        -13    1    4    4    0    0  0.16275628369E+02 -0.27057328517E+02  0.28954325665E+02  0.42840962640E+02  0.00000000000E+00 0.  1.
         13    1    4    4    0    0 -0.47760116450E+02  0.41144657931E+02  0.43609010268E+02  0.76652836713E+02  0.00000000000E+00 0. -1.
         21    1    1    2  502  501  0.14042566881E+02 -0.51659156876E+02  0.37570271725E+02  0.65401739206E+02  0.00000000000E+00 0. -1.
<scales pt_clust_5="13000.00000" pt_clust_6="13000.00000" pt_clust_7="13000.00000" pt_clust_8="13000.00000" pt_clust_9="53.53375"></scales>
<clustering>
<clus scale="   53.534">  1  9  2 -1</clus>
<clus scale="   82.524">  5  6 -1 -1</clus>
<clus scale="   88.451">  7  8 -1 -1</clus>
<clus scale="   90.948">  2  5  1 -1</clus>
<clus scale="   53.534">  1  5  2 -1</clus>
</clustering>
</event>
<event>
 9    1  0.2951046E-005  0.1327716E+03  0.7546771E-02  0.1225803E+00
         -2   -1    0    0    0  501 -0.00000000000E+00  0.00000000000E+00  0.49962133756E+03  0.49962133756E+03  0.00000000000E+00 0.  1.
          1   -1    0    0  502    0  0.00000000000E+00 -0.00000000000E+00 -0.11357442734E+03  0.11357442734E+03  0.00000000000E+00 0. -1.
        -24    2    1    2    0    0  0.98360380188E+02  0.53162448940E+01  0.40746126984E+03  0.42604719543E+03  0.76082188842E+02 0.  0.
         23    2    1    2    0    0 -0.11722852468E+03 -0.29960868628E+02  0.12866965394E+01  0.14869467102E+03  0.86419146927E+02 0.  0.
         13    1    3    3    0    0  0.61515889177E+02 -0.10998529475E+02  0.11553098868E+03  0.13134908304E+03  0.00000000000E+00 0. -1.
        -14    1    3    3    0    0  0.36844491011E+02  0.16314774369E+02  0.29193028117E+03  0.29469811238E+03  0.00000000000E+00 0.  1.
        -13    1    4    4    0    0 -0.22387953405E+02 -0.46840145292E+02  0.59228072971E+01  0.52252266122E+02  0.00000000000E+00 0. -1.
         13    1    4    4    0    0 -0.94840571274E+02  0.16879276664E+02 -0.46361107577E+01  0.96442404901E+02  0.00000000000E+00 0.  1.
         21    1    1    2  502  501  0.18868144490E+02  0.24644623734E+02 -0.22701056159E+02  0.38453898453E+02  0.00000000000E+00 0.  1.
<scales pt_clust_5="13000.00000" pt_clust_6="13000.00000" pt_clust_7="13000.00000" pt_clust_8="13000.00000" pt_clust_9="31.03811"></scales>
<clustering>
<clus scale="   31.038">  2  9  1 -1</clus>
<clus scale="   76.082">  5  6 -1 -1</clus>
<clus scale="   86.419">  7  8 -1 -1</clus>
<clus scale="  126.288">  1  5  2 -1</clus>
<clus scale="   31.038">  2  5  1 -1</clus>
</clustering>
</event>
<event>
 9    1  0.2951046E-005  0.1818976E+03  0.7546771E-02  0.1194164E+00
          1   -1    0    0  502    0  0.00000000000E+00  0.00000000000E+00  0.46552738405E+03  0.46552738405E+03  0.00000000000E+00 0. -1.
         -2   -1    0    0    0  501 -0.00000000000E+00 -0.00000000000E+00 -0.15136372921E+03  0.15136372921E+03  0.00000000000E+00 0.  1.
         23    2    1    2    0    0 -0.16003260321E+03 -0.61450916653E+02 -0.21555892958E+02  0.19492170207E+03  0.90239482318E+02 0.  0.
        -24    2    1    2    0    0  0.50707082306E+02 -0.25017214013E+02  0.22199528050E+03  0.24207495292E+03  0.78238795186E+02 0.  0.
         13    1    4    4    0    0  0.48798106079E+02 -0.45197506666E+02  0.20532685488E+03  0.21583138581E+03  0.00000000000E+00 0. -1.
        -14    1    4    4    0    0  0.19089762265E+01  0.20180292653E+02  0.16668425620E+02  0.26243567106E+02  0.00000000000E+00 0.  1.
        -11    1    3    3    0    0 -0.11402859165E+03 -0.45533943626E+02 -0.56338731212E+02  0.13509223653E+03  0.00000000000E+00 0.  1.
         11    1    3    3    0    0 -0.46004011558E+02 -0.15916973027E+02  0.34782838254E+02  0.59829465539E+02  0.00000000000E+00 0. -1.
         21    1    1    2  502  501  0.10932552091E+03  0.86468130667E+02  0.11372426730E+03  0.17989445827E+03  0.00000000000E+00 0. -1.
<scales pt_clust_5="13000.00000" pt_clust_6="13000.00000" pt_clust_7="13000.00000" pt_clust_8="13000.00000" pt_clust_9="157.93537"></scales>
<clustering>
<clus scale="   78.239">  5  6 -1 -1</clus>
<clus scale="   90.239">  7  8 -1 -1</clus>
<clus scale="   96.532">  1  5  2 -1</clus>
<clus scale="  157.935">  1  9  2 -1</clus>
<clus scale="   96.532">  1  5  2 -1</clus>
</clustering>
</event>
<event>
 9    1  0.2951046E-005  0.2837511E+03  0.7546771E-02  0.1093826E+00
          3   -1    0    0  502    0  0.00000000000E+00  0.00000000000E+00  0.20518121678E+04  0.20518121678E+04  0.00000000000E+00 0. -1.
         -4   -1    0    0    0  501 -0.00000000000E+00 -0.00000000000E+00 -0.13470015449E+03  0.13470015449E+03  0.00000000000E+00 0.  1.
         23    2    1    2    0    0  0.22397431179E+03  0.12059233325E+03  0.11429220017E+03  0.29157361157E+03  0.85120272356E+02 0.  0.
        -24    2    1    2    0    0 -0.36345343626E+03 -0.33246711466E+02  0.85807444906E+03  0.93596661168E+03  0.80857862246E+02 0.  0.
         13    1    4    4    0    0 -0.31912135133E+03 -0.55896558407E+02  0.74927599122E+03  0.81631940632E+03  0.00000000000E+00 0. -1.
        -14    1    4    4    0    0 -0.44332084933E+02  0.22649846941E+02  0.10879845785E+03  0.11964720536E+03  0.00000000000E+00 0.  1.
        -11    1    3    3    0    0  0.99561347164E+02  0.58238281834E+02  0.98196852129E+02  0.15148194971E+03  0.00000000000E+00 0. -1.
         11    1    3    3    0    0  0.12441296462E+03  0.62354051419E+02  0.16095348041E+02  0.14009166186E+03  0.00000000000E+00 0.  1.
         21    1    1    2  502  501  0.13947912447E+03 -0.87345621786E+02  0.94474536407E+03  0.95897209904E+03  0.00000000000E+00 0. -1.
<scales pt_clust_5="13000.00000" pt_clust_6="13000.00000" pt_clust_7="13000.00000" pt_clust_8="13000.00000" pt_clust_9="164.57121"></scales>
<clustering>
<clus scale="   80.858">  5  6 -1 -1</clus>
<clus scale="   85.120">  7  8 -1 -1</clus>
<clus scale="  164.571">  1  9  2 -1</clus>
<clus scale="  282.502">  1  5  2 -1</clus>
<clus scale="  164.571">  1  5  2 -1</clus>
</clustering>
</event>
<event>
 9    1  0.2951046E-005  0.1655672E+03  0.7546771E-02  0.1184140E+00
          1   -1    0    0  502    0  0.00000000000E+00  0.00000000000E+00  0.19989221729E+03  0.19989221729E+03  0.00000000000E+00 0. -1.
         -2   -1    0    0    0  501 -0.00000000000E+00 -0.00000000000E+00 -0.27745047937E+03  0.27745047937E+03  0.00000000000E+00 0.  1.
        -24    2    1    2    0    0 -0.16902841564E+02  0.13828559483E+03 -0.19871007542E+03  0.25591812642E+03  0.81239039679E+02 0.  0.
         23    2    1    2    0    0 -0.39732504227E+01 -0.12927456395E+03  0.11933279865E+03  0.19861407465E+03  0.92084386382E+02 0.  0.
         13    1    3    3    0    0 -0.15278840827E+02  0.13145395660E+03 -0.12553807400E+03  0.18240996055E+03  0.00000000000E+00 0. -1.
        -14    1    3    3    0    0 -0.16240007370E+01  0.68316382354E+01 -0.73172001415E+02  0.73508165876E+02  0.00000000000E+00 0.  1.
        -11    1    4    4    0    0 -0.25938333820E+02 -0.34387546004E+01  0.39159630747E+01  0.26456699744E+02  0.00000000000E+00 0. -1.
         11    1    4    4    0    0  0.21965083397E+02 -0.12583580935E+03  0.11541683557E+03  0.17215737491E+03  0.00000000000E+00 0.  1.
         21    1    1    2  502  501  0.20876091987E+02 -0.90110308879E+01  0.18190146921E+01  0.22810495583E+02  0.00000000000E+00 0.  1.
<scales pt_clust_5="13000.00000" pt_clust_6="13000.00000" pt_clust_7="13000.00000" pt_clust_8="13000.00000" pt_clust_9="22.73785"></scales>
<clustering>
<clus scale="   22.738">  1  9  2 -1</clus>
<clus scale="   81.239">  5  6 -1 -1</clus>
<clus scale="   92.084">  7  8 -1 -1</clus>
<clus scale="  159.790">  2  5  1 -1</clus>
<clus scale="   22.738">  1  5  2 -1</clus>
</clustering>
</event>
<event>
 9    1  0.2951046E-005  0.1435057E+03  0.7546771E-02  0.1232749E+00
         -4   -1    0    0    0  501 -0.00000000000E+00  0.00000000000E+00  0.60378626170E+03  0.60378626170E+03  0.00000000000E+00 0.  1.
          3   -1    0    0  502    0  0.00000000000E+00 -0.00000000000E+00 -0.16907123361E+03  0.16907123361E+03  0.00000000000E+00 0. -1.
         23    2    1    2    0    0  0.97245613005E+02 -0.59799619812E+02  0.53869991768E+03  0.55783729236E+03  0.89174770346E+02 0.  0.
        -24    2    1    2    0    0 -0.20686086418E+01  0.27131393593E+02 -0.58849087912E+02  0.10473368630E+03  0.82252891969E+02 0.  0.
         11    1    4    4    0    0 -0.33721743785E+02  0.29458486744E+02 -0.90526810211E+01  0.45682704373E+02  0.00000000000E+00 0. -1.
        -12    1    4    4    0    0  0.31653135144E+02 -0.23270931508E+01 -0.49796406891E+02  0.59050981924E+02  0.00000000000E+00 0.  1.
        -11    1    3    3    0    0  0.70252703760E+02 -0.51349377194E+02  0.51061852984E+03  0.51798019647E+03  0.00000000000E+00 0.  1.
         11    1    3    3    0    0  0.26992909245E+02 -0.84502426182E+01  0.28081387841E+02  0.39857095891E+02  0.00000000000E+00 0. -1.
         21    1    1    2  502  501 -0.95177004363E+02  0.32668226219E+02 -0.45135801675E+02  0.11028651666E+03  0.00000000000E+00 0. -1.
<scales pt_clust_5="13000.00000" pt_clust_6="13000.00000" pt_clust_7="13000.00000" pt_clust_8="13000.00000" pt_clust_9="112.43554"></scales>
<clustering>
<clus scale="   82.253">  5  6 -1 -1</clus>
<clus scale="   86.637">  2  5  1 -1</clus>
<clus scale="   89.175">  7  8 -1 -1</clus>
<clus scale="  112.436">  2  9  1 -1</clus>
<clus scale="   86.637">  2  5  1 -1</clus>
</clustering>
</event>
<event>
 9    1  0.2951046E-005  0.9862356E+02  0.7546771E-02  0.1288320E+00
         -4   -1    0    0    0  501 -0.00000000000E+00  0.00000000000E+00  0.79020089674E+02  0.79020089674E+02  0.00000000000E+00 0.  1.
          3   -1    0    0  502    0  0.00000000000E+00 -0.00000000000E+00 -0.23672859679E+03  0.23672859679E+03  0.00000000000E+00 0. -1.
        -24    2    1    2    0    0 -0.42079378489E+02  0.91260817389E+01  0.18593650221E+02  0.93602566955E+02  0.81004674248E+02 0.  0.
         23    2    1    2    0    0  0.11622932412E+02 -0.31825784390E+02 -0.12189053306E+03  0.15578727334E+03  0.90908742024E+02 0.  0.
         13    1    3    3    0    0  0.11595375601E+02  0.31343577556E+02  0.99669482816E+01  0.34874240456E+02  0.00000000000E+00 0. -1.
        -14    1    3    3    0    0 -0.53674754090E+02 -0.22217495817E+02  0.86267019391E+01  0.58728326499E+02  0.00000000000E+00 0.  1.
        -11    1    4    4    0    0 -0.69751742095E+01 -0.48889766735E+02 -0.24402634886E+02  0.55084942915E+02  0.00000000000E+00 0.  1.
         11    1    4    4    0    0  0.18598106622E+02  0.17063982344E+02 -0.97487898172E+02  0.10070233043E+03  0.00000000000E+00 0. -1.
         21    1    1    2  502  501  0.30456446077E+02  0.22699702651E+02 -0.54411624282E+02  0.66358846171E+02  0.00000000000E+00 0. -1.
<scales pt_clust_5="13000.00000" pt_clust_6="13000.00000" pt_clust_7="13000.00000" pt_clust_8="13000.00000" pt_clust_9="37.98515"></scales>
<clustering>
<clus scale="   37.985">  2  9  1 -1</clus>
<clus scale="   81.005">  5  6 -1 -1</clus>
<clus scale="   89.577">  1  5  2 -1</clus>
<clus scale="   90.909">  7  8 -1 -1</clus>
<clus scale="   37.985">  2  5  1 -1</clus>
</clustering>
</event>
<event>
 9    1  0.2951046E-005  0.9155470E+02  0.7546771E-02  0.1304270E+00
          1   -1    0    0  502    0  0.00000000000E+00  0.00000000000E+00  0.48589890098E+03  0.48589890098E+03  0.00000000000E+00 0. -1.
         -2   -1    0    0    0  501 -0.00000000000E+00 -0.00000000000E+00 -0.70740916044E+02  0.70740916044E+02  0.00000000000E+00 0.  1.
        -24    2    1    2    0    0  0.24390519089E+02 -0.11251051840E+01 -0.33449433028E+02  0.90096182560E+02  0.80014337834E+02 0.  0.
         23    2    1    2    0    0 -0.98059180664E+01  0.21540425106E+02  0.24858983013E+03  0.26495858711E+03  0.88577668151E+02 0.  0.
         11    1    3    3    0    0 -0.16443525989E+02 -0.20835585588E+02  0.89575594896E+01  0.28013372624E+02  0.00000000000E+00 0. -1.
        -12    1    3    3    0    0  0.40834045078E+02  0.19710480404E+02 -0.42406992518E+02  0.62082809936E+02  0.00000000000E+00 0.  1.
        -13    1    4    4    0    0  0.25569957449E+02  0.84409400608E+01  0.20690732099E+02  0.33958483297E+02  0.00000000000E+00 0.  1.
         13    1    4    4    0    0 -0.35375875515E+02  0.13099485045E+02  0.22789909803E+03  0.23100010381E+03  0.00000000000E+00 0. -1.
         21    1    1    2  502  501 -0.14584601022E+02 -0.20415319922E+02  0.20001758783E+03  0.20158504736E+03  0.00000000000E+00 0.  1.
<scales pt_clust_5="13000.00000" pt_clust_6="13000.00000" pt_clust_7="13000.00000" pt_clust_8="13000.00000" pt_clust_9="25.08976"></scales>
<clustering>
<clus scale="   25.090">  1  9  2 -1</clus>
<clus scale="   80.014">  5  6 -1 -1</clus>
<clus scale="   83.298">  2  5  1 -1</clus>
<clus scale="   88.578">  7  8 -1 -1</clus>
<clus scale="   25.090">  1  5  2 -1</clus>
</clustering>
</event>
<event>
 9    1  0.2951046E-005  0.1012165E+03  0.7546771E-02  0.1283939E+00
         -2   -1    0    0    0  501 -0.00000000000E+00  0.00000000000E+00  0.38384619741E+02  0.38384619741E+02  0.00000000000E+00 0.  1.
          1   -1    0    0  502    0  0.00000000000E+00 -0.00000000000E+00 -0.43713794048E+03  0.43713794048E+03  0.00000000000E+00 0. -1.
        -24    2    1    2    0    0 -0.27254072191E+02  0.30402349324E+02 -0.13229635173E+03  0.15954865768E+03  0.79286582656E+02 0.  0.
         23    2    1    2    0    0  0.60121327101E+02  0.18090051229E+02 -0.17307370734E+03  0.20573687194E+03  0.91822265151E+02 0.  0.
         13    1    3    3    0    0  0.23381832708E+02  0.14479144177E+02 -0.81747725723E+02  0.86249906538E+02  0.00000000000E+00 0. -1.
        -14    1    3    3    0    0 -0.50635904899E+02  0.15923205147E+02 -0.50548626011E+02  0.73298751140E+02  0.00000000000E+00 0.  1.
        -13    1    4    4    0    0  0.19026145360E+02  0.44492882347E+02 -0.36269209932E+02  0.60473683333E+02  0.00000000000E+00 0.  1.
         13    1    4    4    0    0  0.41095181741E+02 -0.26402831118E+02 -0.13680449740E+03  0.14526318860E+03  0.00000000000E+00 0. -1.
         21    1    1    2  502  501 -0.32867254910E+02 -0.48492400552E+02 -0.93383261668E+02  0.11023703060E+03  0.00000000000E+00 0. -1.
<scales pt_clust_5="13000.00000" pt_clust_6="13000.00000" pt_clust_7="13000.00000" pt_clust_8="13000.00000" pt_clust_9="58.58131"></scales>
<clustering>
<clus scale="   58.581">  2  9  1 -1</clus>
<clus scale="   79.287">  5  6 -1 -1</clus>
<clus scale="   89.999">  1  5  2 -1</clus>
<clus scale="   91.822">  7  8 -1 -1</clus>
<clus scale="   58.581">  2  5  1 -1</clus>
</clustering>
</event>
<event>
 9    1  0.2951046E-005  0.8671652E+02  0.7546771E-02  0.1313573E+00
         -2   -1    0    0    0  501 -0.00000000000E+00  0.00000000000E+00  0.41388536299E+02  0.41388536299E+02  0.00000000000E+00 0.  1.
          1   -1    0    0  502    0  0.00000000000E+00 -0.00000000000E+00 -0.35511575480E+03  0.35511575480E+03  0.00000000000E+00 0. -1.
         23    2    1    2    0    0  0.14751527006E+02  0.46579962661E+01 -0.43345712338E+02  0.97973593309E+02  0.86490865007E+02 0.  0.
        -24    2    1    2    0    0  0.25278973287E+02 -0.52757327336E+01 -0.18209754972E+03  0.20159319464E+03  0.82543556165E+02 0.  0.
         11    1    4    4    0    0  0.13676290730E+02  0.31523291729E+02 -0.33211886620E+02  0.47788997294E+02  0.00000000000E+00 0. -1.
        -12    1    4    4    0    0  0.11602682557E+02 -0.36799024462E+02 -0.14888566310E+03  0.15380419735E+03  0.00000000000E+00 0.  1.
        -11    1    3    3    0    0  0.19956867010E+02 -0.24324876808E+02  0.13277960614E+02  0.34150847876E+02  0.00000000000E+00 0.  1.
         11    1    3    3    0    0 -0.52053400039E+01  0.28982873074E+02 -0.56623672952E+02  0.63822745434E+02  0.00000000000E+00 0. -1.
         21    1    1    2  502  501 -0.40030500293E+02  0.61773646747E+00 -0.88283956446E+02  0.96937503154E+02  0.00000000000E+00 0. -1.
<scales pt_clust_5="13000.00000" pt_clust_6="13000.00000" pt_clust_7="13000.00000" pt_clust_8="13000.00000" pt_clust_9="40.03527"></scales>
<clustering>
<clus scale="   40.035">  2  9  1 -1</clus>
<clus scale="   82.544">  5  6 -1 -1</clus>
<clus scale="   82.780">  2  5  1 -1</clus>
<clus scale="   86.491">  7  8 -1 -1</clus>
<clus scale="   40.035">  2  5  1 -1</clus>
</clustering>
</event>
<event>
 9    1  0.2951046E-005  0.1348607E+03  0.7546771E-02  0.1222897E+00
          1   -1    0    0  502    0  0.00000000000E+00  0.00000000000E+00  0.71477967885E+02  0.71477967885E+02  0.00000000000E+00 0. -1.
         -2   -1    0    0    0  501 -0.00000000000E+00 -0.00000000000E+00 -0.88435127645E+03  0.88435127645E+03  0.00000000000E+00 0.  1.
        -24    2    1    2    0    0  0.75486925168E+02 -0.83249623881E+02 -0.54097220229E+03  0.55852295474E+03  0.81658995687E+02 0.  0.
         23    2    1    2    0    0  0.45268651514E+02  0.10531418807E+03 -0.21874218599E+03  0.26353549645E+03  0.91991765597E+02 0.  0.
         13    1    3    3    0    0  0.53927024348E+02 -0.77537354866E+01 -0.14625873723E+03  0.15607646390E+03  0.00000000000E+00 0. -1.
        -14    1    3    3    0    0  0.21559900820E+02 -0.75495888394E+02 -0.39471346506E+03  0.40244649084E+03  0.00000000000E+00 0.  1.
        -13    1    4    4    0    0  0.69457727321E+02  0.49518717881E+02 -0.11342435377E+03  0.14192097566E+03  0.00000000000E+00 0.  1.
         13    1    4    4    0    0 -0.24189075807E+02  0.55795470185E+02 -0.10531783222E+03  0.12161452079E+03  0.00000000000E+00 0. -1.
         21    1    1    2  502  501 -0.12075557668E+03 -0.22064564185E+02 -0.53158920281E+02  0.13377079314E+03  0.00000000000E+00 0. -1.
<scales pt_clust_5="13000.00000" pt_clust_6="13000.00000" pt_clust_7="13000.00000" pt_clust_8="13000.00000" pt_clust_9="122.75485"></scales>
<clustering>
<clus scale="   81.659">  5  6 -1 -1</clus>
<clus scale="   91.992">  7  8 -1 -1</clus>
<clus scale="  122.755">  1  9  2 -1</clus>
<clus scale="  128.036">  2  5  1 -1</clus>
<clus scale="  122.755">  1  5  2 -1</clus>
</clustering>
</event>
<event>
 9    1  0.2951046E-005  0.9172352E+02  0.7546771E-02  0.1306169E+00
         -2   -1    0    0    0  501 -0.00000000000E+00  0.00000000000E+00  0.96602778129E+03  0.96602778129E+03  0.00000000000E+00 0.  1.
          1   -1    0    0  502    0  0.00000000000E+00 -0.00000000000E+00 -0.19868395656E+02  0.19868395656E+02  0.00000000000E+00 0. -1.
        -24    2    1    2    0    0  0.38184206993E+01 -0.10211229951E+02  0.58318450652E+03  0.58871806471E+03  0.79786850509E+02 0.  0.
         23    2    1    2    0    0  0.11245931300E+02 -0.30265507400E+01  0.36549989674E+03  0.37696551090E+03  0.91526995524E+02 0.  0.
         13    1    3    3    0    0 -0.26636482210E+02 -0.31577396496E+02  0.24075661358E+03  0.24427521597E+03  0.00000000000E+00 0. -1.
        -14    1    3    3    0    0  0.30454902909E+02  0.21366166545E+02  0.34242789294E+03  0.34444284874E+03  0.00000000000E+00 0.  1.
        -13    1    4    4    0    0  0.23257431549E+02  0.38809953295E+02  0.23738827369E+03  0.24166156724E+03  0.00000000000E+00 0. -1.
         13    1    4    4    0    0 -0.12011500249E+02 -0.41836504035E+02  0.12811162306E+03  0.13530394366E+03  0.00000000000E+00 0.  1.
         21    1    1    2  502  501 -0.15064351999E+02  0.13237780691E+02 -0.25250176296E+01  0.20212601337E+02  0.00000000000E+00 0. -1.
<scales pt_clust_5="13000.00000" pt_clust_6="13000.00000" pt_clust_7="13000.00000" pt_clust_8="13000.00000" pt_clust_9="20.05426"></scales>
<clustering>
<clus scale="   20.054">  2  9  1 -1</clus>
<clus scale="   79.787">  5  6 -1 -1</clus>
<clus scale="   80.012">  1  5  2 -1</clus>
<clus scale="   91.527">  7  8 -1 -1</clus>
<clus scale="   20.054">  2  5  1 -1</clus>
</clustering>
</event>
<event>
 9    1  0.2951046E-005  0.1558572E+03  0.7546771E-02  0.1195340E+00
         -2   -1    0    0    0  501 -0.00000000000E+00  0.00000000000E+00  0.17984718706E+03  0.17984718706E+03  0.00000000000E+00 0.  1.
          1   -1    0    0  502    0  0.00000000000E+00 -0.00000000000E+00 -0.29053720356E+03  0.29053720356E+03  0.00000000000E+00 0. -1.
        -24    2    1    2    0    0  0.12119878539E+03 -0.41083730209E+02  0.11381856589E+03  0.19065653598E+03  0.83774878699E+02 0.  0.
         23    2    1    2    0    0 -0.97529667986E+02  0.26162807196E+02 -0.19462662284E+03  0.23879140916E+03  0.94579522923E+02 0.  0.
         13    1    3    3    0    0  0.45145422283E+02 -0.11699009150E+02 -0.46228659547E+01  0.46865198792E+02  0.00000000000E+00 0. -1.
        -14    1    3    3    0    0  0.76053363108E+02 -0.29384721059E+02  0.11844143185E+03  0.14379133718E+03  0.00000000000E+00 0.  1.
        -11    1    4    4    0    0 -0.96212080434E+02 -0.68215645443E+01 -0.10165010676E+03  0.14012866362E+03  0.00000000000E+00 0. -1.
         11    1    4    4    0    0 -0.13175875519E+01  0.32984371740E+02 -0.92976516080E+02  0.98662745545E+02  0.00000000000E+00 0.  1.
         21    1    1    2  502  501 -0.23669117404E+02  0.14920923013E+02 -0.29881959547E+02  0.40936445481E+02  0.00000000000E+00 0.  1.
<scales pt_clust_5="13000.00000" pt_clust_6="13000.00000" pt_clust_7="13000.00000" pt_clust_8="13000.00000" pt_clust_9="27.97965"></scales>
<clustering>
<clus scale="   27.980">  2  9  1 -1</clus>
<clus scale="   83.775">  5  6 -1 -1</clus>
<clus scale="   94.580">  7  8 -1 -1</clus>
<clus scale="  149.547">  1  5  2 -1</clus>
<clus scale="   27.980">  2  5  1 -1</clus>
</clustering>
</event>
<event>
 9    1  0.2951046E-005  0.9938167E+02  0.7546771E-02  0.1285085E+00
          1   -1    0    0  502    0  0.00000000000E+00  0.00000000000E+00  0.18535739842E+03  0.18535739842E+03  0.00000000000E+00 0. -1.
         -2   -1    0    0    0  501 -0.00000000000E+00 -0.00000000000E+00 -0.10248738556E+03  0.10248738556E+03  0.00000000000E+00 0.  1.
        -24    2    1    2    0    0 -0.14820309224E+02 -0.13713437787E+02 -0.44507478535E+02  0.95124032299E+02  0.81608614336E+02 0.  0.
         23    2    1    2    0    0  0.33514888125E+02  0.38631063838E+02  0.12479850224E+03  0.16146332770E+03  0.88770114402E+02 0.  0.
         13    1    3    3    0    0  0.42232349733E+01  0.32455743111E+02 -0.93196208385E+01  0.34030373302E+02  0.00000000000E+00 0. -1.
        -14    1    3    3    0    0 -0.19043544198E+02 -0.46169180898E+02 -0.35187857696E+02  0.61093658997E+02  0.00000000000E+00 0.  1.
        -11    1    4    4    0    0 -0.28319021772E+02  0.16798571976E+02  0.64315974433E+02  0.72254436416E+02  0.00000000000E+00 0.  1.
         11    1    4    4    0    0  0.61833909897E+02  0.21832491863E+02  0.60482527808E+02  0.89208891284E+02  0.00000000000E+00 0. -1.
         21    1    1    2  502  501 -0.18694578901E+02 -0.24917626051E+02  0.25789891528E+01  0.31257423972E+02  0.00000000000E+00 0. -1.
<scales pt_clust_5="13000.00000" pt_clust_6="13000.00000" pt_clust_7="13000.00000" pt_clust_8="13000.00000" pt_clust_9="31.15085"></scales>
<clustering>
<clus scale="   31.151">  2  9  1 -1</clus>
<clus scale="   81.609">  5  6 -1 -1</clus>
<clus scale="   88.770">  7  8 -1 -1</clus>
<clus scale="   93.041">  2  5  1 -1</clus>
<clus scale="   99.382">  1  5  2 -1</clus>
</clustering>
</event>
<event>
 9    1  0.2951046E-005  0.4103187E+03  0.7546771E-02  0.1040502E+00
          1   -1    0    0  502    0  0.00000000000E+00  0.00000000000E+00  0.18118293165E+04  0.18118293165E+04  0.00000000000E+00 0. -1.
         -2   -1    0    0    0  501 -0.00000000000E+00 -0.00000000000E+00 -0.11554784831E+03  0.11554784831E+03  0.00000000000E+00 0.  1.
        -24    2    1    2    0    0 -0.45338925310E+02  0.38112096043E+03  0.49868385678E+03  0.63449835350E+03  0.81202013246E+02 0.  0.
         23    2    1    2    0    0  0.57244796332E+02 -0.42632582471E+03  0.10821798968E+04  0.11683538003E+04  0.94374774794E+02 0.  0.
         11    1    3    3    0    0 -0.40661244187E+02  0.34864751523E+03  0.40882793780E+03  0.53884015198E+03  0.00000000000E+00 0. -1.
        -12    1    3    3    0    0 -0.46776811229E+01  0.32473445205E+02  0.89855918974E+02  0.95658201524E+02  0.00000000000E+00 0.  1.
        -11    1    4    4    0    0  0.79142766179E+02 -0.38735364101E+03  0.95805718375E+03  0.10364265473E+04  0.00000000000E+00 0.  1.
         11    1    4    4    0    0 -0.21897969847E+02 -0.38972183700E+02  0.12412271305E+03  0.13192725299E+03  0.00000000000E+00 0. -1.
         21    1    1    2  502  501 -0.11905871022E+02  0.45204864274E+02  0.11541771464E+03  0.12452501103E+03  0.00000000000E+00 0.  1.
<scales pt_clust_5="13000.00000" pt_clust_6="13000.00000" pt_clust_7="13000.00000" pt_clust_8="13000.00000" pt_clust_9="46.74644"></scales>
<clustering>
<clus scale="   46.746">  1  9  2 -1</clus>
<clus scale="   81.202">  5  6 -1 -1</clus>
<clus scale="   94.375">  7  8 -1 -1</clus>
<clus scale="  407.491">  2  5  1 -1</clus>
<clus scale="   46.746">  1  5  2 -1</clus>
</clustering>
</event>
<event>
 9    1  0.2951046E-005  0.1017293E+03  0.7546771E-02  0.1280882E+00
          1   -1    0    0  502    0  0.00000000000E+00  0.00000000000E+00  0.41874604155E+03  0.41874604155E+03  0.00000000000E+00 0. -1.
         -2   -1    0    0    0  501 -0.00000000000E+00 -0.00000000000E+00 -0.45861743120E+02  0.45861743120E+02  0.00000000000E+00 0.  1.
         23    2    1    2    0    0 -0.30500920796E+02 -0.44341917492E+02  0.35295875167E+02  0.10983492254E+03  0.89002244861E+02 0.  0.
        -24    2    1    2    0    0  0.13325776183E+02  0.29370543349E+02  0.27164176086E+03  0.28500116357E+03  0.79976320686E+02 0.  0.
         11    1    4    4    0    0 -0.15482719669E+02 -0.22043038439E+02  0.73508958632E+02  0.78289061504E+02  0.00000000000E+00 0. -1.
        -12    1    4    4    0    0  0.28808495852E+02  0.51413581788E+02  0.19813280222E+03  0.20671210207E+03  0.00000000000E+00 0.  1.
        -13    1    3    3    0    0  0.26268674540E+02 -0.27874782056E+02  0.33199953907E+02  0.50688101920E+02  0.00000000000E+00 0.  1.
         13    1    3    3    0    0 -0.56769595336E+02 -0.16467135435E+02  0.20959212606E+01  0.59146820625E+02  0.00000000000E+00 0. -1.
         21    1    1    2  502  501  0.17175144613E+02  0.14971374142E+02  0.65946662410E+02  0.69771698554E+02  0.00000000000E+00 0.  1.
<scales pt_clust_5="13000.00000" pt_clust_6="13000.00000" pt_clust_7="13000.00000" pt_clust_8="13000.00000" pt_clust_9="22.78437"></scales>
<clustering>
<clus scale="   22.784">  1  9  2 -1</clus>
<clus scale="   79.976">  5  6 -1 -1</clus>
<clus scale="   89.002">  7  8 -1 -1</clus>
<clus scale="   93.934">  1  5  2 -1</clus>
<clus scale="   22.784">  1  5  2 -1</clus>
</clustering>
</event>
<event>
 9    1  0.2951046E-005  0.1055452E+03  0.7546771E-02  0.1274985E+00
         -2   -1    0    0    0  501 -0.00000000000E+00  0.00000000000E+00  0.86518887784E+02  0.86518887784E+02  0.00000000000E+00 0.  1.
          1   -1    0    0  502    0  0.00000000000E+00 -0.00000000000E+00 -0.31648650772E+03  0.31648650772E+03  0.00000000000E+00 0. -1.
         23    2    1    2    0    0 -0.11258736792E+02  0.55418778403E+02  0.30831832010E+02  0.11225257116E+03  0.91934964583E+02 0.  0.
        -24    2    1    2    0    0  0.32366466791E+02 -0.21210022269E+02 -0.19280661439E+03  0.21176674190E+03  0.78570409206E+02 0.  0.
         13    1    4    4    0    0 -0.17724410351E+02  0.16056361998E+02 -0.70512306648E+02  0.74457685109E+02  0.00000000000E+00 0. -1.
        -14    1    4    4    0    0  0.50090877143E+02 -0.37266384267E+02 -0.12229430775E+03  0.13730905679E+03  0.00000000000E+00 0.  1.
        -11    1    3    3    0    0 -0.33949727705E+02  0.47531115414E+02 -0.15176657720E+02  0.60349994891E+02  0.00000000000E+00 0.  1.
         11    1    3    3    0    0  0.22690990913E+02  0.78876629888E+01  0.46008489730E+02  0.51902576269E+02  0.00000000000E+00 0. -1.
         21    1    1    2  502  501 -0.21107730000E+02 -0.34208756133E+02 -0.67992837548E+02  0.78986082443E+02  0.00000000000E+00 0. -1.
<scales pt_clust_5="13000.00000" pt_clust_6="13000.00000" pt_clust_7="13000.00000" pt_clust_8="13000.00000" pt_clust_9="40.19671"></scales>
<clustering>
<clus scale="   40.197">  2  9  1 -1</clus>
<clus scale="   78.570">  5  6 -1 -1</clus>
<clus scale="   91.935">  7  8 -1 -1</clus>
<clus scale="   94.133">  2  5  1 -1</clus>
<clus scale="   40.197">  2  5  1 -1</clus>
</clustering>
</event>
<event>
 9    1  0.2951046E-005  0.1055102E+03  0.7546771E-02  0.1274091E+00
          1   -1    0    0  502    0  0.00000000000E+00  0.00000000000E+00  0.72034326317E+03  0.72034326317E+03  0.00000000000E+00 0. -1.
         -2   -1    0    0    0  501 -0.00000000000E+00 -0.00000000000E+00 -0.22531300123E+02  0.22531300123E+02  0.00000000000E+00 0.  1.
        -24    2    1    2    0    0  0.44130163789E+02 -0.49423892820E+02  0.16212665165E+03  0.19127577902E+03  0.76884198154E+02 0.  0.
         23    2    1    2    0    0 -0.12389190226E+02  0.38598755779E+02  0.37553623815E+03  0.38797605157E+03  0.88626149920E+02 0.  0.
         11    1    3    3    0    0 -0.15835521192E+02 -0.18843066419E+02  0.13398434200E+02  0.28023970498E+02  0.00000000000E+00 0. -1.
        -12    1    3    3    0    0  0.59965684981E+02 -0.30580826401E+02  0.14872821745E+03  0.16325180852E+03  0.00000000000E+00 0.  1.
        -13    1    4    4    0    0 -0.12145121551E+02  0.62169948158E+02  0.33621620065E+03  0.34213146598E+03  0.00000000000E+00 0. -1.
         13    1    4    4    0    0 -0.24406867439E+00 -0.23571192379E+02  0.39320037496E+02  0.45844585595E+02  0.00000000000E+00 0.  1.
         21    1    1    2  502  501 -0.31740973563E+02  0.10825137041E+02  0.16014907325E+03  0.16362273270E+03  0.00000000000E+00 0. -1.
<scales pt_clust_5="13000.00000" pt_clust_6="13000.00000" pt_clust_7="13000.00000" pt_clust_8="13000.00000" pt_clust_9="33.53614"></scales>
<clustering>
<clus scale="   33.536">  1  9  2 -1</clus>
<clus scale="   76.884">  5  6 -1 -1</clus>
<clus scale="   88.626">  7  8 -1 -1</clus>
<clus scale="   95.859">  2  5  1 -1</clus>
<clus scale="   33.536">  1  5  2 -1</clus>
</clustering>
</event>
<event>
 9    1  0.2951046E-005  0.1163415E+03  0.7546771E-02  0.1255782E+00
         -2   -1    0    0    0  501 -0.00000000000E+00  0.00000000000E+00  0.38614187267E+02  0.38614187267E+02  0.00000000000E+00 0.  1.
          1   -1    0    0  502    0  0.00000000000E+00 -0.00000000000E+00 -0.47642932222E+03  0.47642932222E+03  0.00000000000E+00 0. -1.
         23    2    1    2    0    0 -0.42099977097E+02 -0.35596837607E+02 -0.11302458972E+03  0.15831013544E+03  0.96166512786E+02 0.  0.
        -24    2    1    2    0    0  0.60625713253E+02  0.56837751242E+02 -0.21618219317E+03  0.24452752104E+03  0.78440810989E+02 0.  0.
         13    1    4    4    0    0  0.70164975928E+02  0.67465971485E+02 -0.20282685099E+03  0.22497447108E+03  0.00000000000E+00 0. -1.
        -14    1    4    4    0    0 -0.95392626754E+01 -0.10628220243E+02 -0.13355342173E+02  0.19553049953E+02  0.00000000000E+00 0.  1.
        -13    1    3    3    0    0 -0.72241361009E+02 -0.29079158543E+02 -0.66024115140E+02  0.10209601110E+03  0.00000000000E+00 0. -1.
         13    1    3    3    0    0  0.30141383911E+02 -0.65176790642E+01 -0.47000474583E+02  0.56214124341E+02  0.00000000000E+00 0.  1.
         21    1    1    2  502  501 -0.18525736156E+02 -0.21240913634E+02 -0.10860835207E+03  0.11220585302E+03  0.00000000000E+00 0.  1.
<scales pt_clust_5="13000.00000" pt_clust_6="13000.00000" pt_clust_7="13000.00000" pt_clust_8="13000.00000" pt_clust_9="28.18474"></scales>
<clustering>
<clus scale="   28.185">  2  9  1 -1</clus>
<clus scale="   78.441">  5  6 -1 -1</clus>
<clus scale="   96.167">  7  8 -1 -1</clus>
<clus scale="  102.178">  2  5  1 -1</clus>
<clus scale="   28.185">  2  5  1 -1</clus>
</clustering>
</event>
<event>
 9    1  0.2951046E-005  0.1139907E+03  0.7546771E-02  0.1258767E+00
         -2   -1    0    0    0  501 -0.00000000000E+00  0.00000000000E+00  0.56941742525E+02  0.56941742525E+02  0.00000000000E+00 0.  1.
          1   -1    0    0  502    0  0.00000000000E+00 -0.00000000000E+00 -0.31303432542E+03  0.31303432542E+03  0.00000000000E+00 0. -1.
         23    2    1    2    0    0  0.58656940565E+02 -0.12626486372E+01 -0.54120627807E+02  0.12788873639E+03  0.99921246905E+02 0.  0.
        -24    2    1    2    0    0 -0.47468791659E+02  0.19860414625E+02 -0.11669520754E+03  0.15409201777E+03  0.86480380592E+02 0.  0.
         13    1    4    4    0    0 -0.19866790155E+02  0.53486621852E+02 -0.69045690653E+02  0.89570170626E+02  0.00000000000E+00 0. -1.
        -14    1    4    4    0    0 -0.27602001504E+02 -0.33626207227E+02 -0.47649516887E+02  0.64521847146E+02  0.00000000000E+00 0.  1.
        -13    1    3    3    0    0  0.22553647832E+02  0.24889481909E+02 -0.72318235055E+02  0.79737572460E+02  0.00000000000E+00 0. -1.
         13    1    3    3    0    0  0.36103292733E+02 -0.26152130546E+02  0.18197607248E+02  0.48151163930E+02  0.00000000000E+00 0.  1.
         21    1    1    2  502  501 -0.11188148906E+02 -0.18597765988E+02 -0.85276747547E+02  0.87995313784E+02  0.00000000000E+00 0. -1.
<scales pt_clust_5="13000.00000" pt_clust_6="13000.00000" pt_clust_7="13000.00000" pt_clust_8="13000.00000" pt_clust_9="21.70372"></scales>
<clustering>
<clus scale="   21.704">  2  9  1 -1</clus>
<clus scale="   86.480">  5  6 -1 -1</clus>
<clus scale="   99.921">  7  8 -1 -1</clus>
<clus scale="  102.413">  2  5  1 -1</clus>
<clus scale="   21.704">  2  5  1 -1</clus>
</clustering>
</event>
<event>
 9    1  0.3124440E-005  0.1394382E+03  0.7546771E-02  0.1217682E+00
          1   -1    0    0  502    0  0.00000000000E+00  0.00000000000E+00  0.60064465230E+03  0.60064465230E+03  0.00000000000E+00 0. -1.
         -2   -1    0    0    0  501 -0.00000000000E+00 -0.00000000000E+00 -0.11445481464E+03  0.11445481464E+03  0.00000000000E+00 0.  1.
        -24    2    1    2    0    0 -0.37528178284E+02  0.81766614603E+02 -0.55392904416E+02  0.14910318468E+03  0.10521046713E+03 0.  0.
         23    2    1    2    0    0  0.58288667828E+02 -0.91222536962E+02  0.47070315188E+03  0.49153603313E+03  0.91252915741E+02 0.  0.
         13    1    3    3    0    0 -0.76075788510E+01 -0.25705515455E+02 -0.12551972317E+02  0.29600689009E+02  0.00000000000E+00 0. -1.
        -14    1    3    3    0    0 -0.29920599433E+02  0.10747213006E+03 -0.42840932099E+02  0.11950249568E+03  0.00000000000E+00 0.  1.
        -11    1    4    4    0    0  0.49781285377E+01 -0.76906211271E+02  0.35594328165E+03  0.36419083851E+03  0.00000000000E+00 0. -1.
         11    1    4    4    0    0  0.53310539290E+02 -0.14316325690E+02  0.11475987023E+03  0.12734519463E+03  0.00000000000E+00 0.  1.
         21    1    1    2  502  501 -0.20760489543E+02  0.94559223591E+01  0.70879590188E+02  0.74460249120E+02  0.00000000000E+00 0. -1.
<scales pt_clust_5="13000.00000" pt_clust_6="13000.00000" pt_clust_7="13000.00000" pt_clust_8="13000.00000" pt_clust_9="22.81255"></scales>
<clustering>
<clus scale="   22.813">  1  9  2 -1</clus>
<clus scale="   91.253">  7  8 -1 -1</clus>
<clus scale="  105.210">  5  6 -1 -1</clus>
<clus scale="  129.232">  1  7  2 -1</clus>
<clus scale="   22.813">  1  5  2 -1</clus>
</clustering>
</event>
<event>
 9    1  0.2951046E-005  0.1084426E+03  0.7546771E-02  0.1265974E+00
          1   -1    0    0  502    0  0.00000000000E+00  0.00000000000E+00  0.28031495710E+03  0.28031495710E+03  0.00000000000E+00 0. -1.
         -2   -1    0    0    0  501 -0.00000000000E+00 -0.00000000000E+00 -0.36547775606E+03  0.36547775606E+03  0.00000000000E+00 0.  1.
        -24    2    1    2    0    0  0.39944870942E+02 -0.55554674546E+02 -0.34060504851E+03  0.35604870319E+03  0.77954893334E+02 0.  0.
         23    2    1    2    0    0 -0.51359177948E+02  0.27668282961E+02  0.16494353753E+03  0.19436081378E+03  0.84654924947E+02 0.  0.
         13    1    3    3    0    0 -0.10309024316E+02 -0.34995225784E+02 -0.59858413397E+02  0.70099725138E+02  0.00000000000E+00 0. -1.
        -14    1    3    3    0    0  0.50253895258E+02 -0.20559448762E+02 -0.28074663511E+03  0.28594897805E+03  0.00000000000E+00 0.  1.
        -11    1    4    4    0    0 -0.21840675536E+02  0.56939490370E+02  0.91305745801E+02  0.10979917981E+03  0.00000000000E+00 0. -1.
         11    1    4    4    0    0 -0.29518502413E+02 -0.29271207409E+02  0.73637791730E+02  0.84561633965E+02  0.00000000000E+00 0.  1.
         21    1    1    2  502  501  0.11414307007E+02  0.27886391585E+02  0.90498712014E+02  0.95383196194E+02  0.00000000000E+00 0.  1.
<scales pt_clust_5="13000.00000" pt_clust_6="13000.00000" pt_clust_7="13000.00000" pt_clust_8="13000.00000" pt_clust_9="30.13200"></scales>
<clustering>
<clus scale="   30.132">  1  9  2 -1</clus>
<clus scale="   77.955">  5  6 -1 -1</clus>
<clus scale="   84.655">  7  8 -1 -1</clus>
<clus scale="  103.297">  2  5  1 -1</clus>
<clus scale="   30.132">  1  5  2 -1</clus>
</clustering>
</event>
<event>
 9    1  0.2951046E-005  0.9919276E+02  0.7546771E-02  0.1286424E+00
         -2   -1    0    0    0  501 -0.00000000000E+00  0.00000000000E+00  0.89324397554E+02  0.89324397554E+02  0.00000000000E+00 0.  1.
          1   -1    0    0  502    0  0.00000000000E+00 -0.00000000000E+00 -0.30510041499E+03  0.30510041499E+03  0.00000000000E+00 0. -1.
        -24    2    1    2    0    0  0.33726903071E+01 -0.86804101364E+01  0.42792864152E+01  0.83189969295E+02  0.82556248334E+02 0.  0.
         23    2    1    2    0    0  0.44168993673E+02  0.19333499895E+02 -0.23791653618E+03  0.25934338289E+03  0.91268986186E+02 0.  0.
         13    1    3    3    0    0  0.21062686188E+02 -0.41077235950E+02  0.19060941883E+01  0.46201831758E+02  0.00000000000E+00 0. -1.
        -14    1    3    3    0    0 -0.17689995881E+02  0.32396825814E+02  0.23731922269E+01  0.36988137537E+02  0.00000000000E+00 0.  1.
        -11    1    4    4    0    0  0.23392301641E+02  0.48471161883E+02 -0.73623539941E+02  0.91198020503E+02  0.00000000000E+00 0.  1.
         11    1    4    4    0    0  0.20776692032E+02 -0.29137661988E+02 -0.16429299624E+03  0.16814536239E+03  0.00000000000E+00 0. -1.
         21    1    1    2  502  501 -0.47541683980E+02 -0.10653089758E+02  0.17861232336E+02  0.51891460353E+02  0.00000000000E+00 0.  1.
<scales pt_clust_5="13000.00000" pt_clust_6="13000.00000" pt_clust_7="13000.00000" pt_clust_8="13000.00000" pt_clust_9="48.72063"></scales>
<clustering>
<clus scale="   48.721">  1  9  2 -1</clus>
<clus scale="   82.556">  5  6 -1 -1</clus>
<clus scale="   91.240">  1  5  2 -1</clus>
<clus scale="   91.269">  7  8 -1 -1</clus>
<clus scale="   99.193">  2  5  1 -1</clus>
</clustering>
</event>
<event>
 9    1  0.2951046E-005  0.1027017E+03  0.7546771E-02  0.1279829E+00
         -2   -1    0    0    0  501 -0.00000000000E+00  0.00000000000E+00  0.21258454833E+03  0.21258454833E+03  0.00000000000E+00 0.  1.
          1   -1    0    0  502    0  0.00000000000E+00 -0.00000000000E+00 -0.33343817839E+03  0.33343817839E+03  0.00000000000E+00 0. -1.
        -24    2    1    2    0    0  0.18964322511E+02 -0.42959450112E+02  0.18083970641E+03  0.20376494753E+03  0.81314171871E+02 0.  0.
         23    2    1    2    0    0 -0.17275828725E+02 -0.46117940230E-01 -0.27747045253E+03  0.29287075660E+03  0.92113905905E+02 0.  0.
         13    1    3    3    0    0  0.11322824151E+02 -0.66481167143E+02  0.11345267503E+03  0.13198280722E+03  0.00000000000E+00 0. -1.
        -14    1    3    3    0    0  0.76414983600E+01  0.23521717031E+02  0.67387031379E+02  0.71782140308E+02  0.00000000000E+00 0.  1.
        -11    1    4    4    0    0  0.31931063436E+01  0.44378712703E+02 -0.12027151128E+03  0.12823767970E+03  0.00000000000E+00 0.  1.
         11    1    4    4    0    0 -0.20468935069E+02 -0.44424830643E+02 -0.15719894124E+03  0.16463307690E+03  0.00000000000E+00 0. -1.
         21    1    1    2  502  501 -0.16884937856E+01  0.43005568052E+02 -0.24222883938E+02  0.49387022597E+02  0.00000000000E+00 0. -1.
<scales pt_clust_5="13000.00000" pt_clust_6="13000.00000" pt_clust_7="13000.00000" pt_clust_8="13000.00000" pt_clust_9="43.03870"></scales>
<clustering>
<clus scale="   43.039">  2  9  1 -1</clus>
<clus scale="   81.314">  5  6 -1 -1</clus>
<clus scale="   92.114">  7  8 -1 -1</clus>
<clus scale="   93.138">  1  5  2 -1</clus>
<clus scale="   43.039">  2  5  1 -1</clus>
</clustering>
</event>
<event>
 9    1  0.2951046E-005  0.1250672E+03  0.7546771E-02  0.1238383E+00
          3   -1    0    0  502    0  0.00000000000E+00  0.00000000000E+00  0.26856156362E+02  0.26856156362E+02  0.00000000000E+00 0. -1.
         -4   -1    0    0    0  501 -0.00000000000E+00 -0.00000000000E+00 -0.82373642106E+03  0.82373642106E+03  0.00000000000E+00 0.  1.
        -24    2    1    2    0    0  0.68532367293E+02 -0.56321696521E+01 -0.37525994011E+03  0.38967794755E+03  0.79375521728E+02 0.  0.
         23    2    1    2    0    0 -0.95260689564E+02  0.82020933445E+01 -0.21388262456E+03  0.25144873830E+03  0.91317126514E+02 0.  0.
         11    1    3    3    0    0  0.23969071343E+02 -0.33485357605E+02 -0.82141146106E+02  0.91885545319E+02  0.00000000000E+00 0. -1.
        -12    1    3    3    0    0  0.44563295950E+02  0.27853187953E+02 -0.29311879400E+03  0.29779240223E+03  0.00000000000E+00 0.  1.
        -11    1    4    4    0    0  0.13373164517E+01 -0.25921814037E+02 -0.22413082766E+02  0.34293951906E+02  0.00000000000E+00 0.  1.
         11    1    4    4    0    0 -0.96598006016E+02  0.34123907381E+02 -0.19146954179E+03  0.21715478640E+03  0.00000000000E+00 0. -1.
         21    1    1    2  502  501  0.26728322272E+02 -0.25699236924E+01 -0.20773770003E+03  0.20946589157E+03  0.00000000000E+00 0.  1.
<scales pt_clust_5="13000.00000" pt_clust_6="13000.00000" pt_clust_7="13000.00000" pt_clust_8="13000.00000" pt_clust_9="26.85159"></scales>
<clustering>
<clus scale="   26.852">  2  9  1 -1</clus>
<clus scale="   79.376">  5  6 -1 -1</clus>
<clus scale="   91.317">  7  8 -1 -1</clus>
<clus scale="  116.634">  2  5  1 -1</clus>
<clus scale="  125.067">  1  5  2 -1</clus>
</clustering>
</event>
<event>
 9    1  0.2951046E-005  0.1409436E+03  0.7546771E-02  0.1216820E+00
          1   -1    0    0  502    0  0.00000000000E+00  0.00000000000E+00  0.28544606085E+03  0.28544606085E+03  0.00000000000E+00 0. -1.
         -2   -1    0    0    0  501 -0.00000000000E+00 -0.00000000000E+00 -0.22457738435E+03  0.22457738435E+03  0.00000000000E+00 0.  1.
        -24    2    1    2    0    0 -0.95407061207E+02  0.18587224781E+02 -0.12229456303E+03  0.17277249677E+03  0.73799615444E+02 0.  0.
         23    2    1    2    0    0  0.15144892472E+03  0.52711047628E+02  0.89492136350E+02  0.20687299904E+03  0.95248957606E+02 0.  0.
         11    1    3    3    0    0 -0.10596085288E+03  0.15304016090E+02 -0.94277108210E+02  0.14265373596E+03  0.00000000000E+00 0. -1.
        -12    1    3    3    0    0  0.10553791671E+02  0.32832086915E+01 -0.28017454825E+02  0.30118760811E+02  0.00000000000E+00 0.  1.
        -13    1    4    4    0    0  0.68954721904E+02  0.72904859905E+02  0.36574429133E+02  0.10680618492E+03  0.00000000000E+00 0. -1.
         13    1    4    4    0    0  0.82494202812E+02 -0.20193812277E+02  0.52917707217E+02  0.10006681412E+03  0.00000000000E+00 0.  1.
         21    1    1    2  502  501 -0.56041863509E+02 -0.71298272409E+02  0.93671103187E+02  0.13037794939E+03  0.00000000000E+00 0. -1.
<scales pt_clust_5="13000.00000" pt_clust_6="13000.00000" pt_clust_7="13000.00000" pt_clust_8="13000.00000" pt_clust_9="90.68701"></scales>
<clustering>
<clus scale="   73.800">  5  6 -1 -1</clus>
<clus scale="   90.687">  1  9  2 -1</clus>
<clus scale="   95.249">  7  8 -1 -1</clus>
<clus scale="  127.433">  2  5  1 -1</clus>
<clus scale="   90.687">  1  5  2 -1</clus>
</clustering>
</event>
<event>
 9    1  0.2951046E-005  0.9219549E+02  0.7546771E-02  0.1304645E+00
          1   -1    0    0  502    0  0.00000000000E+00  0.00000000000E+00  0.93152421849E+03  0.93152421849E+03  0.00000000000E+00 0. -1.
         -2   -1    0    0    0  501 -0.00000000000E+00 -0.00000000000E+00 -0.22517315425E+02  0.22517315425E+02  0.00000000000E+00 0.  1.
         23    2    1    2    0    0 -0.26656619145E+01 -0.55649755781E+01  0.97887973620E+02  0.13459282935E+03  0.92168864731E+02 0.  0.
        -24    2    1    2    0    0 -0.17171813207E+00 -0.25755850458E+02  0.57578387017E+03  0.58202158945E+03  0.80985629081E+02 0.  0.
         11    1    4    4    0    0  0.26941172009E+02 -0.35030399450E+02  0.18567195473E+03  0.19085866605E+03  0.00000000000E+00 0. -1.
        -12    1    4    4    0    0 -0.27112890141E+02  0.92745489919E+01  0.39011191544E+03  0.39116292340E+03  0.00000000000E+00 0.  1.
        -11    1    3    3    0    0  0.33251772597E+02 -0.13077044498E+02  0.67738912347E+01  0.36367225301E+02  0.00000000000E+00 0.  1.
         11    1    3    3    0    0 -0.35917434512E+02  0.75120689196E+01  0.91114082386E+02  0.98225604047E+02  0.00000000000E+00 0. -1.
         21    1    1    2  502  501  0.28373800466E+01  0.31320826036E+02  0.23533505927E+03  0.23742711512E+03  0.00000000000E+00 0. -1.
<scales pt_clust_5="13000.00000" pt_clust_6="13000.00000" pt_clust_7="13000.00000" pt_clust_8="13000.00000" pt_clust_9="31.44908"></scales>
<clustering>
<clus scale="   31.449">  1  9  2 -1</clus>
<clus scale="   80.986">  5  6 -1 -1</clus>
<clus scale="   81.016">  1  5  2 -1</clus>
<clus scale="   92.169">  7  8 -1 -1</clus>
<clus scale="   31.449">  1  5  2 -1</clus>
</clustering>
</event>
<event>
 9    1  0.2951046E-005  0.1279017E+03  0.7546771E-02  0.1231181E+00
          1   -1    0    0  502    0  0.00000000000E+00  0.00000000000E+00  0.65190994346E+03  0.65190994346E+03  0.00000000000E+00 0. -1.
         -2   -1    0    0    0  501 -0.00000000000E+00 -0.00000000000E+00 -0.10730308434E+03  0.10730308434E+03  0.00000000000E+00 0.  1.
        -24    2    1    2    0    0 -0.45610883355E+02 -0.10766147748E+03 -0.39012564349E+02  0.14788571581E+03  0.81712045325E+02 0.  0.
         23    2    1    2    0    0  0.37023156698E+02  0.87378286815E+02  0.57303906205E+03  0.58689166343E+03  0.84037960653E+02 0.  0.
         11    1    3    3    0    0  0.19332874677E+02 -0.43404153459E+02 -0.29742900266E+02  0.56056406387E+02  0.00000000000E+00 0. -1.
        -12    1    3    3    0    0 -0.64943758032E+02 -0.64257324020E+02 -0.92696640829E+01  0.91829309426E+02  0.00000000000E+00 0.  1.
        -13    1    4    4    0    0  0.60980634561E+02  0.66989206918E+02  0.48531983042E+03  0.49370186291E+03  0.00000000000E+00 0. -1.
         13    1    4    4    0    0 -0.23957477863E+02  0.20389079897E+02  0.87719231623E+02  0.93189800521E+02  0.00000000000E+00 0.  1.
         21    1    1    2  502  501  0.85877266565E+01  0.20283190665E+02  0.10580361423E+02  0.24435648559E+02  0.00000000000E+00 0. -1.
<scales pt_clust_5="13000.00000" pt_clust_6="13000.00000" pt_clust_7="13000.00000" pt_clust_8="13000.00000" pt_clust_9="22.02628"></scales>
<clustering>
<clus scale="   22.026">  2  9  1 -1</clus>
<clus scale="   81.712">  5  6 -1 -1</clus>
<clus scale="   84.038">  7  8 -1 -1</clus>
<clus scale="  126.386">  2  5  1 -1</clus>
<clus scale="  127.902">  1  5  2 -1</clus>
</clustering>
</event>
<event>
 9    1  0.2951046E-005  0.1037345E+03  0.7546771E-02  0.1275379E+00
         -2   -1    0    0    0  501 -0.00000000000E+00  0.00000000000E+00  0.51727231164E+02  0.51727231164E+02  0.00000000000E+00 0.  1.
          1   -1    0    0  502    0  0.00000000000E+00 -0.00000000000E+00 -0.30737017801E+03  0.30737017801E+03  0.00000000000E+00 0. -1.
        -24    2    1    2    0    0 -0.13283526236E+02  0.60592009746E+02 -0.36429575139E+02  0.10768226895E+03  0.80128106099E+02 0.  0.
         23    2    1    2    0    0 -0.52747946047E+01 -0.45137134183E+02 -0.18836720364E+03  0.21223924795E+03  0.86591631363E+02 0.  0.
         13    1    3    3    0    0  0.33311847573E+02  0.33552459959E+02 -0.13833608809E+02  0.49262719075E+02  0.00000000000E+00 0. -1.
        -14    1    3    3    0    0 -0.46595373810E+02  0.27039549788E+02 -0.22595966330E+02  0.58419549875E+02  0.00000000000E+00 0.  1.
        -13    1    4    4    0    0 -0.44147446325E+02 -0.12149726317E+02 -0.73964540279E+02  0.86990609179E+02  0.00000000000E+00 0.  1.
         13    1    4    4    0    0  0.38872651720E+02 -0.32987407866E+02 -0.11440266336E+03  0.12524863877E+03  0.00000000000E+00 0. -1.
         21    1    1    2  502  501  0.18558320841E+02 -0.15454875564E+02 -0.30846168066E+02  0.39175892275E+02  0.00000000000E+00 0. -1.
<scales pt_clust_5="13000.00000" pt_clust_6="13000.00000" pt_clust_7="13000.00000" pt_clust_8="13000.00000" pt_clust_9="24.15087"></scales>
<clustering>
<clus scale="   24.151">  2  9  1 -1</clus>
<clus scale="   80.128">  5  6 -1 -1</clus>
<clus scale="   86.592">  7  8 -1 -1</clus>
<clus scale="   98.403">  1  5  2 -1</clus>
<clus scale="   24.151">  2  5  1 -1</clus>
</clustering>
</event>
<event>
 9    1  0.2951046E-005  0.9570587E+02  0.7546771E-02  0.1294687E+00
         -2   -1    0    0    0  501 -0.00000000000E+00  0.00000000000E+00  0.76225089261E+02  0.76225089261E+02  0.00000000000E+00 0.  1.
          1   -1    0    0  502    0  0.00000000000E+00 -0.00000000000E+00 -0.21793675507E+03  0.21793675507E+03  0.00000000000E+00 0. -1.
         23    2    1    2    0    0  0.69088725101E+01  0.24689743176E+02  0.12706725807E+02  0.95058946904E+02  0.90650022440E+02 0.  0.
        -24    2    1    2    0    0 -0.31601861385E+02 -0.39826012101E+02 -0.12716298268E+03  0.15933220906E+03  0.81434266733E+02 0.  0.
         13    1    4    4    0    0  0.24351841735E+02 -0.10556923097E+02 -0.14665810964E+02  0.30324030610E+02  0.00000000000E+00 0. -1.
        -14    1    4    4    0    0 -0.55953703121E+02 -0.29269089004E+02 -0.11249717171E+03  0.12900817845E+03  0.00000000000E+00 0.  1.
        -11    1    3    3    0    0  0.34540699012E+02  0.20802969870E+02  0.39448954941E+02  0.56409604586E+02  0.00000000000E+00 0.  1.
         11    1    3    3    0    0 -0.27631826502E+02  0.38867733061E+01 -0.26742229134E+02  0.38649342318E+02  0.00000000000E+00 0. -1.
         21    1    1    2  502  501  0.24692988875E+02  0.15136268925E+02 -0.27255408938E+02  0.39770688364E+02  0.00000000000E+00 0.  1.
<scales pt_clust_5="13000.00000" pt_clust_6="13000.00000" pt_clust_7="13000.00000" pt_clust_8="13000.00000" pt_clust_9="28.96291"></scales>
<clustering>
<clus scale="   28.963">  2  9  1 -1</clus>
<clus scale="   81.434">  5  6 -1 -1</clus>
<clus scale="   87.027">  2  5  1 -1</clus>
<clus scale="   90.650">  7  8 -1 -1</clus>
<clus scale="   28.963">  2  5  1 -1</clus>
</clustering>
</event>
<event>
 9    1  0.2951046E-005  0.1248418E+03  0.7546771E-02  0.1237891E+00
          1   -1    0    0  502    0  0.00000000000E+00  0.00000000000E+00  0.70363904730E+02  0.70363904730E+02  0.00000000000E+00 0. -1.
         -2   -1    0    0    0  501 -0.00000000000E+00 -0.00000000000E+00 -0.62744815277E+03  0.62744815277E+03  0.00000000000E+00 0.  1.
         23    2    1    2    0    0  0.32581121834E+02 -0.71470119836E+02 -0.45162639324E+03  0.46720405444E+03  0.90242572435E+02 0.  0.
        -24    2    1    2    0    0 -0.40368420942E+02  0.11608886454E+03 -0.11174357138E+03  0.18488071757E+03  0.81166619394E+02 0.  0.
         11    1    4    4    0    0 -0.47210687499E+02  0.11252703207E+03 -0.66477343157E+02  0.13896193405E+03  0.00000000000E+00 0. -1.
        -12    1    4    4    0    0  0.68422665575E+01  0.35618324662E+01 -0.45266228227E+02  0.45918783521E+02  0.00000000000E+00 0.  1.
        -13    1    3    3    0    0 -0.25066284661E+02  0.30793135676E+01 -0.86373507043E+02  0.89989907866E+02  0.00000000000E+00 0. -1.
         13    1    3    3    0    0  0.57647406495E+02 -0.74549433403E+02 -0.36525288620E+03  0.37721414657E+03  0.00000000000E+00 0.  1.
         21    1    1    2  502  501  0.77872991081E+01 -0.44618744700E+02  0.62857165848E+01  0.45727285498E+02  0.00000000000E+00 0. -1.
<scales pt_clust_5="13000.00000" pt_clust_6="13000.00000" pt_clust_7="13000.00000" pt_clust_8="13000.00000" pt_clust_9="45.29320"></scales>
<clustering>
<clus scale="   45.293">  1  9  2 -1</clus>
<clus scale="   81.167">  5  6 -1 -1</clus>
<clus scale="   90.243">  7  8 -1 -1</clus>
<clus scale="  118.447">  1  5  2 -1</clus>
<clus scale="   45.293">  1  5  2 -1</clus>
</clustering>
</event>
<event>
 9    1  0.2951046E-005  0.9230030E+02  0.7546771E-02  0.1301583E+00
         -2   -1    0    0    0  501 -0.00000000000E+00  0.00000000000E+00  0.38171097104E+02  0.38171097104E+02  0.00000000000E+00 0.  1.
          1   -1    0    0  502    0  0.00000000000E+00 -0.00000000000E+00 -0.58836134218E+03  0.58836134218E+03  0.00000000000E+00 0. -1.
         23    2    1    2    0    0  0.42094949213E+01  0.24545297047E+02 -0.40460076676E+02  0.99734232068E+02  0.87690978937E+02 0.  0.
        -24    2    1    2    0    0  0.19237694085E+02 -0.48470344909E+02 -0.31666666759E+03  0.33085001526E+03  0.80402058574E+02 0.  0.
         13    1    4    4    0    0  0.38856465663E+02  0.43663842232E+00 -0.88127695464E+02  0.96314621345E+02  0.00000000000E+00 0. -1.
        -14    1    4    4    0    0 -0.19618771578E+02 -0.48906983331E+02 -0.22853897213E+03  0.23453539391E+03  0.00000000000E+00 0.  1.
        -13    1    3    3    0    0 -0.24302779046E+02 -0.16099235782E+02  0.81314507116E+01  0.30264351188E+02  0.00000000000E+00 0.  1.
         13    1    3    3    0    0  0.28512273968E+02  0.40644532829E+02 -0.48591527387E+02  0.69469880880E+02  0.00000000000E+00 0. -1.
         21    1    1    2  502  501 -0.23447189006E+02  0.23925047862E+02 -0.19306350081E+03  0.19594819196E+03  0.00000000000E+00 0.  1.
<scales pt_clust_5="13000.00000" pt_clust_6="13000.00000" pt_clust_7="13000.00000" pt_clust_8="13000.00000" pt_clust_9="33.49893"></scales>
<clustering>
<clus scale="   33.499">  2  9  1 -1</clus>
<clus scale="   80.402">  5  6 -1 -1</clus>
<clus scale="   85.406">  2  5  1 -1</clus>
<clus scale="   87.691">  7  8 -1 -1</clus>
<clus scale="   33.499">  2  5  1 -1</clus>
</clustering>
</event>
<event>
 9    1  0.2951046E-005  0.1064017E+03  0.7546771E-02  0.1271054E+00
         -2   -1    0    0    0  501 -0.00000000000E+00  0.00000000000E+00  0.12963797734E+03  0.12963797734E+03  0.00000000000E+00 0.  1.
          1   -1    0    0  502    0  0.00000000000E+00 -0.00000000000E+00 -0.21729447635E+03  0.21729447635E+03  0.00000000000E+00 0. -1.
         23    2    1    2    0    0 -0.78907482154E+01 -0.67249366381E+02  0.78872849612E+02  0.13626464171E+03  0.88104398232E+02 0.  0.
        -24    2    1    2    0    0  0.17928503015E+02  0.24672374100E+02 -0.10105028479E+03  0.13192097335E+03  0.79131699655E+02 0.  0.
         11    1    4    4    0    0 -0.15628234389E+02  0.34060712924E+02 -0.86294076884E+02  0.94079974385E+02  0.00000000000E+00 0. -1.
        -12    1    4    4    0    0  0.33556737404E+02 -0.93883388239E+01 -0.14756207903E+02  0.37840998966E+02  0.00000000000E+00 0.  1.
        -11    1    3    3    0    0  0.33582839405E+02 -0.28909478666E+02  0.70104159415E+01  0.44863247664E+02  0.00000000000E+00 0. -1.
         11    1    3    3    0    0 -0.41473587621E+02 -0.38339887715E+02  0.71862433671E+02  0.91401394044E+02  0.00000000000E+00 0.  1.
         21    1    1    2  502  501 -0.10037754800E+02  0.42576992281E+02 -0.65479063840E+02  0.78746838632E+02  0.00000000000E+00 0. -1.
<scales pt_clust_5="13000.00000" pt_clust_6="13000.00000" pt_clust_7="13000.00000" pt_clust_8="13000.00000" pt_clust_9="43.74422"></scales>
<clustering>
<clus scale="   43.744">  2  9  1 -1</clus>
<clus scale="   79.132">  5  6 -1 -1</clus>
<clus scale="   88.104">  7  8 -1 -1</clus>
<clus scale="   99.100">  2  5  1 -1</clus>
<clus scale="   43.744">  2  5  1 -1</clus>
</clustering>
</event>
<event>
 9    1  0.2951046E-005  0.1344207E+03  0.7546771E-02  0.1233482E+00
         -2   -1    0    0    0  501 -0.00000000000E+00  0.00000000000E+00  0.78702612151E+02  0.78702612151E+02  0.00000000000E+00 0.  1.
          1   -1    0    0  502    0  0.00000000000E+00 -0.00000000000E+00 -0.66959353377E+03  0.66959353377E+03  0.00000000000E+00 0. -1.
        -24    2    1    2    0    0 -0.47465276414E+02  0.87960219212E+02 -0.35237089725E+02  0.13265880055E+03  0.79791930940E+02 0.  0.
         23    2    1    2    0    0 -0.26602950027E+02  0.42311602043E+02 -0.14385010665E+03  0.17741461923E+03  0.91022553878E+02 0.  0.
         11    1    3    3    0    0 -0.56768333301E+02  0.45228887713E+02 -0.48099910753E+02  0.87074091232E+02  0.00000000000E+00 0. -1.
        -12    1    3    3    0    0  0.93030568866E+01  0.42731331499E+02  0.12862821028E+02  0.45584709322E+02  0.00000000000E+00 0.  1.
        -11    1    4    4    0    0 -0.58407595284E+02  0.12254969214E+02 -0.75200304876E+02  0.96003735921E+02  0.00000000000E+00 0. -1.
         11    1    4    4    0    0  0.31804645257E+02  0.30056632829E+02 -0.68649801777E+02  0.81410883308E+02  0.00000000000E+00 0.  1.
         21    1    1    2  502  501  0.74068226441E+02 -0.13027182125E+03 -0.41180372524E+03  0.43822272614E+03  0.00000000000E+00 0. -1.
<scales pt_clust_5="13000.00000" pt_clust_6="13000.00000" pt_clust_7="13000.00000" pt_clust_8="13000.00000" pt_clust_9="108.17662"></scales>
<clustering>
<clus scale="   79.792">  5  6 -1 -1</clus>
<clus scale="   91.023">  7  8 -1 -1</clus>
<clus scale="  103.842">  2  7  1 -1</clus>
<clus scale="  108.177">  2  9  1 -1</clus>
<clus scale="  103.842">  2  5  1 -1</clus>
</clustering>
</event>
<event>
 9    1  0.2951046E-005  0.2503077E+03  0.7546771E-02  0.1149692E+00
         -2   -1    0    0    0  501 -0.00000000000E+00  0.00000000000E+00  0.35750898357E+03  0.35750898357E+03  0.00000000000E+00 0.  1.
          1   -1    0    0  502    0  0.00000000000E+00 -0.00000000000E+00 -0.58151779946E+03  0.58151779946E+03  0.00000000000E+00 0. -1.
        -24    2    1    2    0    0  0.51116795420E+02  0.18012641071E+02  0.18146388310E+03  0.20823255813E+03  0.86569482979E+02 0.  0.
         23    2    1    2    0    0 -0.19610041088E+03  0.13637954464E+03 -0.44670539931E+03  0.51502274547E+03  0.92994425845E+02 0.  0.
         13    1    3    3    0    0  0.17584826474E+02 -0.34040752080E+02  0.50694803497E+02  0.63544960665E+02  0.00000000000E+00 0. -1.
        -14    1    3    3    0    0  0.33531968946E+02  0.52053393151E+02  0.13076907960E+03  0.14468759747E+03  0.00000000000E+00 0.  1.
        -13    1    4    4    0    0 -0.86236724042E+02  0.11513243997E+03 -0.23397965050E+03  0.27466111512E+03  0.00000000000E+00 0.  1.
         13    1    4    4    0    0 -0.10986368684E+03  0.21247104670E+02 -0.21272574880E+03  0.24036163035E+03  0.00000000000E+00 0. -1.
         21    1    1    2  502  501  0.14498361546E+03 -0.15439218571E+03  0.41232700317E+02  0.21577147943E+03  0.00000000000E+00 0.  1.
<scales pt_clust_5="13000.00000" pt_clust_6="13000.00000" pt_clust_7="13000.00000" pt_clust_8="13000.00000" pt_clust_9="232.39183"></scales>
<clustering>
<clus scale="   86.569">  5  6 -1 -1</clus>
<clus scale="   92.994">  7  8 -1 -1</clus>
<clus scale="  102.135">  1  5  2 -1</clus>
<clus scale="  232.392">  1  9  2 -1</clus>
<clus scale="  250.308">  2  5  1 -1</clus>
</clustering>
</event>
<event>
 9    1  0.2951046E-005  0.1766315E+03  0.7546771E-02  0.1172539E+00
          1   -1    0    0  502    0  0.00000000000E+00  0.00000000000E+00  0.95028691831E+03  0.95028691831E+03  0.00000000000E+00 0. -1.
         -2   -1    0    0    0  501 -0.00000000000E+00 -0.00000000000E+00 -0.13101774332E+03  0.13101774332E+03  0.00000000000E+00 0.  1.
         23    2    1    2    0    0  0.13477924203E+03 -0.76489598846E+02 -0.44222757426E+02  0.18546311806E+03  0.91786780490E+02 0.  0.
        -24    2    1    2    0    0 -0.13353939325E+03  0.17766579637E+02  0.41724859837E+03  0.44574928260E+03  0.80297006107E+02 0.  0.
         11    1    4    4    0    0 -0.94754300007E+02  0.45405445225E+02  0.33033016414E+03  0.34663821077E+03  0.00000000000E+00 0. -1.
        -12    1    4    4    0    0 -0.38785093246E+02 -0.27638865588E+02  0.86918434234E+02  0.99111071828E+02  0.00000000000E+00 0.  1.
        -13    1    3    3    0    0  0.51727460787E+02  0.13453805215E+02  0.46388118460E+01  0.53649358333E+02  0.00000000000E+00 0. -1.
         13    1    3    3    0    0  0.83051781239E+02 -0.89943404061E+02 -0.48861569271E+02  0.13181375972E+03  0.00000000000E+00 0.  1.
         21    1    1    2  502  501 -0.12398487726E+01  0.58723019209E+02  0.44624333405E+03  0.45009226098E+03  0.00000000000E+00 0. -1.
<scales pt_clust_5="13000.00000" pt_clust_6="13000.00000" pt_clust_7="13000.00000" pt_clust_8="13000.00000" pt_clust_9="58.73611"></scales>
<clustering>
<clus scale="   58.736">  1  9  2 -1</clus>
<clus scale="   80.297">  5  6 -1 -1</clus>
<clus scale="   91.787">  7  8 -1 -1</clus>
<clus scale="  170.943">  1  5  2 -1</clus>
<clus scale="   58.736">  1  5  2 -1</clus>
</clustering>
</event>
<event>
 9    1  0.2951046E-005  0.1036645E+03  0.7546771E-02  0.1276338E+00
         -2   -1    0    0    0  501 -0.00000000000E+00  0.00000000000E+00  0.22071941087E+02  0.22071941087E+02  0.00000000000E+00 0.  1.
          1   -1    0    0  502    0  0.00000000000E+00 -0.00000000000E+00 -0.81197390331E+03  0.81197390331E+03  0.00000000000E+00 0. -1.
         23    2    1    2    0    0  0.49453926524E+02  0.20254229556E+02 -0.15216654368E+03  0.18460623184E+03  0.89826940030E+02 0.  0.
        -24    2    1    2    0    0 -0.51079774066E+02  0.57379648099E+01 -0.51127972855E+03  0.52033005025E+03  0.81818902502E+02 0.  0.
         11    1    4    4    0    0 -0.20466569977E+02  0.43456575031E+02 -0.25825279014E+03  0.26268204738E+03  0.00000000000E+00 0. -1.
        -12    1    4    4    0    0 -0.30613204089E+02 -0.37718610221E+02 -0.25302693841E+03  0.25764800287E+03  0.00000000000E+00 0.  1.
        -11    1    3    3    0    0  0.52398425874E+01 -0.28095727171E+02 -0.14287890632E+02  0.31952615767E+02  0.00000000000E+00 0.  1.
         11    1    3    3    0    0  0.44214083936E+02  0.48349956727E+02 -0.13787865305E+03  0.15265361608E+03  0.00000000000E+00 0. -1.
         21    1    1    2  502  501  0.16258475425E+01 -0.25992194366E+02 -0.12645568998E+03  0.12910956230E+03  0.00000000000E+00 0. -1.
<scales pt_clust_5="13000.00000" pt_clust_6="13000.00000" pt_clust_7="13000.00000" pt_clust_8="13000.00000" pt_clust_9="26.04299"></scales>
<clustering>
<clus scale="   26.043">  2  9  1 -1</clus>
<clus scale="   81.819">  5  6 -1 -1</clus>
<clus scale="   89.827">  7  8 -1 -1</clus>
<clus scale="   96.808">  2  5  1 -1</clus>
<clus scale="   26.043">  2  5  1 -1</clus>
</clustering>
</event>
<event>
 9    1  0.2951046E-005  0.2024711E+03  0.7546771E-02  0.1152514E+00
          1   -1    0    0  502    0  0.00000000000E+00  0.00000000000E+00  0.21913607758E+03  0.21913607758E+03  0.00000000000E+00 0. -1.
         -2   -1    0    0    0  501 -0.00000000000E+00 -0.00000000000E+00 -0.37153417509E+03  0.37153417509E+03  0.00000000000E+00 0.  1.
        -24    2    1    2    0    0  0.68632979714E+02 -0.12874091549E+03 -0.97861124533E+02  0.19331365021E+03  0.80676256956E+02 0.  0.
         23    2    1    2    0    0 -0.43462789671E+02  0.17680518221E+03 -0.16493385655E+03  0.27434772431E+03  0.12212456860E+03 0.  0.
         11    1    3    3    0    0 -0.13554707064E+02 -0.48109793402E+02 -0.17713314491E+02  0.53028707461E+02  0.00000000000E+00 0. -1.
        -12    1    3    3    0    0  0.82187686778E+02 -0.80631122092E+02 -0.80147810042E+02  0.14028494275E+03  0.00000000000E+00 0.  1.
        -11    1    4    4    0    0 -0.46052840362E+02  0.11669741740E+03 -0.33581528482E+02  0.12987251591E+03  0.00000000000E+00 0. -1.
         11    1    4    4    0    0  0.25900506906E+01  0.60107764807E+02 -0.13135232807E+03  0.14447520840E+03  0.00000000000E+00 0.  1.
         21    1    1    2  502  501 -0.25170190044E+02 -0.48064266717E+02  0.11039688357E+03  0.12300887815E+03  0.00000000000E+00 0. -1.
<scales pt_clust_5="13000.00000" pt_clust_6="13000.00000" pt_clust_7="13000.00000" pt_clust_8="13000.00000" pt_clust_9="54.25599"></scales>
<clustering>
<clus scale="   54.256">  1  9  2 -1</clus>
<clus scale="   80.676">  5  6 -1 -1</clus>
<clus scale="  122.125">  7  8 -1 -1</clus>
<clus scale="  180.524">  2  5  1 -1</clus>
<clus scale="   54.256">  1  5  2 -1</clus>
</clustering>
</event>
<event>
 9    1  0.2951046E-005  0.9601439E+02  0.7546771E-02  0.1294569E+00
         -4   -1    0    0    0  501 -0.00000000000E+00  0.00000000000E+00  0.60388817795E+03  0.60388817795E+03  0.00000000000E+00 0.  1.
          3   -1    0    0  502    0  0.00000000000E+00 -0.00000000000E+00 -0.78543427236E+02  0.78543427236E+02  0.00000000000E+00 0. -1.
        -24    2    1    2    0    0  0.27237050740E+02  0.39355060816E+01  0.52290269187E+03  0.52988155982E+03  0.81178181381E+02 0.  0.
         23    2    1    2    0    0 -0.55364074693E+02  0.13183608174E+02  0.27588946345E+02  0.11111866233E+03  0.91363115461E+02 0.  0.
         13    1    3    3    0    0  0.51790486416E+01 -0.25958029892E+02  0.61102972164E+02  0.66589902148E+02  0.00000000000E+00 0. -1.
        -14    1    3    3    0    0  0.22058002098E+02  0.29893535974E+02  0.46179971970E+03  0.46329165767E+03  0.00000000000E+00 0.  1.
        -11    1    4    4    0    0 -0.30430880520E+02  0.42014131823E+02  0.45500243148E+02  0.69003607794E+02  0.00000000000E+00 0.  1.
         11    1    4    4    0    0 -0.24933194173E+02 -0.28830523649E+02 -0.17911296802E+02  0.42115054537E+02  0.00000000000E+00 0. -1.
         21    1    1    2  502  501  0.28127023954E+02 -0.17119114256E+02 -0.25146887499E+02  0.41431383036E+02  0.00000000000E+00 0. -1.
<scales pt_clust_5="13000.00000" pt_clust_6="13000.00000" pt_clust_7="13000.00000" pt_clust_8="13000.00000" pt_clust_9="32.92709"></scales>
<clustering>
<clus scale="   32.927">  2  9  1 -1</clus>
<clus scale="   81.178">  5  6 -1 -1</clus>
<clus scale="   86.380">  1  5  2 -1</clus>
<clus scale="   91.363">  7  8 -1 -1</clus>
<clus scale="   32.927">  2  5  1 -1</clus>
</clustering>
</event>
<event>
 9    1  0.2951046E-005  0.1590436E+03  0.7546771E-02  0.1218351E+00
          1   -1    0    0  502    0  0.00000000000E+00  0.00000000000E+00  0.26499708181E+03  0.26499708181E+03  0.00000000000E+00 0. -1.
         -2   -1    0    0    0  501 -0.00000000000E+00 -0.00000000000E+00 -0.47436845495E+03  0.47436845495E+03  0.00000000000E+00 0.  1.
         23    2    1    2    0    0  0.41950039859E+02 -0.12381887170E+03 -0.40619396216E+03  0.43651533293E+03  0.91984684365E+02 0.  0.
        -24    2    1    2    0    0 -0.38862974618E+02  0.17070425000E+01  0.20387641824E+02  0.88257288297E+02  0.76553564307E+02 0.  0.
         11    1    4    4    0    0 -0.20987761056E+02  0.38587049959E+02  0.17119166424E+02  0.47143529755E+02  0.00000000000E+00 0. -1.
        -12    1    4    4    0    0 -0.17875213562E+02 -0.36880007459E+02  0.32684754001E+01  0.41113758542E+02  0.00000000000E+00 0.  1.
        -11    1    3    3    0    0  0.52256274507E+02 -0.37433093052E+02 -0.10598517016E+03  0.12395487475E+03  0.00000000000E+00 0. -1.
         11    1    3    3    0    0 -0.10306234648E+02 -0.86385778648E+02 -0.30020879200E+03  0.31256045818E+03  0.00000000000E+00 0.  1.
         21    1    1    2  502  501 -0.30870652408E+01  0.12211182920E+03  0.17643494720E+03  0.21459291553E+03  0.00000000000E+00 0. -1.
<scales pt_clust_5="13000.00000" pt_clust_6="13000.00000" pt_clust_7="13000.00000" pt_clust_8="13000.00000" pt_clust_9="129.74472"></scales>
<clustering>
<clus scale="   76.554">  5  6 -1 -1</clus>
<clus scale="   85.870">  1  5  2 -1</clus>
<clus scale="   91.985">  7  8 -1 -1</clus>
<clus scale="  129.745">  1  9  2 -1</clus>
<clus scale="   85.870">  1  5  2 -1</clus>
</clustering>
</event>
<event>
 9    1  0.2951046E-005  0.1032146E+03  0.7546771E-02  0.1278117E+00
         -2   -1    0    0    0  501 -0.00000000000E+00  0.00000000000E+00  0.18472890018E+03  0.18472890018E+03  0.00000000000E+00 0.  1.
          1   -1    0    0  502    0  0.00000000000E+00 -0.00000000000E+00 -0.25955123881E+03  0.25955123881E+03  0.00000000000E+00 0. -1.
        -24    2    1    2    0    0 -0.37050441917E+02 -0.26437700784E+02  0.10050752272E+03  0.13664391834E+03  0.80610861715E+02 0.  0.
         23    2    1    2    0    0  0.27648622113E+02  0.62303260379E+02  0.14599553729E+02  0.11412158220E+03  0.90357323976E+02 0.  0.
         13    1    3    3    0    0 -0.12414310824E+01  0.20905997871E+02  0.12372678835E+01  0.20979340550E+02  0.00000000000E+00 0. -1.
        -14    1    3    3    0    0 -0.35809010834E+02 -0.47343698655E+02  0.99270254841E+02  0.11566457779E+03  0.00000000000E+00 0.  1.
        -11    1    4    4    0    0  0.60760901675E+02  0.41300639581E+02  0.14625510049E+02  0.74910183195E+02  0.00000000000E+00 0.  1.
         11    1    4    4    0    0 -0.33112279562E+02  0.21002620798E+02 -0.25956320001E-01  0.39211399005E+02  0.00000000000E+00 0. -1.
         21    1    1    2  502  501  0.94018198037E+01 -0.35865559595E+02 -0.18992941508E+03  0.19351463845E+03  0.00000000000E+00 0. -1.
<scales pt_clust_5="13000.00000" pt_clust_6="13000.00000" pt_clust_7="13000.00000" pt_clust_8="13000.00000" pt_clust_9="37.07739"></scales>
<clustering>
<clus scale="   37.077">  2  9  1 -1</clus>
<clus scale="   80.611">  5  6 -1 -1</clus>
<clus scale="   90.357">  7  8 -1 -1</clus>
<clus scale="   94.799">  1  5  2 -1</clus>
<clus scale="   37.077">  2  5  1 -1</clus>
</clustering>
</event>
<event>
 9    1  0.2951046E-005  0.1024274E+03  0.7546771E-02  0.1281466E+00
         -2   -1    0    0    0  501 -0.00000000000E+00  0.00000000000E+00  0.49042918246E+02  0.49042918246E+02  0.00000000000E+00 0.  1.
          1   -1    0    0  502    0  0.00000000000E+00 -0.00000000000E+00 -0.33349716842E+03  0.33349716842E+03  0.00000000000E+00 0. -1.
         23    2    1    2    0    0  0.53798462114E+01 -0.24269361632E+02 -0.35808790926E+02  0.10403791995E+03  0.94465203221E+02 0.  0.
        -24    2    1    2    0    0  0.25749193254E+01  0.43512610529E+02 -0.23726066520E+03  0.25477044832E+03  0.81947425825E+02 0.  0.
         11    1    4    4    0    0  0.42199706143E+02  0.22947230365E+02 -0.12994681703E+03  0.13854084537E+03  0.00000000000E+00 0. -1.
        -12    1    4    4    0    0 -0.39624786817E+02  0.20565380164E+02 -0.10731384817E+03  0.11622960295E+03  0.00000000000E+00 0.  1.
        -13    1    3    3    0    0 -0.35126887095E+01  0.32854446401E+02  0.48005557198E+01  0.33388605324E+02  0.00000000000E+00 0. -1.
         13    1    3    3    0    0  0.88925349208E+01 -0.57123808032E+02 -0.40609346646E+02  0.70649314621E+02  0.00000000000E+00 0.  1.
         21    1    1    2  502  501 -0.79547655367E+01 -0.19243248897E+02 -0.11384794044E+02  0.23731718402E+02  0.00000000000E+00 0. -1.
<scales pt_clust_5="13000.00000" pt_clust_6="13000.00000" pt_clust_7="13000.00000" pt_clust_8="13000.00000" pt_clust_9="20.82261"></scales>
<clustering>
<clus scale="   20.823">  1  9  2 -1</clus>
<clus scale="   81.947">  5  6 -1 -1</clus>
<clus scale="   91.011">  2  5  1 -1</clus>
<clus scale="   94.465">  7  8 -1 -1</clus>
<clus scale="   91.011">  2  5  1 -1</clus>
</clustering>
</event>
<event>
 9    1  0.2951046E-005  0.1535759E+03  0.7546771E-02  0.1198010E+00
          1   -1    0    0  502    0  0.00000000000E+00  0.00000000000E+00  0.49484774752E+03  0.49484774752E+03  0.00000000000E+00 0. -1.
         -2   -1    0    0    0  501 -0.00000000000E+00 -0.00000000000E+00 -0.57081395245E+02  0.57081395245E+02  0.00000000000E+00 0.  1.
        -24    2    1    2    0    0 -0.11405110668E+03 -0.18437322916E+02  0.15670703538E+03  0.21047740489E+03  0.79975328834E+02 0.  0.
         23    2    1    2    0    0  0.13677415999E+03 -0.67633401842E+00  0.23518704451E+03  0.28680803369E+03  0.90764938232E+02 0.  0.
         11    1    3    3    0    0 -0.10128283563E+03 -0.15764416996E+02  0.16555257399E+03  0.19471616367E+03  0.00000000000E+00 0. -1.
        -12    1    3    3    0    0 -0.12768271043E+02 -0.26729059198E+01 -0.88455386166E+01  0.15761241224E+02  0.00000000000E+00 0.  1.
        -11    1    4    4    0    0  0.11052327829E+03 -0.26025487848E+02  0.11667965215E+03  0.16280928195E+03  0.00000000000E+00 0.  1.
         11    1    4    4    0    0  0.26250881707E+02  0.25349153829E+02  0.11850739236E+03  0.12399875174E+03  0.00000000000E+00 0. -1.
         21    1    1    2  502  501 -0.22723053315E+02  0.19113656934E+02  0.45872272384E+02  0.54643704185E+02  0.00000000000E+00 0.  1.
<scales pt_clust_5="13000.00000" pt_clust_6="13000.00000" pt_clust_7="13000.00000" pt_clust_8="13000.00000" pt_clust_9="29.69291"></scales>
<clustering>
<clus scale="   29.693">  1  9  2 -1</clus>
<clus scale="   79.975">  5  6 -1 -1</clus>
<clus scale="   90.765">  7  8 -1 -1</clus>
<clus scale="  147.456">  2  5  1 -1</clus>
<clus scale="   29.693">  1  5  2 -1</clus>
</clustering>
</event>
<event>
 9    1  0.2951046E-005  0.1372583E+03  0.7546771E-02  0.1219347E+00
         -2   -1    0    0    0  501 -0.00000000000E+00  0.00000000000E+00  0.32876708178E+02  0.32876708178E+02  0.00000000000E+00 0.  1.
          1   -1    0    0  502    0  0.00000000000E+00 -0.00000000000E+00 -0.18863445818E+04  0.18863445818E+04  0.00000000000E+00 0. -1.
         23    2    1    2    0    0  0.25490856597E+02 -0.95804141689E+02 -0.14303205459E+03  0.19610756499E+03  0.90397959450E+02 0.  0.
        -24    2    1    2    0    0 -0.26248685346E+02  0.13768510151E+03 -0.14902549981E+04  0.14989838898E+04  0.80290484802E+02 0.  0.
         11    1    4    4    0    0  0.22188439101E+02  0.40637462199E+02 -0.27224442709E+03  0.27615350486E+03  0.00000000000E+00 0. -1.
        -12    1    4    4    0    0 -0.48437124447E+02  0.97047639306E+02 -0.12180105710E+04  0.12228303849E+04  0.00000000000E+00 0.  1.
        -11    1    3    3    0    0  0.57885520977E+02 -0.42809226648E+02 -0.79625851377E+02  0.10734821672E+03  0.00000000000E+00 0. -1.
         11    1    3    3    0    0 -0.32394664380E+02 -0.52994915041E+02 -0.63406203209E+02  0.88759348273E+02  0.00000000000E+00 0.  1.
         21    1    1    2  502  501  0.75782874821E+00 -0.41880959816E+02 -0.22018082095E+03  0.22412983518E+03  0.00000000000E+00 0. -1.
<scales pt_clust_5="13000.00000" pt_clust_6="13000.00000" pt_clust_7="13000.00000" pt_clust_8="13000.00000" pt_clust_9="41.88782"></scales>
<clustering>
<clus scale="   41.888">  2  9  1 -1</clus>
<clus scale="   80.290">  5  6 -1 -1</clus>
<clus scale="   90.398">  7  8 -1 -1</clus>
<clus scale="  130.823">  2  5  1 -1</clus>
<clus scale="   41.888">  2  5  1 -1</clus>
</clustering>
</event>
<event>
 9    1  0.2951046E-005  0.1401667E+03  0.7546771E-02  0.1215590E+00
          1   -1    0    0  502    0  0.00000000000E+00  0.00000000000E+00  0.46992869716E+03  0.46992869716E+03  0.00000000000E+00 0. -1.
         -2   -1    0    0    0  501 -0.00000000000E+00 -0.00000000000E+00 -0.15250581414E+03  0.15250581414E+03  0.00000000000E+00 0.  1.
        -24    2    1    2    0    0 -0.12515117538E+02 -0.10280495532E+03 -0.10156337315E+03  0.16619096328E+03  0.81109990171E+02 0.  0.
         23    2    1    2    0    0  0.15554844109E+02  0.12601853317E+03  0.36987192543E+03  0.40183465518E+03  0.92429567820E+02 0.  0.
         13    1    3    3    0    0  0.26193249034E+02 -0.42588699226E+02 -0.11788140999E+02  0.51369678458E+02  0.00000000000E+00 0. -1.
        -14    1    3    3    0    0 -0.38708366572E+02 -0.60216256092E+02 -0.89775232154E+02  0.11482128482E+03  0.00000000000E+00 0.  1.
        -11    1    4    4    0    0 -0.32467136311E+02  0.16184060273E+02  0.68854424527E+02  0.77826541258E+02  0.00000000000E+00 0.  1.
         11    1    4    4    0    0  0.48021980419E+02  0.10983447290E+03  0.30101750090E+03  0.32400811392E+03  0.00000000000E+00 0. -1.
         21    1    1    2  502  501 -0.30397265707E+01 -0.23213577852E+02  0.49114330757E+02  0.54408892839E+02  0.00000000000E+00 0.  1.
<scales pt_clust_5="13000.00000" pt_clust_6="13000.00000" pt_clust_7="13000.00000" pt_clust_8="13000.00000" pt_clust_9="23.41175"></scales>
<clustering>
<clus scale="   23.412">  1  9  2 -1</clus>
<clus scale="   81.110">  5  6 -1 -1</clus>
<clus scale="   92.430">  7  8 -1 -1</clus>
<clus scale="  132.975">  2  5  1 -1</clus>
<clus scale="   23.412">  1  5  2 -1</clus>
</clustering>
</event>
<event>
 9    1  0.2951046E-005  0.1884142E+03  0.7546771E-02  0.1182944E+00
          1   -1    0    0  502    0  0.00000000000E+00  0.00000000000E+00  0.48477651383E+03  0.48477651383E+03  0.00000000000E+00 0. -1.
         -2   -1    0    0    0  501 -0.00000000000E+00 -0.00000000000E+00 -0.11898883142E+03  0.11898883142E+03  0.00000000000E+00 0.  1.
         23    2    1    2    0    0  0.12923146890E+03 -0.12020561746E+03  0.81774517336E+02  0.21544821583E+03  0.92632062461E+02 0.  0.
        -24    2    1    2    0    0  0.88357001046E+01  0.58460533673E+02  0.96063486737E+02  0.14707020173E+03  0.94370266294E+02 0.  0.
         11    1    4    4    0    0 -0.31802049133E+01 -0.25052805337E+02  0.33886127476E+02  0.42261405488E+02  0.00000000000E+00 0. -1.
        -12    1    4    4    0    0  0.12015905018E+02  0.83513339009E+02  0.62177359261E+02  0.10480879625E+03  0.00000000000E+00 0.  1.
        -13    1    3    3    0    0  0.32333730617E+02 -0.41289640691E+02 -0.18094547331E+02  0.55477177354E+02  0.00000000000E+00 0. -1.
         13    1    3    3    0    0  0.96897738287E+02 -0.78915976770E+02  0.99869064667E+02  0.15997103848E+03  0.00000000000E+00 0.  1.
         21    1    1    2  502  501 -0.13806716901E+03  0.61745083788E+02  0.18794967834E+03  0.24124692768E+03  0.00000000000E+00 0. -1.
<scales pt_clust_5="13000.00000" pt_clust_6="13000.00000" pt_clust_7="13000.00000" pt_clust_8="13000.00000" pt_clust_9="164.07073"></scales>
<clustering>
<clus scale="   92.632">  7  8 -1 -1</clus>
<clus scale="   94.370">  5  6 -1 -1</clus>
<clus scale="  111.362">  1  5  2 -1</clus>
<clus scale="  164.071">  1  9  2 -1</clus>
<clus scale="  111.362">  1  5  2 -1</clus>
</clustering>
</event>
<event>
 9    1  0.2951046E-005  0.1765710E+03  0.7546771E-02  0.1171995E+00
         -2   -1    0    0    0  501 -0.00000000000E+00  0.00000000000E+00  0.42044539536E+03  0.42044539536E+03  0.00000000000E+00 0.  1.
          1   -1    0    0  502    0  0.00000000000E+00 -0.00000000000E+00 -0.10301116571E+03  0.10301116571E+03  0.00000000000E+00 0. -1.
        -24    2    1    2    0    0 -0.43619587006E+02  0.17115493793E+03  0.20273143928E+03  0.28176408688E+03  0.84227566933E+02 0.  0.
         23    2    1    2    0    0  0.93759495293E+01 -0.12402448878E+03  0.90180851489E+02  0.17848463107E+03  0.90852602092E+02 0.  0.
         11    1    3    3    0    0  0.12037631896E+02  0.33816465421E+02  0.75134867211E+01  0.36673020027E+02  0.00000000000E+00 0. -1.
        -12    1    3    3    0    0 -0.55657218902E+02  0.13733847251E+03  0.19521795256E+03  0.24509106685E+03  0.00000000000E+00 0.  1.
        -11    1    4    4    0    0 -0.39673703410E+02 -0.64611269268E+02  0.33790094068E+02  0.83008368950E+02  0.00000000000E+00 0.  1.
         11    1    4    4    0    0  0.49049652939E+02 -0.59413219512E+02  0.56390757421E+02  0.95476262121E+02  0.00000000000E+00 0. -1.
         21    1    1    2  502  501  0.34243637476E+02 -0.47130449154E+02  0.24521938882E+02  0.63207843118E+02  0.00000000000E+00 0. -1.
<scales pt_clust_5="13000.00000" pt_clust_6="13000.00000" pt_clust_7="13000.00000" pt_clust_8="13000.00000" pt_clust_9="58.25724"></scales>
<clustering>
<clus scale="   58.257">  2  9  1 -1</clus>
<clus scale="   84.228">  5  6 -1 -1</clus>
<clus scale="   90.853">  7  8 -1 -1</clus>
<clus scale="  173.255">  1  5  2 -1</clus>
<clus scale="   58.257">  2  5  1 -1</clus>
</clustering>
</event>
<event>
 9    1  0.2951046E-005  0.2211585E+03  0.7546771E-02  0.1133811E+00
          1   -1    0    0  502    0  0.00000000000E+00  0.00000000000E+00  0.28544279415E+03  0.28544279415E+03  0.00000000000E+00 0. -1.
         -2   -1    0    0    0  501 -0.00000000000E+00 -0.00000000000E+00 -0.25072861849E+03  0.25072861849E+03  0.00000000000E+00 0.  1.
        -24    2    1    2    0    0  0.94043631619E+02  0.17283382821E+03 -0.84509310982E+02  0.22848015424E+03  0.79659402581E+02 0.  0.
         23    2    1    2    0    0 -0.11661306335E+03 -0.17743553612E+03  0.51958723167E+02  0.23659200826E+03  0.90521231968E+02 0.  0.
         13    1    3    3    0    0  0.17336430698E+02  0.46592411217E+02  0.13118493646E+02  0.51414973383E+02  0.00000000000E+00 0. -1.
        -14    1    3    3    0    0  0.76707200921E+02  0.12624141699E+03 -0.97627804628E+02  0.17706518086E+03  0.00000000000E+00 0.  1.
        -11    1    4    4    0    0 -0.12581603419E+03 -0.12992544772E+03  0.52042887563E+02  0.18819872096E+03  0.00000000000E+00 0. -1.
         11    1    4    4    0    0  0.92029708393E+01 -0.47510088401E+02 -0.84164396048E-01  0.48393287301E+02  0.00000000000E+00 0.  1.
         21    1    1    2  502  501  0.22569431736E+02  0.46017079105E+01  0.67264763474E+02  0.71099250135E+02  0.00000000000E+00 0.  1.
<scales pt_clust_5="13000.00000" pt_clust_6="13000.00000" pt_clust_7="13000.00000" pt_clust_8="13000.00000" pt_clust_9="23.03378"></scales>
<clustering>
<clus scale="   23.034">  1  9  2 -1</clus>
<clus scale="   79.659">  5  6 -1 -1</clus>
<clus scale="   90.521">  7  8 -1 -1</clus>
<clus scale="  216.939">  2  5  1 -1</clus>
<clus scale="   23.034">  1  5  2 -1</clus>
</clustering>
</event>
<event>
 9    1  0.2951046E-005  0.1109167E+03  0.7546771E-02  0.1263213E+00
         -2   -1    0    0    0  501 -0.00000000000E+00  0.00000000000E+00  0.11799742489E+03  0.11799742489E+03  0.00000000000E+00 0.  1.
          1   -1    0    0  502    0  0.00000000000E+00 -0.00000000000E+00 -0.22527983355E+03  0.22527983355E+03  0.00000000000E+00 0. -1.
        -24    2    1    2    0    0 -0.68908357085E+01 -0.78127777014E+02  0.46402848576E+02  0.12098589473E+03  0.79579703504E+02 0.  0.
         23    2    1    2    0    0 -0.84353952916E+01  0.14248156917E+02 -0.10887228737E+03  0.14276965920E+03  0.90861624239E+02 0.  0.
         13    1    3    3    0    0  0.22657668491E+02 -0.26124146419E+02 -0.12756795291E+02  0.36858876728E+02  0.00000000000E+00 0. -1.
        -14    1    3    3    0    0 -0.29548504200E+02 -0.52003630595E+02  0.59159643866E+02  0.84127018002E+02  0.00000000000E+00 0.  1.
        -11    1    4    4    0    0 -0.13649103789E+02 -0.31193630575E+02 -0.84146791776E+02  0.90774573471E+02  0.00000000000E+00 0.  1.
         11    1    4    4    0    0  0.52137084972E+01  0.45441787493E+02 -0.24725495598E+02  0.51995085724E+02  0.00000000000E+00 0. -1.
         21    1    1    2  502  501  0.15326231000E+02  0.63879620097E+02 -0.44812969864E+02  0.79521704511E+02  0.00000000000E+00 0. -1.
<scales pt_clust_5="13000.00000" pt_clust_6="13000.00000" pt_clust_7="13000.00000" pt_clust_8="13000.00000" pt_clust_9="65.69246"></scales>
<clustering>
<clus scale="   65.692">  2  9  1 -1</clus>
<clus scale="   79.580">  5  6 -1 -1</clus>
<clus scale="   90.862">  7  8 -1 -1</clus>
<clus scale="  101.880">  1  5  2 -1</clus>
<clus scale="   65.692">  2  5  1 -1</clus>
</clustering>
</event>
<event>
 9    1  0.2951046E-005  0.1761335E+03  0.7546771E-02  0.1173036E+00
          1   -1    0    0  502    0  0.00000000000E+00  0.00000000000E+00  0.34066790400E+03  0.34066790400E+03  0.00000000000E+00 0. -1.
         -2   -1    0    0    0  501 -0.00000000000E+00 -0.00000000000E+00 -0.18004392187E+03  0.18004392187E+03  0.00000000000E+00 0.  1.
         23    2    1    2    0    0  0.15334047002E+03  0.83977344866E+02 -0.38088419416E+02  0.20050790752E+03  0.90483142564E+02 0.  0.
        -24    2    1    2    0    0 -0.11931829281E+03  0.15550734243E+02  0.13461860057E+03  0.19703183386E+03  0.78871386449E+02 0.  0.
         13    1    4    4    0    0 -0.11945183377E+03  0.27881135072E+02  0.13760931472E+03  0.18434321735E+03  0.00000000000E+00 0. -1.
        -14    1    4    4    0    0  0.13354095834E+00 -0.12330400829E+02 -0.29907141560E+01  0.12688616511E+02  0.00000000000E+00 0.  1.
        -13    1    3    3    0    0  0.38323228788E+02  0.40919245960E+02  0.26203754110E+02  0.61884499546E+02  0.00000000000E+00 0. -1.
         13    1    3    3    0    0  0.11501724123E+03  0.43058098906E+02 -0.64292173525E+02  0.13862340797E+03  0.00000000000E+00 0.  1.
         21    1    1    2  502  501 -0.34022177202E+02 -0.99528079109E+02  0.64093800981E+02  0.12317208449E+03  0.00000000000E+00 0.  1.
<scales pt_clust_5="13000.00000" pt_clust_6="13000.00000" pt_clust_7="13000.00000" pt_clust_8="13000.00000" pt_clust_9="105.18245"></scales>
<clustering>
<clus scale="   78.871">  5  6 -1 -1</clus>
<clus scale="   90.483">  7  8 -1 -1</clus>
<clus scale="  105.182">  1  9  2 -1</clus>
<clus scale="  170.460">  1  5  2 -1</clus>
<clus scale="  105.182">  1  5  2 -1</clus>
</clustering>
</event>
<event>
 9    1  0.2951046E-005  0.1085837E+03  0.7546771E-02  0.1268556E+00
          3   -1    0    0  502    0  0.00000000000E+00  0.00000000000E+00  0.14547542307E+03  0.14547542307E+03  0.00000000000E+00 0. -1.
         -4   -1    0    0    0  501 -0.00000000000E+00 -0.00000000000E+00 -0.16267308192E+03  0.16267308192E+03  0.00000000000E+00 0.  1.
         23    2    1    2    0    0  0.30802306127E+02  0.51091800665E+02 -0.11019640715E+03  0.15500189614E+03  0.91231494004E+02 0.  0.
        -24    2    1    2    0    0 -0.47303258732E+02 -0.35524150018E+02  0.67509893315E+02  0.11902454983E+03  0.78164533170E+02 0.  0.
         11    1    4    4    0    0 -0.52265636499E+02  0.40747714859E+01  0.57638081927E+02  0.77913086254E+02  0.00000000000E+00 0. -1.
        -12    1    4    4    0    0  0.49623777667E+01 -0.39598921504E+02  0.98718113876E+01  0.41111463577E+02  0.00000000000E+00 0.  1.
        -13    1    3    3    0    0 -0.81749015877E+01  0.59330792930E+02 -0.95123118237E+02  0.11240720452E+03  0.00000000000E+00 0.  1.
         13    1    3    3    0    0  0.38977207715E+02 -0.82389922648E+01 -0.15073288916E+02  0.42594691612E+02  0.00000000000E+00 0. -1.
         21    1    1    2  502  501  0.16500952605E+02 -0.15567650647E+02  0.25488854984E+02  0.34122059023E+02  0.00000000000E+00 0. -1.
<scales pt_clust_5="13000.00000" pt_clust_6="13000.00000" pt_clust_7="13000.00000" pt_clust_8="13000.00000" pt_clust_9="22.68553"></scales>
<clustering>
<clus scale="   22.686">  1  9  2 -1</clus>
<clus scale="   78.165">  5  6 -1 -1</clus>
<clus scale="   91.231">  7  8 -1 -1</clus>
<clus scale="   97.862">  1  5  2 -1</clus>
<clus scale="   22.686">  1  5  2 -1</clus>
</clustering>
</event>
<event>
 9    1  0.2951046E-005  0.1179982E+03  0.7546771E-02  0.1249129E+00
          1   -1    0    0  502    0  0.00000000000E+00  0.00000000000E+00  0.18355682596E+03  0.18355682596E+03  0.00000000000E+00 0. -1.
         -2   -1    0    0    0  501 -0.00000000000E+00 -0.00000000000E+00 -0.17107223719E+03  0.17107223719E+03  0.00000000000E+00 0.  1.
         23    2    1    2    0    0 -0.49164296638E+02 -0.60547973430E+02 -0.62679403938E+02  0.13529360501E+03  0.91062982206E+02 0.  0.
        -24    2    1    2    0    0  0.82476818280E+02  0.13060228562E+02 -0.80255215768E+01  0.11791896393E+03  0.82870247584E+02 0.  0.
         13    1    4    4    0    0  0.45852535559E+02  0.48394458148E+02 -0.22898951639E+01  0.66706238213E+02  0.00000000000E+00 0. -1.
        -14    1    4    4    0    0  0.36624282721E+02 -0.35334229587E+02 -0.57356264129E+01  0.51212725720E+02  0.00000000000E+00 0.  1.
        -11    1    3    3    0    0 -0.76323967377E+02 -0.44365840518E+02 -0.45834418701E+02  0.99470949220E+02  0.00000000000E+00 0. -1.
         11    1    3    3    0    0  0.27159670739E+02 -0.16182132913E+02 -0.16844985237E+02  0.35822655791E+02  0.00000000000E+00 0.  1.
         21    1    1    2  502  501 -0.33312521641E+02  0.47487744869E+02  0.83189514279E+02  0.10141649420E+03  0.00000000000E+00 0. -1.
<scales pt_clust_5="13000.00000" pt_clust_6="13000.00000" pt_clust_7="13000.00000" pt_clust_8="13000.00000" pt_clust_9="58.00698"></scales>
<clustering>
<clus scale="   58.007">  1  9  2 -1</clus>
<clus scale="   82.870">  5  6 -1 -1</clus>
<clus scale="   91.063">  7  8 -1 -1</clus>
<clus scale="  111.797">  1  5  2 -1</clus>
<clus scale="   58.007">  1  5  2 -1</clus>
</clustering>
</event>
<event>
 9    1  0.2951046E-005  0.9949466E+02  0.7546771E-02  0.1288060E+00
          1   -1    0    0  502    0  0.00000000000E+00  0.00000000000E+00  0.22938397078E+03  0.22938397078E+03  0.00000000000E+00 0. -1.
         -2   -1    0    0    0  501 -0.00000000000E+00 -0.00000000000E+00 -0.12409232412E+03  0.12409232412E+03  0.00000000000E+00 0.  1.
        -24    2    1    2    0    0 -0.50832495883E+01 -0.36656886066E+02 -0.83487877600E+02  0.12069077445E+03  0.78907988249E+02 0.  0.
         23    2    1    2    0    0  0.33323758525E+02  0.43362898851E+02  0.14230433622E+03  0.17799099466E+03  0.91866512903E+02 0.  0.
         11    1    3    3    0    0  0.65182104073E+01  0.23666617069E+02 -0.33278978949E+02  0.41353189361E+02  0.00000000000E+00 0. -1.
        -12    1    3    3    0    0 -0.11601459996E+02 -0.60323503135E+02 -0.50208898651E+02  0.79337585092E+02  0.00000000000E+00 0.  1.
        -11    1    4    4    0    0  0.58566681788E+02  0.28503529474E+02  0.13154161607E+03  0.14678455016E+03  0.00000000000E+00 0. -1.
         11    1    4    4    0    0 -0.25242923263E+02  0.14859369377E+02  0.10762720157E+02  0.31206444500E+02  0.00000000000E+00 0.  1.
         21    1    1    2  502  501 -0.28240508937E+02 -0.67060127849E+01  0.46475188042E+02  0.54794525785E+02  0.00000000000E+00 0.  1.
<scales pt_clust_5="13000.00000" pt_clust_6="13000.00000" pt_clust_7="13000.00000" pt_clust_8="13000.00000" pt_clust_9="29.02580"></scales>
<clustering>
<clus scale="   29.026">  1  9  2 -1</clus>
<clus scale="   78.908">  5  6 -1 -1</clus>
<clus scale="   87.671">  2  5  1 -1</clus>
<clus scale="   91.867">  7  8 -1 -1</clus>
<clus scale="   29.026">  1  5  2 -1</clus>
</clustering>
</event>
<event>
 9    1  0.2951046E-005  0.9776770E+02  0.7546771E-02  0.1292287E+00
          3   -1    0    0  502    0  0.00000000000E+00  0.00000000000E+00  0.23001703944E+03  0.23001703944E+03  0.00000000000E+00 0. -1.
         -4   -1    0    0    0  501 -0.00000000000E+00 -0.00000000000E+00 -0.36419878787E+03  0.36419878787E+03  0.00000000000E+00 0.  1.
         23    2    1    2    0    0 -0.23218226470E+02  0.23079963383E+02 -0.33991000750E+03  0.35386518567E+03  0.92790008531E+02 0.  0.
        -24    2    1    2    0    0  0.78698898689E+00 -0.21347637601E+01  0.88026813866E+02  0.11871392020E+03  0.79618454650E+02 0.  0.
         11    1    4    4    0    0  0.24522841904E+02 -0.70325931805E+01 -0.18966387531E+01  0.25581719654E+02  0.00000000000E+00 0. -1.
        -12    1    4    4    0    0 -0.23735852917E+02  0.48978294204E+01  0.89923452620E+02  0.93132200542E+02  0.00000000000E+00 0.  1.
        -13    1    3    3    0    0 -0.52539525246E+02  0.83301153159E+00 -0.26778614161E+03  0.27289286040E+03  0.00000000000E+00 0.  1.
         13    1    3    3    0    0  0.29321298776E+02  0.22246951852E+02 -0.72123865889E+02  0.80972325268E+02  0.00000000000E+00 0. -1.
         21    1    1    2  502  501  0.22431237483E+02 -0.20945199623E+02  0.11770144520E+03  0.12163672145E+03  0.00000000000E+00 0. -1.
<scales pt_clust_5="13000.00000" pt_clust_6="13000.00000" pt_clust_7="13000.00000" pt_clust_8="13000.00000" pt_clust_9="30.68977"></scales>
<clustering>
<clus scale="   30.690">  1  9  2 -1</clus>
<clus scale="   79.618">  5  6 -1 -1</clus>
<clus scale="   85.368">  1  5  2 -1</clus>
<clus scale="   92.790">  7  8 -1 -1</clus>
<clus scale="   30.690">  1  5  2 -1</clus>
</clustering>
</event>
<event>
 9    1  0.2951046E-005  0.1884098E+03  0.7546771E-02  0.1161608E+00
          1   -1    0    0  502    0  0.00000000000E+00  0.00000000000E+00  0.72776068534E+03  0.72776068534E+03  0.00000000000E+00 0. -1.
         -2   -1    0    0    0  501 -0.00000000000E+00 -0.00000000000E+00 -0.19539173552E+03  0.19539173552E+03  0.00000000000E+00 0.  1.
         23    2    1    2    0    0 -0.13565923521E+03  0.10179443411E+03 -0.12874737986E+03  0.23210332271E+03  0.92360866591E+02 0.  0.
        -24    2    1    2    0    0  0.10362329967E+03 -0.48367759004E+02  0.49094636010E+03  0.50983505530E+03  0.76329724065E+02 0.  0.
         13    1    4    4    0    0  0.75522655438E+02  0.17947860456E+00  0.20570802133E+03  0.21913350665E+03  0.00000000000E+00 0. -1.
        -14    1    4    4    0    0  0.28100644229E+02 -0.48547237609E+02  0.28523833877E+03  0.29070154866E+03  0.00000000000E+00 0.  1.
        -11    1    3    3    0    0 -0.56595378678E+02  0.51043588710E+02 -0.11381148436E+03  0.13697276667E+03  0.00000000000E+00 0.  1.
         11    1    3    3    0    0 -0.79063856529E+02  0.50750845399E+02 -0.14935895502E+02  0.95130556040E+02  0.00000000000E+00 0. -1.
         21    1    1    2  502  501  0.32035935540E+02 -0.53426675105E+02  0.17016996959E+03  0.18121404285E+03  0.00000000000E+00 0.  1.
<scales pt_clust_5="13000.00000" pt_clust_6="13000.00000" pt_clust_7="13000.00000" pt_clust_8="13000.00000" pt_clust_9="62.29535"></scales>
<clustering>
<clus scale="   62.295">  1  9  2 -1</clus>
<clus scale="   76.330">  5  6 -1 -1</clus>
<clus scale="   92.361">  7  8 -1 -1</clus>
<clus scale="  181.091">  1  5  2 -1</clus>
<clus scale="   62.295">  1  5  2 -1</clus>
</clustering>
</event>
<event>
 9    1  0.2951046E-005  0.1448385E+03  0.7546771E-02  0.1208896E+00
          1   -1    0    0  502    0  0.00000000000E+00  0.00000000000E+00  0.99159118230E+02  0.99159118230E+02  0.00000000000E+00 0. -1.
         -2   -1    0    0    0  501 -0.00000000000E+00 -0.00000000000E+00 -0.38099853923E+03  0.38099853923E+03  0.00000000000E+00 0.  1.
         23    2    1    2    0    0  0.65582727384E+01 -0.10845867570E+03 -0.26085467808E+03  0.29674517887E+03  0.90588315085E+02 0.  0.
        -24    2    1    2    0    0 -0.24746857448E+02  0.12641252746E+03 -0.32272031307E+02  0.15547382641E+03  0.80858472921E+02 0.  0.
         11    1    4    4    0    0 -0.16796654957E+02  0.13744651165E+03 -0.28686018390E+02  0.14140918936E+03  0.00000000000E+00 0. -1.
        -12    1    4    4    0    0 -0.79502024909E+01 -0.11033984196E+02 -0.35860129170E+01  0.14064637056E+02  0.00000000000E+00 0.  1.
        -11    1    3    3    0    0 -0.39781442540E+02 -0.72857223134E+02 -0.15545262925E+03  0.17622785840E+03  0.00000000000E+00 0.  1.
         11    1    3    3    0    0  0.46339715279E+02 -0.35601452565E+02 -0.10540204882E+03  0.12051732047E+03  0.00000000000E+00 0. -1.
         21    1    1    2  502  501  0.18188584710E+02 -0.17953851759E+02  0.11287288382E+02  0.27938652182E+02  0.00000000000E+00 0. -1.
<scales pt_clust_5="13000.00000" pt_clust_6="13000.00000" pt_clust_7="13000.00000" pt_clust_8="13000.00000" pt_clust_9="25.55710"></scales>
<clustering>
<clus scale="   25.557">  1  9  2 -1</clus>
<clus scale="   80.858">  5  6 -1 -1</clus>
<clus scale="   90.588">  7  8 -1 -1</clus>
<clus scale="  138.961">  1  5  2 -1</clus>
<clus scale="   25.557">  1  5  2 -1</clus>
</clustering>
</event>
<event>
 9    1  0.2951046E-005  0.1306684E+03  0.7546771E-02  0.1229467E+00
          1   -1    0    0  502    0  0.00000000000E+00  0.00000000000E+00  0.39700341154E+03  0.39700341154E+03  0.00000000000E+00 0. -1.
         -2   -1    0    0    0  501 -0.00000000000E+00 -0.00000000000E+00 -0.57966951575E+02  0.57966951575E+02  0.00000000000E+00 0.  1.
         23    2    1    2    0    0  0.17163420865E+02 -0.98859146576E+02  0.66246115963E+02  0.15085220364E+03  0.91105025020E+02 0.  0.
        -24    2    1    2    0    0 -0.83744561255E+01  0.78220964258E+02  0.23357263751E+03  0.25893841874E+03  0.79399476967E+02 0.  0.
         11    1    4    4    0    0  0.30551706230E+02  0.62860529470E+02  0.14911790362E+03  0.16468455331E+03  0.00000000000E+00 0. -1.
        -12    1    4    4    0    0 -0.38926162355E+02  0.15360434788E+02  0.84454733884E+02  0.94253865428E+02  0.00000000000E+00 0.  1.
        -11    1    3    3    0    0  0.52446775726E+02 -0.63520915414E+02  0.25002558737E+02  0.86085416433E+02  0.00000000000E+00 0.  1.
         11    1    3    3    0    0 -0.35283354861E+02 -0.35338231162E+02  0.41243557226E+02  0.64766787202E+02  0.00000000000E+00 0. -1.
         21    1    1    2  502  501 -0.87889647395E+01  0.20638182318E+02  0.39217706498E+02  0.45179740742E+02  0.00000000000E+00 0. -1.
<scales pt_clust_5="13000.00000" pt_clust_6="13000.00000" pt_clust_7="13000.00000" pt_clust_8="13000.00000" pt_clust_9="22.43168"></scales>
<clustering>
<clus scale="   22.432">  1  9  2 -1</clus>
<clus scale="   79.399">  5  6 -1 -1</clus>
<clus scale="   91.105">  7  8 -1 -1</clus>
<clus scale="  122.794">  1  5  2 -1</clus>
<clus scale="   22.432">  1  5  2 -1</clus>
</clustering>
</event>
<event>
 9    1  0.2951046E-005  0.1145104E+03  0.7546771E-02  0.1256549E+00
         -4   -1    0    0    0  501 -0.00000000000E+00  0.00000000000E+00  0.15604555000E+03  0.15604555000E+03  0.00000000000E+00 0.  1.
          3   -1    0    0  502    0  0.00000000000E+00 -0.00000000000E+00 -0.16112838879E+03  0.16112838879E+03  0.00000000000E+00 0. -1.
        -24    2    1    2    0    0  0.66596505347E+01  0.63118572065E+02  0.83051877135E+02  0.13168280373E+03  0.80090208010E+02 0.  0.
         23    2    1    2    0    0 -0.15058042249E+02 -0.86919476168E+02 -0.43825896019E+02  0.13449812043E+03  0.91582177654E+02 0.  0.
         11    1    3    3    0    0  0.93782876993E+01  0.78869759982E+02  0.47107107142E+02  0.92344306068E+02  0.00000000000E+00 0. -1.
        -12    1    3    3    0    0 -0.27186371646E+01 -0.15751187917E+02  0.35944769993E+02  0.39338497667E+02  0.00000000000E+00 0.  1.
        -11    1    4    4    0    0  0.25232645495E+02 -0.82789751684E+02 -0.32402666071E+02  0.92416243979E+02  0.00000000000E+00 0.  1.
         11    1    4    4    0    0 -0.40290687745E+02 -0.41297244833E+01 -0.11423229948E+02  0.42081876452E+02  0.00000000000E+00 0. -1.
         21    1    1    2  502  501  0.83983917146E+01  0.23800904103E+02 -0.44308819904E+02  0.50993014627E+02  0.00000000000E+00 0. -1.
<scales pt_clust_5="13000.00000" pt_clust_6="13000.00000" pt_clust_7="13000.00000" pt_clust_8="13000.00000" pt_clust_9="25.23918"></scales>
<clustering>
<clus scale="   25.239">  2  9  1 -1</clus>
<clus scale="   80.090">  5  6 -1 -1</clus>
<clus scale="   91.582">  7  8 -1 -1</clus>
<clus scale="  105.545">  1  5  2 -1</clus>
<clus scale="   25.239">  2  5  1 -1</clus>
</clustering>
</event>
<event>
 9    1  0.2951046E-005  0.1014915E+03  0.7546771E-02  0.1287715E+00
          1   -1    0    0  502    0  0.00000000000E+00  0.00000000000E+00  0.22342416342E+03  0.22342416342E+03  0.00000000000E+00 0. -1.
         -2   -1    0    0    0  501 -0.00000000000E+00 -0.00000000000E+00 -0.67681620372E+02  0.67681620372E+02  0.00000000000E+00 0.  1.
         23    2    1    2    0    0  0.35219425779E+02 -0.21618336738E+02  0.38978265256E+01  0.99617431312E+02  0.90557601194E+02 0.  0.
        -24    2    1    2    0    0 -0.58014969692E+02  0.15777082381E+02  0.13156816677E+03  0.16042558466E+03  0.69365212247E+02 0.  0.
         13    1    4    4    0    0 -0.70795087520E+02  0.69688101916E+01  0.12445640608E+03  0.14335238313E+03  0.00000000000E+00 0. -1.
        -14    1    4    4    0    0  0.12780117828E+02  0.88082721890E+01  0.71117606864E+01  0.17073201537E+02  0.00000000000E+00 0.  1.
        -11    1    3    3    0    0 -0.22905898670E+02  0.16307529860E+02  0.10239376364E+02  0.29924246897E+02  0.00000000000E+00 0. -1.
         11    1    3    3    0    0  0.58125324449E+02 -0.37925866598E+02 -0.63415498388E+01  0.69693184415E+02  0.00000000000E+00 0.  1.
         21    1    1    2  502  501  0.22795543912E+02  0.58412543574E+01  0.20276549756E+02  0.31062767822E+02  0.00000000000E+00 0.  1.
<scales pt_clust_5="13000.00000" pt_clust_6="13000.00000" pt_clust_7="13000.00000" pt_clust_8="13000.00000" pt_clust_9="23.53204"></scales>
<clustering>
<clus scale="   23.532">  1  9  2 -1</clus>
<clus scale="   69.365">  5  6 -1 -1</clus>
<clus scale="   83.135">  1  5  2 -1</clus>
<clus scale="   90.558">  7  8 -1 -1</clus>
<clus scale="   23.532">  1  5  2 -1</clus>
</clustering>
</event>
<event>
 9    1  0.2951046E-005  0.2067555E+03  0.7546771E-02  0.1144859E+00
         -2   -1    0    0    0  501 -0.00000000000E+00  0.00000000000E+00  0.13557237974E+03  0.13557237974E+03  0.00000000000E+00 0.  1.
          1   -1    0    0  502    0  0.00000000000E+00 -0.00000000000E+00 -0.50420962987E+03  0.50420962987E+03  0.00000000000E+00 0. -1.
        -24    2    1    2    0    0  0.19684441001E+03 -0.21414699134E+01 -0.89994733002E+02  0.23146526449E+03  0.82004933095E+02 0.  0.
         23    2    1    2    0    0 -0.16904288848E+03  0.62012077639E+02 -0.11507021808E+03  0.23192708758E+03  0.90155548601E+02 0.  0.
         11    1    3    3    0    0  0.14425747170E+03  0.62975513774E+01 -0.10210219385E+03  0.17684664340E+03  0.00000000000E+00 0. -1.
        -12    1    3    3    0    0  0.52586938319E+02 -0.84390212907E+01  0.12107460845E+02  0.54618621094E+02  0.00000000000E+00 0.  1.
        -13    1    4    4    0    0 -0.64243757942E+02  0.65757730701E+02 -0.29406959575E+02  0.96519991986E+02  0.00000000000E+00 0.  1.
         13    1    4    4    0    0 -0.10479913054E+03 -0.37456530615E+01 -0.85663258507E+02  0.13540709559E+03  0.00000000000E+00 0. -1.
         21    1    1    2  502  501 -0.27801521530E+02 -0.59870607726E+02 -0.16357229905E+03  0.17638965754E+03  0.00000000000E+00 0. -1.
<scales pt_clust_5="13000.00000" pt_clust_6="13000.00000" pt_clust_7="13000.00000" pt_clust_8="13000.00000" pt_clust_9="66.01071"></scales>
<clustering>
<clus scale="   66.011">  2  9  1 -1</clus>
<clus scale="   82.005">  5  6 -1 -1</clus>
<clus scale="   90.156">  7  8 -1 -1</clus>
<clus scale="  203.334">  1  5  2 -1</clus>
<clus scale="   66.011">  2  5  1 -1</clus>
</clustering>
</event>
<event>
 9    1  0.2951046E-005  0.1967393E+03  0.7546771E-02  0.1153395E+00
         -2   -1    0    0    0  501 -0.00000000000E+00  0.00000000000E+00  0.60422711823E+03  0.60422711823E+03  0.00000000000E+00 0.  1.
          1   -1    0    0  502    0  0.00000000000E+00 -0.00000000000E+00 -0.88088512116E+02  0.88088512116E+02  0.00000000000E+00 0. -1.
        -24    2    1    2    0    0 -0.73274507434E+02  0.15412935699E+03  0.38085024491E+03  0.42519241514E+03  0.81342908197E+02 0.  0.
         23    2    1    2    0    0  0.94763805405E+02 -0.15963026189E+03  0.13094020753E+03  0.24451887221E+03  0.90455191065E+02 0.  0.
         13    1    3    3    0    0  0.11026570825E+01  0.44934045905E+02  0.42082536606E+02  0.61572917921E+02  0.00000000000E+00 0. -1.
        -14    1    3    3    0    0 -0.74377164516E+02  0.10919531109E+03  0.33876770831E+03  0.36361949722E+03  0.00000000000E+00 0.  1.
        -13    1    4    4    0    0  0.45669747527E+02 -0.12806452601E+03  0.12694796494E+03  0.18601622097E+03  0.00000000000E+00 0.  1.
         13    1    4    4    0    0  0.49094057878E+02 -0.31565735881E+02  0.39922425866E+01  0.58502651235E+02  0.00000000000E+00 0. -1.
         21    1    1    2  502  501 -0.21489297971E+02  0.55009049033E+01  0.43481536705E+01  0.22604342998E+02  0.00000000000E+00 0.  1.
<scales pt_clust_5="13000.00000" pt_clust_6="13000.00000" pt_clust_7="13000.00000" pt_clust_8="13000.00000" pt_clust_9="22.18220"></scales>
<clustering>
<clus scale="   22.182">  2  9  1 -1</clus>
<clus scale="   81.343">  5  6 -1 -1</clus>
<clus scale="   90.455">  7  8 -1 -1</clus>
<clus scale="  192.720">  1  5  2 -1</clus>
<clus scale="   22.182">  2  5  1 -1</clus>
</clustering>
</event>
<event>
 9    1  0.2951046E-005  0.9208102E+02  0.7546771E-02  0.1307486E+00
         -2   -1    0    0    0  501 -0.00000000000E+00  0.00000000000E+00  0.17846596875E+03  0.17846596875E+03  0.00000000000E+00 0.  1.
          1   -1    0    0  502    0  0.00000000000E+00 -0.00000000000E+00 -0.11769859527E+03  0.11769859527E+03  0.00000000000E+00 0. -1.
        -24    2    1    2    0    0 -0.84922104170E+01 -0.58360210313E+02  0.60426520612E+02  0.11318749983E+03  0.75379134634E+02 0.  0.
         23    2    1    2    0    0 -0.39319352479E+01  0.42491378403E+01 -0.53751030738E+02  0.10546384318E+03  0.90553484885E+02 0.  0.
         11    1    3    3    0    0 -0.34810919769E+02 -0.63054091217E+01  0.11943385969E+02  0.37339024997E+02  0.00000000000E+00 0. -1.
        -12    1    3    3    0    0  0.26318709352E+02 -0.52054801191E+02  0.48483134643E+02  0.75848474829E+02  0.00000000000E+00 0.  1.
        -11    1    4    4    0    0 -0.55098984985E+01 -0.21850489906E+02 -0.70766379923E+02  0.74267647183E+02  0.00000000000E+00 0.  1.
         11    1    4    4    0    0  0.15779632507E+01  0.26099627747E+02  0.17015349185E+02  0.31196195993E+02  0.00000000000E+00 0. -1.
         21    1    1    2  502  501  0.12424145665E+02  0.54111072473E+02  0.54091883612E+02  0.77513221016E+02  0.00000000000E+00 0. -1.
<scales pt_clust_5="13000.00000" pt_clust_6="13000.00000" pt_clust_7="13000.00000" pt_clust_8="13000.00000" pt_clust_9="55.51907"></scales>
<clustering>
<clus scale="   55.519">  1  9  2 -1</clus>
<clus scale="   75.379">  5  6 -1 -1</clus>
<clus scale="   77.207">  1  5  2 -1</clus>
<clus scale="   90.553">  7  8 -1 -1</clus>
<clus scale="   92.081">  2  5  1 -1</clus>
</clustering>
</event>
<event>
 9    1  0.2951046E-005  0.1174802E+03  0.7546771E-02  0.1251474E+00
         -2   -1    0    0    0  501 -0.00000000000E+00  0.00000000000E+00  0.28525341338E+03  0.28525341338E+03  0.00000000000E+00 0.  1.
          1   -1    0    0  502    0  0.00000000000E+00 -0.00000000000E+00 -0.82763375068E+02  0.82763375068E+02  0.00000000000E+00 0. -1.
        -24    2    1    2    0    0  0.18275721226E+02 -0.62793270397E+02  0.16491178285E+03  0.19462955135E+03  0.80048543668E+02 0.  0.
         23    2    1    2    0    0 -0.36965441139E+02  0.90865739249E+02  0.36829788507E+02  0.13965402882E+03  0.92324363174E+02 0.  0.
         13    1    3    3    0    0  0.65558145607E+01  0.19290327694E+02  0.29609550113E+02  0.35941910147E+02  0.00000000000E+00 0. -1.
        -14    1    3    3    0    0  0.11719906666E+02 -0.82083598091E+02  0.13530223274E+03  0.15868764121E+03  0.00000000000E+00 0.  1.
        -11    1    4    4    0    0  0.23429200061E+02  0.21783956769E+01  0.20326084018E+02  0.31093769710E+02  0.00000000000E+00 0.  1.
         11    1    4    4    0    0 -0.60394641200E+02  0.88687343572E+02  0.16503704489E+02  0.10856025911E+03  0.00000000000E+00 0. -1.
         21    1    1    2  502  501  0.18689719913E+02 -0.28072468853E+02  0.74846695356E+00  0.33733208277E+02  0.00000000000E+00 0. -1.
<scales pt_clust_5="13000.00000" pt_clust_6="13000.00000" pt_clust_7="13000.00000" pt_clust_8="13000.00000" pt_clust_9="33.72490"></scales>
<clustering>
<clus scale="   33.725">  2  9  1 -1</clus>
<clus scale="   80.049">  5  6 -1 -1</clus>
<clus scale="   92.324">  7  8 -1 -1</clus>
<clus scale="  108.100">  1  5  2 -1</clus>
<clus scale="   33.725">  2  5  1 -1</clus>
</clustering>
</event>
<event>
 9    1  0.2951046E-005  0.1504669E+03  0.7546771E-02  0.1219752E+00
          1   -1    0    0  502    0  0.00000000000E+00  0.00000000000E+00  0.23747407915E+03  0.23747407915E+03  0.00000000000E+00 0. -1.
         -2   -1    0    0    0  501 -0.00000000000E+00 -0.00000000000E+00 -0.19126683644E+03  0.19126683644E+03  0.00000000000E+00 0.  1.
         23    2    1    2    0    0 -0.60561031254E+01  0.29718068420E+02 -0.24512781335E+02  0.10146923759E+03  0.93676516552E+02 0.  0.
        -24    2    1    2    0    0  0.69659972239E+02 -0.11589041775E+03  0.13059482402E+03  0.20456830548E+03  0.80685084652E+02 0.  0.
         11    1    4    4    0    0  0.75496933611E+02 -0.12341680959E+03  0.10956689513E+03  0.18148388463E+03  0.00000000000E+00 0. -1.
        -12    1    4    4    0    0 -0.58369613724E+01  0.75263918360E+01  0.21027928894E+02  0.23084420844E+02  0.00000000000E+00 0.  1.
        -13    1    3    3    0    0 -0.16236711464E+02 -0.27381953667E+02  0.10738614137E+02  0.33596428669E+02  0.00000000000E+00 0.  1.
         13    1    3    3    0    0  0.10180608338E+02  0.57100022087E+02 -0.35251395472E+02  0.67872808924E+02  0.00000000000E+00 0. -1.
         21    1    1    2  502  501 -0.63603869113E+02  0.86172349330E+02 -0.59874799984E+02  0.12270337252E+03  0.00000000000E+00 0.  1.
<scales pt_clust_5="13000.00000" pt_clust_6="13000.00000" pt_clust_7="13000.00000" pt_clust_8="13000.00000" pt_clust_9="127.00473"></scales>
<clustering>
<clus scale="   80.685">  5  6 -1 -1</clus>
<clus scale="   93.677">  7  8 -1 -1</clus>
<clus scale="   98.464">  2  7  1 -1</clus>
<clus scale="  127.005">  2  9  1 -1</clus>
<clus scale="  150.467">  1  5  2 -1</clus>
</clustering>
</event>
<event>
 9    1  0.2951046E-005  0.2004399E+03  0.7546771E-02  0.1150157E+00
          1   -1    0    0  502    0  0.00000000000E+00  0.00000000000E+00  0.43925569057E+03  0.43925569057E+03  0.00000000000E+00 0. -1.
         -2   -1    0    0    0  501 -0.00000000000E+00 -0.00000000000E+00 -0.16684822049E+03  0.16684822049E+03  0.00000000000E+00 0.  1.
         23    2    1    2    0    0 -0.51346393701E+02  0.16921239018E+03 -0.42952506393E+02  0.20263441528E+03  0.89143161906E+02 0.  0.
        -24    2    1    2    0    0  0.92788037870E+02 -0.16947755234E+03  0.27535935043E+03  0.34587149002E+03  0.80449083423E+02 0.  0.
         13    1    4    4    0    0  0.88735652000E+01 -0.76059218944E+02  0.15010813646E+03  0.16851171347E+03  0.00000000000E+00 0. -1.
        -14    1    4    4    0    0  0.83914472670E+02 -0.93418333396E+02  0.12525121397E+03  0.17735977655E+03  0.00000000000E+00 0.  1.
        -11    1    3    3    0    0 -0.32020008345E+02  0.17489420039E+03 -0.40355511059E+02  0.18232342016E+03  0.00000000000E+00 0. -1.
         11    1    3    3    0    0 -0.19326385356E+02 -0.56818102101E+01 -0.25969953338E+01  0.20310995125E+02  0.00000000000E+00 0.  1.
         21    1    1    2  502  501 -0.41441644169E+02  0.26516215578E+00  0.40000626046E+02  0.57598005751E+02  0.00000000000E+00 0.  1.
<scales pt_clust_5="13000.00000" pt_clust_6="13000.00000" pt_clust_7="13000.00000" pt_clust_8="13000.00000" pt_clust_9="41.44249"></scales>
<clustering>
<clus scale="   41.442">  1  9  2 -1</clus>
<clus scale="   80.449">  5  6 -1 -1</clus>
<clus scale="   89.143">  7  8 -1 -1</clus>
<clus scale="  196.728">  1  5  2 -1</clus>
<clus scale="   41.442">  1  5  2 -1</clus>
</clustering>
</event>
<event>
 9    1  0.2951046E-005  0.9162093E+02  0.7546771E-02  0.1305234E+00
         -2   -1    0    0    0  501 -0.00000000000E+00  0.00000000000E+00  0.22626646952E+03  0.22626646952E+03  0.00000000000E+00 0.  1.
          1   -1    0    0  502    0  0.00000000000E+00 -0.00000000000E+00 -0.75352822472E+02  0.75352822472E+02  0.00000000000E+00 0. -1.
        -24    2    1    2    0    0 -0.78318547093E+01 -0.32768195362E+01  0.16052348903E+03  0.17992491971E+03  0.80827660527E+02 0.  0.
         23    2    1    2    0    0  0.30208657928E+02  0.63568238822E+01 -0.17903964526E+02  0.97631948925E+02  0.90876142532E+02 0.  0.
         11    1    3    3    0    0  0.73388341591E+01 -0.40278500841E+02  0.89413470775E+02  0.98341165708E+02  0.00000000000E+00 0. -1.
        -12    1    3    3    0    0 -0.15170688868E+02  0.37001681304E+02  0.71110018260E+02  0.81583754002E+02  0.00000000000E+00 0.  1.
        -13    1    4    4    0    0 -0.26696938208E+02  0.10941719367E+02  0.14175449805E+02  0.32146401191E+02  0.00000000000E+00 0.  1.
         13    1    4    4    0    0  0.56905596136E+02 -0.45848954847E+01 -0.32079414330E+02  0.65485547734E+02  0.00000000000E+00 0. -1.
         21    1    1    2  502  501 -0.22376803219E+02 -0.30800043461E+01  0.82941225377E+01  0.24062423355E+02  0.00000000000E+00 0.  1.
<scales pt_clust_5="13000.00000" pt_clust_6="13000.00000" pt_clust_7="13000.00000" pt_clust_8="13000.00000" pt_clust_9="22.58778"></scales>
<clustering>
<clus scale="   22.588">  2  9  1 -1</clus>
<clus scale="   80.828">  5  6 -1 -1</clus>
<clus scale="   81.664">  1  5  2 -1</clus>
<clus scale="   90.876">  7  8 -1 -1</clus>
<clus scale="   22.588">  2  5  1 -1</clus>
</clustering>
</event>
<event>
 9    1  0.2951046E-005  0.1518122E+03  0.7546771E-02  0.1200207E+00
         -2   -1    0    0    0  501 -0.00000000000E+00  0.00000000000E+00  0.16351726179E+03  0.16351726179E+03  0.00000000000E+00 0.  1.
          1   -1    0    0  502    0  0.00000000000E+00 -0.00000000000E+00 -0.18855378140E+03  0.18855378140E+03  0.00000000000E+00 0. -1.
         23    2    1    2    0    0 -0.27318059459E+02  0.10884056373E+03  0.17135130324E+02  0.14513284347E+03  0.90428894037E+02 0.  0.
        -24    2    1    2    0    0  0.66219658087E+02 -0.12111799685E+03 -0.20007795321E+02  0.16051292437E+03  0.79432202136E+02 0.  0.
         13    1    4    4    0    0  0.56447678675E+02 -0.73561094994E+02 -0.48062761290E+02  0.10443947600E+03  0.00000000000E+00 0. -1.
        -14    1    4    4    0    0  0.97719794116E+01 -0.47556901861E+02  0.28054965969E+02  0.56073448367E+02  0.00000000000E+00 0.  1.
        -13    1    3    3    0    0  0.17762740680E+02  0.26139677912E+02 -0.26577861040E+02  0.41293830232E+02  0.00000000000E+00 0. -1.
         13    1    3    3    0    0 -0.45080800139E+02  0.82700885821E+02  0.43712991364E+02  0.10383901324E+03  0.00000000000E+00 0.  1.
         21    1    1    2  502  501 -0.38901598628E+02  0.12277433122E+02 -0.22163854616E+02  0.46425275349E+02  0.00000000000E+00 0.  1.
<scales pt_clust_5="13000.00000" pt_clust_6="13000.00000" pt_clust_7="13000.00000" pt_clust_8="13000.00000" pt_clust_9="40.79301"></scales>
<clustering>
<clus scale="   40.793">  2  9  1 -1</clus>
<clus scale="   79.432">  5  6 -1 -1</clus>
<clus scale="   90.429">  7  8 -1 -1</clus>
<clus scale="  145.530">  2  5  1 -1</clus>
<clus scale="   40.793">  2  5  1 -1</clus>
</clustering>
</event>
<event>
 9    1  0.2951046E-005  0.1466372E+03  0.7546771E-02  0.1209035E+00
         -2   -1    0    0    0  501 -0.00000000000E+00  0.00000000000E+00  0.51980000961E+02  0.51980000961E+02  0.00000000000E+00 0.  1.
          1   -1    0    0  502    0  0.00000000000E+00 -0.00000000000E+00 -0.55461044267E+03  0.55461044267E+03  0.00000000000E+00 0. -1.
        -24    2    1    2    0    0 -0.11003464803E+03  0.77692188961E+01 -0.91923193515E+02  0.16164009826E+03  0.74227106426E+02 0.  0.
         23    2    1    2    0    0  0.11348670387E+03  0.12234976139E+02 -0.33682319125E+03  0.36832829647E+03  0.95848553549E+02 0.  0.
         13    1    3    3    0    0 -0.77046967512E+02  0.39983647634E+02 -0.62032280055E+02  0.10669081989E+03  0.00000000000E+00 0. -1.
        -14    1    3    3    0    0 -0.32987680519E+02 -0.32214428738E+02 -0.29890913459E+02  0.54949278361E+02  0.00000000000E+00 0.  1.
        -13    1    4    4    0    0  0.88334034904E+02  0.12452019456E+02 -0.33058913076E+03  0.34241367947E+03  0.00000000000E+00 0. -1.
         13    1    4    4    0    0  0.25152668970E+02 -0.21704331683E+00 -0.62340604946E+01  0.25914617003E+02  0.00000000000E+00 0.  1.
         21    1    1    2  502  501 -0.34520558429E+01 -0.20004195035E+02 -0.73884056944E+02  0.76622048909E+02  0.00000000000E+00 0. -1.
<scales pt_clust_5="13000.00000" pt_clust_6="13000.00000" pt_clust_7="13000.00000" pt_clust_8="13000.00000" pt_clust_9="20.29986"></scales>
<clustering>
<clus scale="   20.300">  2  9  1 -1</clus>
<clus scale="   74.227">  5  6 -1 -1</clus>
<clus scale="   95.849">  7  8 -1 -1</clus>
<clus scale="  133.511">  1  5  2 -1</clus>
<clus scale="   20.300">  2  5  1 -1</clus>
</clustering>
</event>
<event>
 9    1  0.2951046E-005  0.1100165E+03  0.7546771E-02  0.1261221E+00
         -2   -1    0    0    0  501 -0.00000000000E+00  0.00000000000E+00  0.41353648441E+02  0.41353648441E+02  0.00000000000E+00 0.  1.
          1   -1    0    0  502    0  0.00000000000E+00 -0.00000000000E+00 -0.81715492009E+03  0.81715492009E+03  0.00000000000E+00 0. -1.
         23    2    1    2    0    0 -0.71575195517E+02  0.24790639099E+02 -0.80698521490E+02  0.13910758496E+03  0.84267932343E+02 0.  0.
        -24    2    1    2    0    0  0.64953085289E+02  0.44135340879E+02 -0.37450008500E+03  0.39140599586E+03  0.82349913944E+02 0.  0.
         11    1    4    4    0    0  0.64606310548E+02  0.45652074801E+02 -0.37872753601E+03  0.38690132311E+03  0.00000000000E+00 0. -1.
        -12    1    4    4    0    0  0.34677474075E+00 -0.15167339219E+01  0.42274510087E+01  0.45046727452E+01  0.00000000000E+00 0.  1.
        -11    1    3    3    0    0 -0.37050758748E+02  0.41637527133E+02 -0.83717419437E+02  0.10057359846E+03  0.00000000000E+00 0. -1.
         11    1    3    3    0    0 -0.34524436769E+02 -0.16846888034E+02  0.30188979473E+01  0.38533986498E+02  0.00000000000E+00 0.  1.
         21    1    1    2  502  501  0.66221102286E+01 -0.68925979978E+02 -0.32060266516E+03  0.32799498772E+03  0.00000000000E+00 0.  1.
<scales pt_clust_5="13000.00000" pt_clust_6="13000.00000" pt_clust_7="13000.00000" pt_clust_8="13000.00000" pt_clust_9="69.24336"></scales>
<clustering>
<clus scale="   69.243">  2  9  1 -1</clus>
<clus scale="   82.350">  5  6 -1 -1</clus>
<clus scale="   84.268">  7  8 -1 -1</clus>
<clus scale="  108.554">  2  5  1 -1</clus>
<clus scale="   69.243">  2  5  1 -1</clus>
</clustering>
</event>
<event>
 9    1  0.2951046E-005  0.1202487E+03  0.7546771E-02  0.1245817E+00
          3   -1    0    0  502    0  0.00000000000E+00  0.00000000000E+00  0.21824638679E+03  0.21824638679E+03  0.00000000000E+00 0. -1.
         -4   -1    0    0    0  501 -0.00000000000E+00 -0.00000000000E+00 -0.23271913619E+03  0.23271913619E+03  0.00000000000E+00 0.  1.
        -24    2    1    2    0    0  0.53797213082E+02  0.68553332293E+02 -0.12962990894E+03  0.17654610520E+03  0.82285566575E+02 0.  0.
         23    2    1    2    0    0 -0.20829185445E+02 -0.59310238082E+02 -0.37740389993E+02  0.11773506536E+03  0.92117583942E+02 0.  0.
         11    1    3    3    0    0  0.67478626638E+02  0.28702761016E+02 -0.10392186428E+03  0.12718870790E+03  0.00000000000E+00 0. -1.
        -12    1    3    3    0    0 -0.13681413556E+02  0.39850571277E+02 -0.25708044665E+02  0.49357397303E+02  0.00000000000E+00 0.  1.
        -13    1    4    4    0    0  0.33508557030E+02 -0.36814600776E+01 -0.13016082575E+02  0.36135784870E+02  0.00000000000E+00 0.  1.
         13    1    4    4    0    0 -0.54337742475E+02 -0.55628778004E+02 -0.24724307418E+02  0.81599280492E+02  0.00000000000E+00 0. -1.
         21    1    1    2  502  501 -0.32968027636E+02 -0.92430942110E+01  0.15289754953E+03  0.15668435241E+03  0.00000000000E+00 0. -1.
<scales pt_clust_5="13000.00000" pt_clust_6="13000.00000" pt_clust_7="13000.00000" pt_clust_8="13000.00000" pt_clust_9="34.23924"></scales>
<clustering>
<clus scale="   34.239">  1  9  2 -1</clus>
<clus scale="   82.286">  5  6 -1 -1</clus>
<clus scale="   92.118">  7  8 -1 -1</clus>
<clus scale="  112.894">  2  5  1 -1</clus>
<clus scale="   34.239">  1  5  2 -1</clus>
</clustering>
</event>
<event>
 9    1  0.2951046E-005  0.1023942E+03  0.7546771E-02  0.1279844E+00
          1   -1    0    0  502    0  0.00000000000E+00  0.00000000000E+00  0.83500208054E+03  0.83500208054E+03  0.00000000000E+00 0. -1.
         -2   -1    0    0    0  501 -0.00000000000E+00 -0.00000000000E+00 -0.81228868998E+02  0.81228868998E+02  0.00000000000E+00 0.  1.
         23    2    1    2    0    0 -0.49369821075E+02  0.12531627569E+02 -0.37550211723E+02  0.11054407602E+03  0.90639690088E+02 0.  0.
        -24    2    1    2    0    0  0.87855229248E+01  0.34281783888E+02  0.51235147423E+03  0.51991785998E+03  0.80982231804E+02 0.  0.
         11    1    4    4    0    0  0.44608068703E+02  0.12326308076E+02  0.25733669263E+03  0.26146508570E+03  0.00000000000E+00 0. -1.
        -12    1    4    4    0    0 -0.35822545779E+02  0.21955475811E+02  0.25501478159E+03  0.25845277429E+03  0.00000000000E+00 0.  1.
        -11    1    3    3    0    0 -0.69312705969E+02 -0.12821924996E+02 -0.33465284625E+02  0.78029342202E+02  0.00000000000E+00 0.  1.
         11    1    3    3    0    0  0.19942884894E+02  0.25353552565E+02 -0.40849270980E+01  0.32514733814E+02  0.00000000000E+00 0. -1.
         21    1    1    2  502  501  0.40584298150E+02 -0.46813411457E+02  0.27897194904E+03  0.28576901354E+03  0.00000000000E+00 0. -1.
<scales pt_clust_5="13000.00000" pt_clust_6="13000.00000" pt_clust_7="13000.00000" pt_clust_8="13000.00000" pt_clust_9="61.95628"></scales>
<clustering>
<clus scale="   61.956">  1  9  2 -1</clus>
<clus scale="   80.982">  5  6 -1 -1</clus>
<clus scale="   90.640">  7  8 -1 -1</clus>
<clus scale="   93.953">  1  5  2 -1</clus>
<clus scale="   61.956">  1  5  2 -1</clus>
</clustering>
</event>
<event>
 9    1  0.2951046E-005  0.1131591E+03  0.7546771E-02  0.1258259E+00
         -2   -1    0    0    0  501 -0.00000000000E+00  0.00000000000E+00  0.20695054171E+03  0.20695054171E+03  0.00000000000E+00 0.  1.
          1   -1    0    0  502    0  0.00000000000E+00 -0.00000000000E+00 -0.79459156854E+02  0.79459156854E+02  0.00000000000E+00 0. -1.
         23    2    1    2    0    0 -0.49976646931E+02 -0.31198318951E+02  0.84080352573E+02  0.13676079264E+03  0.90349368405E+02 0.  0.
        -24    2    1    2    0    0  0.62453874882E+02  0.54284931197E+02  0.42912406067E+02  0.12340159158E+03  0.80864936574E+02 0.  0.
         11    1    4    4    0    0  0.22449015231E+02 -0.10853377247E+00 -0.20772657607E+02  0.30585509126E+02  0.00000000000E+00 0. -1.
        -12    1    4    4    0    0  0.40004859651E+02  0.54393464969E+02  0.63685063673E+02  0.92816082454E+02  0.00000000000E+00 0.  1.
        -13    1    3    3    0    0 -0.21326570946E+02 -0.74259389470E+01 -0.17502477084E+02  0.28571032562E+02  0.00000000000E+00 0. -1.
         13    1    3    3    0    0 -0.28650075985E+02 -0.23772380004E+02  0.10158282966E+03  0.10818976008E+03  0.00000000000E+00 0.  1.
         21    1    1    2  502  501 -0.12477227951E+02 -0.23086612245E+02  0.49862622125E+00  0.26247314347E+02  0.00000000000E+00 0. -1.
<scales pt_clust_5="13000.00000" pt_clust_6="13000.00000" pt_clust_7="13000.00000" pt_clust_8="13000.00000" pt_clust_9="26.24258"></scales>
<clustering>
<clus scale="   26.243">  2  9  1 -1</clus>
<clus scale="   80.865">  5  6 -1 -1</clus>
<clus scale="   90.349">  7  8 -1 -1</clus>
<clus scale="  105.741">  2  5  1 -1</clus>
<clus scale="   26.243">  2  5  1 -1</clus>
</clustering>
</event>
<event>
 9    1  0.2951046E-005  0.1364298E+03  0.7546771E-02  0.1220712E+00
         -2   -1    0    0    0  501 -0.00000000000E+00  0.00000000000E+00  0.28529393975E+02  0.28529393975E+02  0.00000000000E+00 0.  1.
          1   -1    0    0  502    0  0.00000000000E+00 -0.00000000000E+00 -0.92812532123E+03  0.92812532123E+03  0.00000000000E+00 0. -1.
        -24    2    1    2    0    0 -0.79648366425E+02 -0.39050578648E+02 -0.29709354644E+03  0.32035000852E+03  0.80565145419E+02 0.  0.
         23    2    1    2    0    0  0.12044553733E+03  0.14171526825E+02 -0.39038407930E+03  0.41887069322E+03  0.91350799847E+02 0.  0.
         13    1    3    3    0    0 -0.60964698964E+02 -0.25947886836E+01 -0.25261995029E+03  0.25988510295E+03  0.00000000000E+00 0. -1.
        -14    1    3    3    0    0 -0.18683667462E+02 -0.36455789964E+02 -0.44473596144E+02  0.60464905571E+02  0.00000000000E+00 0.  1.
        -11    1    4    4    0    0  0.84247112878E+02  0.49289810021E+02 -0.21011523213E+03  0.23167967579E+03  0.00000000000E+00 0.  1.
         11    1    4    4    0    0  0.36198424451E+02 -0.35118283196E+02 -0.18026884717E+03  0.18719101743E+03  0.00000000000E+00 0. -1.
         21    1    1    2  502  501 -0.40797170903E+02  0.24879051823E+02 -0.21211830152E+03  0.21743401347E+03  0.00000000000E+00 0. -1.
<scales pt_clust_5="13000.00000" pt_clust_6="13000.00000" pt_clust_7="13000.00000" pt_clust_8="13000.00000" pt_clust_9="47.78469"></scales>
<clustering>
<clus scale="   47.785">  2  9  1 -1</clus>
<clus scale="   80.565">  5  6 -1 -1</clus>
<clus scale="   91.351">  7  8 -1 -1</clus>
<clus scale="  129.456">  1  5  2 -1</clus>
<clus scale="   47.785">  2  5  1 -1</clus>
</clustering>
</event>
<event>
 9    1  0.2951046E-005  0.3141205E+03  0.7546771E-02  0.1078670E+00
         -2   -1    0    0    0  501 -0.00000000000E+00  0.00000000000E+00  0.64786149132E+03  0.64786149132E+03  0.00000000000E+00 0.  1.
          1   -1    0    0  502    0  0.00000000000E+00 -0.00000000000E+00 -0.23973291261E+03  0.23973291261E+03  0.00000000000E+00 0. -1.
        -24    2    1    2    0    0 -0.11264251119E+03 -0.28535812142E+03  0.45137374989E+03  0.55148726345E+03  0.79261257032E+02 0.  0.
         23    2    1    2    0    0  0.10353845074E+03  0.26554923022E+03 -0.12750792492E+02  0.29862136692E+03  0.88178986257E+02 0.  0.
         13    1    3    3    0    0 -0.18977756262E+02 -0.20348309665E+02  0.12925967882E+02  0.30680443032E+02  0.00000000000E+00 0. -1.
        -14    1    3    3    0    0 -0.93664754933E+02 -0.26500981175E+03  0.43844778201E+03  0.52080682042E+03  0.00000000000E+00 0.  1.
        -11    1    4    4    0    0  0.10504083896E+03  0.15232861109E+03 -0.11356770806E+02  0.18538219939E+03  0.00000000000E+00 0.  1.
         11    1    4    4    0    0 -0.15023882174E+01  0.11322061913E+03 -0.13940216865E+01  0.11323916753E+03  0.00000000000E+00 0. -1.
         21    1    1    2  502  501  0.91040604511E+01  0.19808891198E+02 -0.30494378695E+02  0.37485773557E+02  0.00000000000E+00 0.  1.
<scales pt_clust_5="13000.00000" pt_clust_6="13000.00000" pt_clust_7="13000.00000" pt_clust_8="13000.00000" pt_clust_9="21.80083"></scales>
<clustering>
<clus scale="   21.801">  2  9  1 -1</clus>
<clus scale="   79.261">  5  6 -1 -1</clus>
<clus scale="   88.179">  7  8 -1 -1</clus>
<clus scale="  311.735">  1  5  2 -1</clus>
<clus scale="   21.801">  2  5  1 -1</clus>
</clustering>
</event>
<event>
 9    1  0.2951046E-005  0.1252005E+03  0.7546771E-02  0.1238714E+00
          1   -1    0    0  502    0  0.00000000000E+00  0.00000000000E+00  0.77742110238E+03  0.77742110238E+03  0.00000000000E+00 0. -1.
         -2   -1    0    0    0  501 -0.00000000000E+00 -0.00000000000E+00 -0.49124733623E+02  0.49124733623E+02  0.00000000000E+00 0.  1.
        -24    2    1    2    0    0 -0.66800335640E+02 -0.56074273795E+02  0.55172571426E+02  0.12894993127E+03  0.77314055082E+02 0.  0.
         23    2    1    2    0    0  0.91217570668E+02  0.98899177971E+01  0.43609139573E+03  0.45487475709E+03  0.91196949157E+02 0.  0.
         13    1    3    3    0    0 -0.47363289103E+02  0.92901990500E+01  0.20353843108E+02  0.52381942331E+02  0.00000000000E+00 0. -1.
        -14    1    3    3    0    0 -0.19437046537E+02 -0.65364472845E+02  0.34818728318E+02  0.76567988938E+02  0.00000000000E+00 0.  1.
        -11    1    4    4    0    0  0.96175582379E+02  0.34729697424E+02  0.37615762661E+03  0.38980822796E+03  0.00000000000E+00 0. -1.
         11    1    4    4    0    0 -0.49580117109E+01 -0.24839779627E+02  0.59933769121E+02  0.65066529130E+02  0.00000000000E+00 0.  1.
         21    1    1    2  502  501 -0.24417235027E+02  0.46184355998E+02  0.23703240160E+03  0.24272114764E+03  0.00000000000E+00 0. -1.
<scales pt_clust_5="13000.00000" pt_clust_6="13000.00000" pt_clust_7="13000.00000" pt_clust_8="13000.00000" pt_clust_9="52.24171"></scales>
<clustering>
<clus scale="   52.242">  1  9  2 -1</clus>
<clus scale="   77.314">  5  6 -1 -1</clus>
<clus scale="   91.197">  7  8 -1 -1</clus>
<clus scale="  115.481">  2  5  1 -1</clus>
<clus scale="   52.242">  1  5  2 -1</clus>
</clustering>
</event>
<event>
 9    1  0.2951046E-005  0.1530983E+03  0.7546771E-02  0.1217069E+00
         -2   -1    0    0    0  501 -0.00000000000E+00  0.00000000000E+00  0.70573585366E+02  0.70573585366E+02  0.00000000000E+00 0.  1.
          1   -1    0    0  502    0  0.00000000000E+00 -0.00000000000E+00 -0.11671444979E+04  0.11671444979E+04  0.00000000000E+00 0. -1.
         23    2    1    2    0    0 -0.15855424266E+02  0.44561153315E+02 -0.16348198457E+03  0.19107261838E+03  0.86863659562E+02 0.  0.
        -24    2    1    2    0    0  0.86596639504E+02  0.64887258310E+02 -0.38097702723E+02  0.14221604940E+03  0.84051386004E+02 0.  0.
         11    1    4    4    0    0  0.25972917621E+02  0.62461626686E+02  0.49443693880E+01  0.67826941893E+02  0.00000000000E+00 0. -1.
        -12    1    4    4    0    0  0.60623721884E+02  0.24256316246E+01 -0.43042072111E+02  0.74389107505E+02  0.00000000000E+00 0.  1.
        -13    1    3    3    0    0 -0.50814708032E+02  0.31470188613E+02 -0.11764581113E+03  0.13195849423E+03  0.00000000000E+00 0.  1.
         13    1    3    3    0    0  0.34959283765E+02  0.13090964702E+02 -0.45836173441E+02  0.59114124149E+02  0.00000000000E+00 0. -1.
         21    1    1    2  502  501 -0.70741215238E+02 -0.10944841162E+03 -0.89499122525E+03  0.90442941550E+03  0.00000000000E+00 0. -1.
<scales pt_clust_5="13000.00000" pt_clust_6="13000.00000" pt_clust_7="13000.00000" pt_clust_8="13000.00000" pt_clust_9="127.96270"></scales>
<clustering>
<clus scale="   84.051">  5  6 -1 -1</clus>
<clus scale="   86.864">  7  8 -1 -1</clus>
<clus scale="   98.906">  1  7  2 -1</clus>
<clus scale="  127.963">  2  9  1 -1</clus>
<clus scale="  127.963">  2  5  1 -1</clus>
</clustering>
</event>
<event>
 9    1  0.2951046E-005  0.1411854E+03  0.7546771E-02  0.1215137E+00
         -2   -1    0    0    0  501 -0.00000000000E+00  0.00000000000E+00  0.25016350718E+02  0.25016350718E+02  0.00000000000E+00 0.  1.
          1   -1    0    0  502    0  0.00000000000E+00 -0.00000000000E+00 -0.89206180110E+03  0.89206180110E+03  0.00000000000E+00 0. -1.
         23    2    1    2    0    0  0.44389325368E+02 -0.80467595996E+02 -0.36714320409E+03  0.39037372122E+03  0.95666418840E+02 0.  0.
        -24    2    1    2    0    0 -0.55837863763E+02  0.99999151660E+02 -0.45999751951E+03  0.48082482819E+03  0.80480432945E+02 0.  0.
         11    1    4    4    0    0 -0.57632013782E+02  0.22230942211E+02 -0.22227887840E+03  0.23070232679E+03  0.00000000000E+00 0. -1.
        -12    1    4    4    0    0  0.17941500184E+01  0.77768209449E+02 -0.23771864110E+03  0.25012250139E+03  0.00000000000E+00 0.  1.
        -11    1    3    3    0    0  0.46194903283E+02 -0.26393669582E+00 -0.19585839153E+03  0.20123257262E+03  0.00000000000E+00 0.  1.
         11    1    3    3    0    0 -0.18055779146E+01 -0.80203659301E+02 -0.17128481256E+03  0.18914114859E+03  0.00000000000E+00 0. -1.
         21    1    1    2  502  501  0.11448538395E+02 -0.19531555663E+02 -0.39904726780E+02  0.45879602411E+02  0.00000000000E+00 0.  1.
<scales pt_clust_5="13000.00000" pt_clust_6="13000.00000" pt_clust_7="13000.00000" pt_clust_8="13000.00000" pt_clust_9="22.63958"></scales>
<clustering>
<clus scale="   22.640">  1  9  2 -1</clus>
<clus scale="   80.480">  5  6 -1 -1</clus>
<clus scale="   95.666">  7  8 -1 -1</clus>
<clus scale="  131.371">  2  5  1 -1</clus>
<clus scale="  131.371">  2  5  1 -1</clus>
</clustering>
</event>
<event>
 9    1  0.2951046E-005  0.9154931E+02  0.7546771E-02  0.1310573E+00
          3   -1    0    0  502    0  0.00000000000E+00  0.00000000000E+00  0.31336115406E+03  0.31336115406E+03  0.00000000000E+00 0. -1.
         -4   -1    0    0    0  501 -0.00000000000E+00 -0.00000000000E+00 -0.77636636196E+02  0.77636636196E+02  0.00000000000E+00 0.  1.
         23    2    1    2    0    0  0.18042410686E+01  0.14377619705E+02 -0.39246314934E+02  0.99830547977E+02  0.90641567944E+02 0.  0.
        -24    2    1    2    0    0 -0.15002514318E+02  0.20246654383E+01  0.21525729778E+03  0.22785108605E+03  0.73152159655E+02 0.  0.
         11    1    4    4    0    0 -0.25020829121E+02 -0.23282674730E+02  0.18048696172E+03  0.18369449688E+03  0.00000000000E+00 0. -1.
        -12    1    4    4    0    0  0.10018314803E+02  0.25307340168E+02  0.34770336063E+02  0.44156589178E+02  0.00000000000E+00 0.  1.
        -11    1    3    3    0    0 -0.11402752280E+02  0.50703643506E+02 -0.30294481473E+02  0.60155114762E+02  0.00000000000E+00 0.  1.
         11    1    3    3    0    0  0.13206993348E+02 -0.36326023801E+02 -0.89518334618E+01  0.39675433215E+02  0.00000000000E+00 0. -1.
         21    1    1    2  502  501  0.13198273250E+02 -0.16402285143E+02  0.59713535022E+02  0.63316156228E+02  0.00000000000E+00 0. -1.
<scales pt_clust_5="13000.00000" pt_clust_6="13000.00000" pt_clust_7="13000.00000" pt_clust_8="13000.00000" pt_clust_9="21.05301"></scales>
<clustering>
<clus scale="   21.053">  1  9  2 -1</clus>
<clus scale="   73.152">  5  6 -1 -1</clus>
<clus scale="   74.274">  1  5  2 -1</clus>
<clus scale="   90.642">  7  8 -1 -1</clus>
<clus scale="   21.053">  1  5  2 -1</clus>
</clustering>
</event>
<event>
 9    1  0.2951046E-005  0.9898992E+02  0.7546771E-02  0.1294318E+00
          1   -1    0    0  502    0  0.00000000000E+00  0.00000000000E+00  0.23387584218E+03  0.23387584218E+03  0.00000000000E+00 0. -1.
         -2   -1    0    0    0  501 -0.00000000000E+00 -0.00000000000E+00 -0.75140658917E+02  0.75140658917E+02  0.00000000000E+00 0.  1.
        -24    2    1    2    0    0 -0.33633981580E+02  0.26661486166E+02 -0.25890587005E+02  0.82413278570E+02  0.65418242316E+02 0.  0.
         23    2    1    2    0    0  0.53940240750E+02 -0.16757055545E+02  0.12697133873E+03  0.16468008159E+03  0.88359832111E+02 0.  0.
         13    1    3    3    0    0 -0.25459177448E+02 -0.12845140467E+02 -0.30562743275E+02  0.41800103187E+02  0.00000000000E+00 0. -1.
        -14    1    3    3    0    0 -0.81748041317E+01  0.39506626633E+02  0.46721562703E+01  0.40613175383E+02  0.00000000000E+00 0.  1.
        -11    1    4    4    0    0  0.54586722785E+02 -0.37295294360E+02  0.44512496863E+02  0.79699508548E+02  0.00000000000E+00 0.  1.
         11    1    4    4    0    0 -0.64648203498E+00  0.20538238815E+02  0.82458841862E+02  0.84980573038E+02  0.00000000000E+00 0. -1.
         21    1    1    2  502  501 -0.20306259170E+02 -0.99044306216E+01  0.57654431545E+02  0.61923140943E+02  0.00000000000E+00 0. -1.
<scales pt_clust_5="13000.00000" pt_clust_6="13000.00000" pt_clust_7="13000.00000" pt_clust_8="13000.00000" pt_clust_9="22.59296"></scales>
<clustering>
<clus scale="   22.593">  1  9  2 -1</clus>
<clus scale="   65.418">  5  6 -1 -1</clus>
<clus scale="   79.190">  2  5  1 -1</clus>
<clus scale="   88.360">  7  8 -1 -1</clus>
<clus scale="   22.593">  1  5  2 -1</clus>
</clustering>
</event>
<event>
 9    1  0.2951046E-005  0.1643431E+03  0.7546771E-02  0.1185295E+00
         -2   -1    0    0    0  501 -0.00000000000E+00  0.00000000000E+00  0.42324494671E+03  0.42324494671E+03  0.00000000000E+00 0.  1.
          1   -1    0    0  502    0  0.00000000000E+00 -0.00000000000E+00 -0.70862859187E+02  0.70862859187E+02  0.00000000000E+00 0. -1.
        -24    2    1    2    0    0 -0.16987255370E+02  0.13424068497E+03  0.18915961884E+03  0.24630160347E+03  0.81080146300E+02 0.  0.
         23    2    1    2    0    0 -0.25473632965E+01 -0.13909962655E+03  0.14142472050E+03  0.21813546827E+03  0.90702457443E+02 0.  0.
         11    1    3    3    0    0 -0.17564912641E+02  0.72873382213E+02  0.39900302952E+02  0.84918138032E+02  0.00000000000E+00 0. -1.
        -12    1    3    3    0    0  0.57765727118E+00  0.61367302753E+02  0.14925931589E+03  0.16138346543E+03  0.00000000000E+00 0.  1.
        -11    1    4    4    0    0  0.39764596131E+02 -0.56133138576E+02  0.84589966021E+02  0.10903033845E+03  0.00000000000E+00 0.  1.
         11    1    4    4    0    0 -0.42311959428E+02 -0.82966487969E+02  0.56834754475E+02  0.10910512982E+03  0.00000000000E+00 0. -1.
         21    1    1    2  502  501  0.19534618666E+02  0.48589415798E+01  0.21797748185E+02  0.29670734161E+02  0.00000000000E+00 0.  1.
<scales pt_clust_5="13000.00000" pt_clust_6="13000.00000" pt_clust_7="13000.00000" pt_clust_8="13000.00000" pt_clust_9="20.12984"></scales>
<clustering>
<clus scale="   20.130">  1  9  2 -1</clus>
<clus scale="   81.080">  5  6 -1 -1</clus>
<clus scale="   90.702">  7  8 -1 -1</clus>
<clus scale="  159.235">  1  5  2 -1</clus>
<clus scale="  164.343">  2  5  1 -1</clus>
</clustering>
</event>
<event>
 9    1  0.2951046E-005  0.1048752E+03  0.7546771E-02  0.1274706E+00
         -4   -1    0    0    0  501 -0.00000000000E+00  0.00000000000E+00  0.10877893347E+03  0.10877893347E+03  0.00000000000E+00 0.  1.
          3   -1    0    0  502    0  0.00000000000E+00 -0.00000000000E+00 -0.13780932062E+03  0.13780932062E+03  0.00000000000E+00 0. -1.
        -24    2    1    2    0    0 -0.29291878602E+02  0.54907133848E+02  0.29031398497E+02  0.10633566869E+03  0.81188945297E+02 0.  0.
         23    2    1    2    0    0  0.14554997764E+02 -0.31053341013E+02 -0.33200003811E+02  0.10277876406E+03  0.91022393620E+02 0.  0.
         11    1    3    3    0    0 -0.33459703552E+02 -0.82001410827E+00 -0.13519434177E+02  0.36097081397E+02  0.00000000000E+00 0. -1.
        -12    1    3    3    0    0  0.41678249496E+01  0.55727147957E+02  0.42550832674E+02  0.70238587297E+02  0.00000000000E+00 0.  1.
        -11    1    4    4    0    0  0.18936692184E+02  0.30213315047E+02 -0.91282709702E+01  0.36807173864E+02  0.00000000000E+00 0.  1.
         11    1    4    4    0    0 -0.43816944199E+01 -0.61266656060E+02 -0.24071732841E+02  0.65971590194E+02  0.00000000000E+00 0. -1.
         21    1    1    2  502  501  0.14736880838E+02 -0.23853792836E+02 -0.24861781835E+02  0.37473821336E+02  0.00000000000E+00 0. -1.
<scales pt_clust_5="13000.00000" pt_clust_6="13000.00000" pt_clust_7="13000.00000" pt_clust_8="13000.00000" pt_clust_9="28.03889"></scales>
<clustering>
<clus scale="   28.039">  2  9  1 -1</clus>
<clus scale="   81.189">  5  6 -1 -1</clus>
<clus scale="   91.022">  7  8 -1 -1</clus>
<clus scale="   96.464">  1  5  2 -1</clus>
<clus scale="   28.039">  2  5  1 -1</clus>
</clustering>
</event>
<event>
 9    1  0.2951046E-005  0.1119019E+03  0.7546771E-02  0.1259162E+00
          1   -1    0    0  502    0  0.00000000000E+00  0.00000000000E+00  0.27994617930E+03  0.27994617930E+03  0.00000000000E+00 0. -1.
         -2   -1    0    0    0  501 -0.00000000000E+00 -0.00000000000E+00 -0.63137115995E+02  0.63137115995E+02  0.00000000000E+00 0.  1.
        -24    2    1    2    0    0  0.54304177786E+02 -0.55452918519E+02  0.32863049934E+02  0.11772307477E+03  0.82187422302E+02 0.  0.
         23    2    1    2    0    0 -0.40040720543E+02  0.34449971701E+02  0.12899212286E+03  0.16482510617E+03  0.87967539542E+02 0.  0.
         11    1    3    3    0    0  0.59739559394E+02 -0.22956836571E+02  0.49410959649E+02  0.80853412020E+02  0.00000000000E+00 0. -1.
        -12    1    3    3    0    0 -0.54353816075E+01 -0.32496081948E+02 -0.16547909715E+02  0.36869662748E+02  0.00000000000E+00 0.  1.
        -11    1    4    4    0    0 -0.36180192757E+02  0.56714016226E+02  0.12489563177E+03  0.14186051184E+03  0.00000000000E+00 0.  1.
         11    1    4    4    0    0 -0.38605277862E+01 -0.22264044525E+02  0.40964910843E+01  0.22964594327E+02  0.00000000000E+00 0. -1.
         21    1    1    2  502  501 -0.14263457243E+02  0.21002946818E+02  0.54953890514E+02  0.60535114357E+02  0.00000000000E+00 0. -1.
<scales pt_clust_5="13000.00000" pt_clust_6="13000.00000" pt_clust_7="13000.00000" pt_clust_8="13000.00000" pt_clust_9="25.38838"></scales>
<clustering>
<clus scale="   25.388">  1  9  2 -1</clus>
<clus scale="   82.187">  5  6 -1 -1</clus>
<clus scale="   87.968">  7  8 -1 -1</clus>
<clus scale="  107.418">  2  5  1 -1</clus>
<clus scale="   25.388">  1  5  2 -1</clus>
</clustering>
</event>
<event>
 9    1  0.2951046E-005  0.9225809E+02  0.7546771E-02  0.1303438E+00
         -2   -1    0    0    0  501 -0.00000000000E+00  0.00000000000E+00  0.10011999563E+03  0.10011999563E+03  0.00000000000E+00 0.  1.
          1   -1    0    0  502    0  0.00000000000E+00 -0.00000000000E+00 -0.38022215562E+03  0.38022215562E+03  0.00000000000E+00 0. -1.
         23    2    1    2    0    0  0.11267499453E+02  0.52730812762E+01  0.67381981666E+02  0.11433168924E+03  0.91523995664E+02 0.  0.
        -24    2    1    2    0    0 -0.87467396013E+01  0.20402362871E+02 -0.30243220477E+03  0.31409457157E+03  0.81837641385E+02 0.  0.
         13    1    4    4    0    0  0.26452883025E+02  0.33429271423E+02 -0.10870275992E+03  0.11676284179E+03  0.00000000000E+00 0. -1.
        -14    1    4    4    0    0 -0.35199622627E+02 -0.13026908552E+02 -0.19372944484E+03  0.19733172978E+03  0.00000000000E+00 0.  1.
        -13    1    3    3    0    0  0.11350200663E+02  0.42911615917E+02  0.62087831577E+02  0.76322556729E+02  0.00000000000E+00 0. -1.
         13    1    3    3    0    0 -0.82701210595E-01 -0.37638534641E+02  0.52941500891E+01  0.38009132516E+02  0.00000000000E+00 0.  1.
         21    1    1    2  502  501 -0.25207598513E+01 -0.25675444148E+02 -0.45051936888E+02  0.51915890436E+02  0.00000000000E+00 0.  1.
<scales pt_clust_5="13000.00000" pt_clust_6="13000.00000" pt_clust_7="13000.00000" pt_clust_8="13000.00000" pt_clust_9="25.79889"></scales>
<clustering>
<clus scale="   25.799">  2  9  1 -1</clus>
<clus scale="   81.838">  5  6 -1 -1</clus>
<clus scale="   82.658">  2  5  1 -1</clus>
<clus scale="   91.524">  7  8 -1 -1</clus>
<clus scale="   25.799">  2  5  1 -1</clus>
</clustering>
</event>
<event>
 9    1  0.2951046E-005  0.9708305E+02  0.7546771E-02  0.1292496E+00
         -4   -1    0    0    0  501 -0.00000000000E+00  0.00000000000E+00  0.22778062371E+03  0.22778062371E+03  0.00000000000E+00 0.  1.
          3   -1    0    0  502    0  0.00000000000E+00 -0.00000000000E+00 -0.15988442793E+03  0.15988442793E+03  0.00000000000E+00 0. -1.
         23    2    1    2    0    0  0.48681988526E+01  0.32887956302E+02  0.17722507914E+03  0.20185679124E+03  0.90731022603E+02 0.  0.
        -24    2    1    2    0    0 -0.39917876689E+02 -0.33172357298E+02 -0.31045817950E+02  0.10003647523E+03  0.79684448893E+02 0.  0.
         11    1    4    4    0    0 -0.32339503703E+02 -0.57586658623E+02 -0.97437158897E+01  0.66760817479E+02  0.00000000000E+00 0. -1.
        -12    1    4    4    0    0 -0.75783729863E+01  0.24414301325E+02 -0.21302102060E+02  0.33275657747E+02  0.00000000000E+00 0.  1.
        -11    1    3    3    0    0  0.24880239715E+02 -0.21720174819E+02  0.34615618112E+02  0.47843843279E+02  0.00000000000E+00 0. -1.
         11    1    3    3    0    0 -0.20012040862E+02  0.54608131121E+02  0.14260946103E+03  0.15401294796E+03  0.00000000000E+00 0.  1.
         21    1    1    2  502  501  0.35049677837E+02  0.28440099632E+00 -0.78283065418E+02  0.85771785172E+02  0.00000000000E+00 0. -1.
<scales pt_clust_5="13000.00000" pt_clust_6="13000.00000" pt_clust_7="13000.00000" pt_clust_8="13000.00000" pt_clust_9="35.05083"></scales>
<clustering>
<clus scale="   35.051">  2  9  1 -1</clus>
<clus scale="   79.684">  5  6 -1 -1</clus>
<clus scale="   86.848">  2  5  1 -1</clus>
<clus scale="   90.731">  7  8 -1 -1</clus>
<clus scale="   35.051">  2  5  1 -1</clus>
</clustering>
</event>
<event>
 9    1  0.2951046E-005  0.1105130E+03  0.7546771E-02  0.1262971E+00
         -2   -1    0    0    0  501 -0.00000000000E+00  0.00000000000E+00  0.17753124185E+03  0.17753124185E+03  0.00000000000E+00 0.  1.
          1   -1    0    0  502    0  0.00000000000E+00 -0.00000000000E+00 -0.71412759858E+03  0.71412759858E+03  0.00000000000E+00 0. -1.
        -24    2    1    2    0    0  0.66331950926E+02 -0.24098359791E+01  0.15339575802E+03  0.18544051987E+03  0.80325542700E+02 0.  0.
         23    2    1    2    0    0 -0.37212222306E+02 -0.32485647955E+02 -0.40567035003E+03  0.41828687163E+03  0.89193089815E+02 0.  0.
         11    1    3    3    0    0  0.17477654777E+02 -0.38942594480E+02  0.54231396888E+02  0.69014770084E+02  0.00000000000E+00 0. -1.
        -12    1    3    3    0    0  0.48854296149E+02  0.36532758500E+02  0.99164361130E+02  0.11642574979E+03  0.00000000000E+00 0.  1.
        -11    1    4    4    0    0  0.12054557885E+02  0.21626113374E+02 -0.59135056682E+02  0.64108939114E+02  0.00000000000E+00 0.  1.
         11    1    4    4    0    0 -0.49266780191E+02 -0.54111761328E+02 -0.34653529335E+03  0.35417793252E+03  0.00000000000E+00 0. -1.
         21    1    1    2  502  501 -0.29119728620E+02  0.34895483934E+02 -0.28432176471E+03  0.28793144893E+03  0.00000000000E+00 0. -1.
<scales pt_clust_5="13000.00000" pt_clust_6="13000.00000" pt_clust_7="13000.00000" pt_clust_8="13000.00000" pt_clust_9="45.44946"></scales>
<clustering>
<clus scale="   45.449">  2  9  1 -1</clus>
<clus scale="   80.326">  5  6 -1 -1</clus>
<clus scale="   89.193">  7  8 -1 -1</clus>
<clus scale="  103.489">  1  5  2 -1</clus>
<clus scale="   45.449">  2  5  1 -1</clus>
</clustering>
</event>
<event>
 9    1  0.2951046E-005  0.1347805E+03  0.7546771E-02  0.1240414E+00
         -2   -1    0    0    0  501 -0.00000000000E+00  0.00000000000E+00  0.13946812238E+03  0.13946812238E+03  0.00000000000E+00 0.  1.
          1   -1    0    0  502    0  0.00000000000E+00 -0.00000000000E+00 -0.32056403799E+03  0.32056403799E+03  0.00000000000E+00 0. -1.
        -24    2    1    2    0    0  0.26247749352E+02 -0.29717509846E+02  0.61103685064E+02  0.10830487857E+03  0.80151180010E+02 0.  0.
         23    2    1    2    0    0  0.27069624171E+02  0.10831346069E+03 -0.85373997528E+02  0.16838515458E+03  0.92737643427E+02 0.  0.
         11    1    3    3    0    0  0.20766434535E+02 -0.56332132874E+02  0.52632276460E+02  0.79841784316E+02  0.00000000000E+00 0. -1.
        -12    1    3    3    0    0  0.54813148173E+01  0.26614623027E+02  0.84714086042E+01  0.28463094258E+02  0.00000000000E+00 0.  1.
        -11    1    4    4    0    0 -0.21962579428E+02 -0.26482875900E+01 -0.23244815879E+02  0.32088779777E+02  0.00000000000E+00 0. -1.
         11    1    4    4    0    0  0.49032203599E+02  0.11096174828E+03 -0.62129181649E+02  0.13629637480E+03  0.00000000000E+00 0.  1.
         21    1    1    2  502  501 -0.53317373523E+02 -0.78595950845E+02 -0.15682560315E+03  0.18334212721E+03  0.00000000000E+00 0. -1.
<scales pt_clust_5="13000.00000" pt_clust_6="13000.00000" pt_clust_7="13000.00000" pt_clust_8="13000.00000" pt_clust_9="97.80348"></scales>
<clustering>
<clus scale="   80.151">  5  6 -1 -1</clus>
<clus scale="   89.422">  1  5  2 -1</clus>
<clus scale="   92.738">  7  8 -1 -1</clus>
<clus scale="   97.803">  2  9  1 -1</clus>
<clus scale="   97.803">  2  5  1 -1</clus>
</clustering>
</event>
<event>
 9    1  0.2951046E-005  0.1099228E+03  0.7546771E-02  0.1263557E+00
          1   -1    0    0  502    0  0.00000000000E+00  0.00000000000E+00  0.34824610868E+02  0.34824610868E+02  0.00000000000E+00 0. -1.
         -2   -1    0    0    0  501 -0.00000000000E+00 -0.00000000000E+00 -0.57312474118E+03  0.57312474118E+03  0.00000000000E+00 0.  1.
         23    2    1    2    0    0  0.42189623980E+02 -0.11167132762E+01 -0.23121550584E+03  0.25181112279E+03  0.90371566322E+02 0.  0.
        -24    2    1    2    0    0 -0.93218110816E+02 -0.14244528814E+02 -0.23520059445E+03  0.26665533704E+03  0.83025456087E+02 0.  0.
         13    1    4    4    0    0 -0.10067918196E+03 -0.25185027596E+02 -0.16288692646E+03  0.19313915737E+03  0.00000000000E+00 0. -1.
        -14    1    4    4    0    0  0.74610711490E+01  0.10940498782E+02 -0.72313667985E+02  0.73516179673E+02  0.00000000000E+00 0.  1.
        -13    1    3    3    0    0  0.12815384095E+02  0.43999696751E+02 -0.10141512908E+03  0.11128897425E+03  0.00000000000E+00 0. -1.
         13    1    3    3    0    0  0.29374239885E+02 -0.45116410027E+02 -0.12980037676E+03  0.14052214854E+03  0.00000000000E+00 0.  1.
         21    1    1    2  502  501  0.51028486836E+02  0.15361242091E+02 -0.71884030028E+02  0.89482892222E+02  0.00000000000E+00 0. -1.
<scales pt_clust_5="13000.00000" pt_clust_6="13000.00000" pt_clust_7="13000.00000" pt_clust_8="13000.00000" pt_clust_9="53.29047"></scales>
<clustering>
<clus scale="   53.290">  1  9  2 -1</clus>
<clus scale="   83.025">  5  6 -1 -1</clus>
<clus scale="   90.372">  7  8 -1 -1</clus>
<clus scale="  103.967">  1  5  2 -1</clus>
<clus scale="   53.290">  1  5  2 -1</clus>
</clustering>
</event>
<event>
 9    1  0.2951046E-005  0.1158884E+03  0.7546771E-02  0.1257560E+00
          1   -1    0    0  502    0  0.00000000000E+00  0.00000000000E+00  0.15260699706E+03  0.15260699706E+03  0.00000000000E+00 0. -1.
         -2   -1    0    0    0  501 -0.00000000000E+00 -0.00000000000E+00 -0.38034019910E+03  0.38034019910E+03  0.00000000000E+00 0.  1.
        -24    2    1    2    0    0 -0.40316856991E+02 -0.18539108143E+02 -0.33962433386E+03  0.35922402277E+03  0.10829618136E+03 0.  0.
         23    2    1    2    0    0  0.61395150716E+00  0.20379026641E+02  0.78291085702E+02  0.12167829753E+03  0.90886920547E+02 0.  0.
         11    1    3    3    0    0 -0.75068568308E+02  0.83769243934E+00 -0.18720910061E+03  0.20170086521E+03  0.00000000000E+00 0. -1.
        -12    1    3    3    0    0  0.34751711317E+02 -0.19376800582E+02 -0.15241523325E+03  0.15752315756E+03  0.00000000000E+00 0.  1.
        -11    1    4    4    0    0  0.41315861560E+02 -0.95001108597E+01  0.40277082808E+02  0.58476456136E+02  0.00000000000E+00 0. -1.
         11    1    4    4    0    0 -0.40701910053E+02  0.29879137501E+02  0.38014002895E+02  0.63201841396E+02  0.00000000000E+00 0.  1.
         21    1    1    2  502  501  0.39702905484E+02 -0.18399184983E+01  0.33600046124E+02  0.52044875862E+02  0.00000000000E+00 0. -1.
<scales pt_clust_5="13000.00000" pt_clust_6="13000.00000" pt_clust_7="13000.00000" pt_clust_8="13000.00000" pt_clust_9="39.74552"></scales>
<clustering>
<clus scale="   39.746">  1  9  2 -1</clus>
<clus scale="   90.887">  7  8 -1 -1</clus>
<clus scale="   99.812">  1  7  2 -1</clus>
<clus scale="  108.296">  5  6 -1 -1</clus>
<clus scale="   39.746">  1  5  2 -1</clus>
</clustering>
</event>
<event>
 9    1  0.2951046E-005  0.2094485E+03  0.7546771E-02  0.1143029E+00
         -2   -1    0    0    0  501 -0.00000000000E+00  0.00000000000E+00  0.49645853648E+03  0.49645853648E+03  0.00000000000E+00 0.  1.
          1   -1    0    0  502    0  0.00000000000E+00 -0.00000000000E+00 -0.36499226684E+03  0.36499226684E+03  0.00000000000E+00 0. -1.
        -24    2    1    2    0    0 -0.18269629992E+03 -0.36883949483E+02  0.42000667036E+03  0.46622512022E+03  0.78878994951E+02 0.  0.
         23    2    1    2    0    0  0.20640752687E+03  0.55641973656E+02 -0.21884001908E+03  0.31925049665E+03  0.91267898409E+02 0.  0.
         13    1    3    3    0    0 -0.29313164581E+02 -0.11635566267E+02  0.16173882949E+03  0.16478500230E+03  0.00000000000E+00 0. -1.
        -14    1    3    3    0    0 -0.15338313534E+03 -0.25248383216E+02  0.25826784087E+03  0.30144011792E+03  0.00000000000E+00 0.  1.
        -11    1    4    4    0    0  0.13599832501E+03  0.79756828449E+02 -0.14026181861E+03  0.21102150092E+03  0.00000000000E+00 0.  1.
         11    1    4    4    0    0  0.70409201854E+02 -0.24114854793E+02 -0.78578200480E+02  0.10822899574E+03  0.00000000000E+00 0. -1.
         21    1    1    2  502  501 -0.23711226948E+02 -0.18758024173E+02 -0.69700381635E+02  0.75975186438E+02  0.00000000000E+00 0. -1.
<scales pt_clust_5="13000.00000" pt_clust_6="13000.00000" pt_clust_7="13000.00000" pt_clust_8="13000.00000" pt_clust_9="30.23385"></scales>
<clustering>
<clus scale="   30.234">  2  9  1 -1</clus>
<clus scale="   78.879">  5  6 -1 -1</clus>
<clus scale="   91.268">  7  8 -1 -1</clus>
<clus scale="  204.354">  1  5  2 -1</clus>
<clus scale="   30.234">  2  5  1 -1</clus>
</clustering>
</event>
<event>
 9    1  0.2951046E-005  0.1148932E+03  0.7546771E-02  0.1257287E+00
         -2   -1    0    0    0  501 -0.00000000000E+00  0.00000000000E+00  0.23022895295E+03  0.23022895295E+03  0.00000000000E+00 0.  1.
          1   -1    0    0  502    0  0.00000000000E+00 -0.00000000000E+00 -0.14351426162E+03  0.14351426162E+03  0.00000000000E+00 0. -1.
        -24    2    1    2    0    0 -0.62663579155E+02  0.24420480867E+02  0.17902489265E+03  0.20727956265E+03  0.79948864057E+02 0.  0.
         23    2    1    2    0    0  0.37052762202E+02 -0.38271029157E+02 -0.65880956108E+02  0.12714118207E+03  0.94799793985E+02 0.  0.
         11    1    3    3    0    0 -0.88806708597E+01 -0.25197634498E+02  0.78645823350E+02  0.83059933961E+02  0.00000000000E+00 0. -1.
        -12    1    3    3    0    0 -0.53782908295E+02  0.49618115365E+02  0.10037906930E+03  0.12421962868E+03  0.00000000000E+00 0.  1.
        -13    1    4    4    0    0  0.17522757400E+02  0.22052865281E+02  0.84815366787E+01  0.29416192113E+02  0.00000000000E+00 0.  1.
         13    1    4    4    0    0  0.19530004802E+02 -0.60323894438E+02 -0.74362492787E+02  0.97724989952E+02  0.00000000000E+00 0. -1.
         21    1    1    2  502  501  0.25610816953E+02  0.13850548290E+02 -0.26429245212E+02  0.39322469854E+02  0.00000000000E+00 0. -1.
<scales pt_clust_5="13000.00000" pt_clust_6="13000.00000" pt_clust_7="13000.00000" pt_clust_8="13000.00000" pt_clust_9="29.11617"></scales>
<clustering>
<clus scale="   29.116">  2  9  1 -1</clus>
<clus scale="   79.949">  5  6 -1 -1</clus>
<clus scale="   94.800">  7  8 -1 -1</clus>
<clus scale="  102.982">  1  5  2 -1</clus>
<clus scale="   29.116">  2  5  1 -1</clus>
</clustering>
</event>
<event>
 9    1  0.2951046E-005  0.2114822E+03  0.7546771E-02  0.1141497E+00
          1   -1    0    0  502    0  0.00000000000E+00  0.00000000000E+00  0.89035111887E+03  0.89035111887E+03  0.00000000000E+00 0. -1.
         -2   -1    0    0    0  501 -0.00000000000E+00 -0.00000000000E+00 -0.11450814292E+03  0.11450814292E+03  0.00000000000E+00 0.  1.
         23    2    1    2    0    0 -0.13182661599E+02 -0.19126001583E+03  0.18855585828E+02  0.21512653325E+03  0.95758633927E+02 0.  0.
        -24    2    1    2    0    0 -0.14378137374E+02  0.17187709134E+03  0.64671062424E+03  0.67442331654E+03  0.82847528773E+02 0.  0.
         11    1    4    4    0    0  0.52715438963E+01  0.16458454473E+03  0.61296686996E+03  0.63470012227E+03  0.00000000000E+00 0. -1.
        -12    1    4    4    0    0 -0.19649681270E+02  0.72925466023E+01  0.33743754284E+02  0.39723194272E+02  0.00000000000E+00 0.  1.
        -11    1    3    3    0    0 -0.97966990499E+01 -0.11327164776E+03 -0.36522502971E+02  0.11941664340E+03  0.00000000000E+00 0.  1.
         11    1    3    3    0    0 -0.33859625490E+01 -0.77988368070E+02  0.55378088798E+02  0.95709889852E+02  0.00000000000E+00 0. -1.
         21    1    1    2  502  501  0.27560798973E+02  0.19382924489E+02  0.11027676588E+03  0.11530941199E+03  0.00000000000E+00 0.  1.
<scales pt_clust_5="13000.00000" pt_clust_6="13000.00000" pt_clust_7="13000.00000" pt_clust_8="13000.00000" pt_clust_9="33.69414"></scales>
<clustering>
<clus scale="   33.694">  1  9  2 -1</clus>
<clus scale="   82.848">  5  6 -1 -1</clus>
<clus scale="   95.759">  7  8 -1 -1</clus>
<clus scale="  205.958">  1  5  2 -1</clus>
<clus scale="   33.694">  1  5  2 -1</clus>
</clustering>
</event>
<event>
 9    1  0.2951046E-005  0.1407610E+03  0.7546771E-02  0.1214918E+00
         -2   -1    0    0    0  501 -0.00000000000E+00  0.00000000000E+00  0.98498911971E+02  0.98498911971E+02  0.00000000000E+00 0.  1.
          1   -1    0    0  502    0  0.00000000000E+00 -0.00000000000E+00 -0.56104921395E+03  0.56104921395E+03  0.00000000000E+00 0. -1.
         23    2    1    2    0    0  0.64731695082E+02  0.80904901260E+02  0.20153526469E+02  0.14019009862E+03  0.92256727264E+02 0.  0.
        -24    2    1    2    0    0 -0.10082836101E+03 -0.80126982652E+02 -0.42519444318E+03  0.45145439086E+03  0.80212597411E+02 0.  0.
         11    1    4    4    0    0 -0.67529623681E+02 -0.31278566728E+02 -0.33807954610E+03  0.34617391338E+03  0.00000000000E+00 0. -1.
        -12    1    4    4    0    0 -0.33298737325E+02 -0.48848415924E+02 -0.87114897074E+02  0.10528047748E+03  0.00000000000E+00 0.  1.
        -13    1    3    3    0    0  0.40139799662E+02 -0.10894457373E+02 -0.49734393319E+01  0.41888277801E+02  0.00000000000E+00 0. -1.
         13    1    3    3    0    0  0.24591895420E+02  0.91799358633E+02  0.25126965801E+02  0.98301820818E+02  0.00000000000E+00 0.  1.
         21    1    1    2  502  501  0.36096665924E+02 -0.77791860792E+00 -0.57509385272E+02  0.67903636446E+02  0.00000000000E+00 0.  1.
<scales pt_clust_5="13000.00000" pt_clust_6="13000.00000" pt_clust_7="13000.00000" pt_clust_8="13000.00000" pt_clust_9="36.10505"></scales>
<clustering>
<clus scale="   36.105">  2  9  1 -1</clus>
<clus scale="   80.213">  5  6 -1 -1</clus>
<clus scale="   92.257">  7  8 -1 -1</clus>
<clus scale="  133.178">  2  5  1 -1</clus>
<clus scale="   36.105">  2  5  1 -1</clus>
</clustering>
</event>
<event>
 9    1  0.2951046E-005  0.1817838E+03  0.7546771E-02  0.1167353E+00
         -2   -1    0    0    0  501 -0.00000000000E+00  0.00000000000E+00  0.19624060443E+03  0.19624060443E+03  0.00000000000E+00 0.  1.
          1   -1    0    0  502    0  0.00000000000E+00 -0.00000000000E+00 -0.26778025622E+03  0.26778025622E+03  0.00000000000E+00 0. -1.
         23    2    1    2    0    0  0.16708241783E+03 -0.19685907877E+02  0.89178865267E+02  0.20882427248E+03  0.85735858599E+02 0.  0.
        -24    2    1    2    0    0 -0.14129500660E+03  0.18726237792E+01 -0.10412488833E+03  0.19050391098E+03  0.74040273644E+02 0.  0.
         11    1    4    4    0    0 -0.96498158312E+02 -0.27740353712E+02 -0.90333312871E+02  0.13506120537E+03  0.00000000000E+00 0. -1.
        -12    1    4    4    0    0 -0.44796848286E+02  0.29612977492E+02 -0.13791575460E+02  0.55442705615E+02  0.00000000000E+00 0.  1.
        -13    1    3    3    0    0  0.39822400492E+02 -0.19919319465E+02  0.65776490032E+02  0.79430154915E+02  0.00000000000E+00 0.  1.
         13    1    3    3    0    0  0.12726001734E+03  0.23341158793E+00  0.23402375235E+02  0.12939411756E+03  0.00000000000E+00 0. -1.
         21    1    1    2  502  501 -0.25787411232E+02  0.17813284098E+02 -0.56593628729E+02  0.64692677183E+02  0.00000000000E+00 0.  1.
<scales pt_clust_5="13000.00000" pt_clust_6="13000.00000" pt_clust_7="13000.00000" pt_clust_8="13000.00000" pt_clust_9="31.34172"></scales>
<clustering>
<clus scale="   31.342">  2  9  1 -1</clus>
<clus scale="   74.040">  5  6 -1 -1</clus>
<clus scale="   85.736">  7  8 -1 -1</clus>
<clus scale="  176.569">  2  5  1 -1</clus>
<clus scale="   31.342">  2  5  1 -1</clus>
</clustering>
</event>
<event>
 9    1  0.2951046E-005  0.9030873E+02  0.7546771E-02  0.1307331E+00
         -4   -1    0    0    0  501 -0.00000000000E+00  0.00000000000E+00  0.13148575292E+03  0.13148575292E+03  0.00000000000E+00 0.  1.
          3   -1    0    0  502    0  0.00000000000E+00 -0.00000000000E+00 -0.44248884722E+03  0.44248884722E+03  0.00000000000E+00 0. -1.
         23    2    1    2    0    0 -0.56396672316E+01 -0.21519402640E+02  0.10479794943E+03  0.13868161056E+03  0.88062979548E+02 0.  0.
        -24    2    1    2    0    0  0.19708551963E+02 -0.16589587101E+02 -0.22109224778E+03  0.23639164760E+03  0.79596404484E+02 0.  0.
         13    1    4    4    0    0  0.38360484474E+02 -0.49811775535E+01 -0.20632653600E+03  0.20992136232E+03  0.00000000000E+00 0. -1.
        -14    1    4    4    0    0 -0.18651932511E+02 -0.11608409548E+02 -0.14765711775E+02  0.26470285280E+02  0.00000000000E+00 0.  1.
        -13    1    3    3    0    0  0.29349377228E+02 -0.28017725378E+02  0.92535916930E+02  0.10104095606E+03  0.00000000000E+00 0.  1.
         13    1    3    3    0    0 -0.34989044459E+02  0.64983227377E+01  0.12262032503E+02  0.37640654507E+02  0.00000000000E+00 0. -1.
         21    1    1    2  502  501 -0.14068884731E+02  0.38108989742E+02 -0.19470879596E+03  0.19890134198E+03  0.00000000000E+00 0.  1.
<scales pt_clust_5="13000.00000" pt_clust_6="13000.00000" pt_clust_7="13000.00000" pt_clust_8="13000.00000" pt_clust_9="40.62301"></scales>
<clustering>
<clus scale="   40.623">  2  9  1 -1</clus>
<clus scale="   79.596">  5  6 -1 -1</clus>
<clus scale="   82.074">  2  5  1 -1</clus>
<clus scale="   88.063">  7  8 -1 -1</clus>
<clus scale="   40.623">  2  5  1 -1</clus>
</clustering>
</event>
<event>
 9    1  0.2951046E-005  0.1183026E+03  0.7546771E-02  0.1250965E+00
         -2   -1    0    0    0  501 -0.00000000000E+00  0.00000000000E+00  0.33511117344E+02  0.33511117344E+02  0.00000000000E+00 0.  1.
          1   -1    0    0  502    0  0.00000000000E+00 -0.00000000000E+00 -0.46786471818E+03  0.46786471818E+03  0.00000000000E+00 0. -1.
        -24    2    1    2    0    0 -0.48830239380E+02 -0.39596307605E+02 -0.15408485344E+03  0.18382590299E+03  0.78086879159E+02 0.  0.
         23    2    1    2    0    0  0.57597873718E+02  0.60193710656E+02 -0.25395173610E+03  0.28299983111E+03  0.93040971003E+02 0.  0.
         11    1    3    3    0    0 -0.56974034738E+02  0.22664787651E+01 -0.97811666703E+02  0.11321793013E+03  0.00000000000E+00 0. -1.
        -12    1    3    3    0    0  0.81437953586E+01 -0.41862786370E+02 -0.56273186737E+02  0.70607972858E+02  0.00000000000E+00 0.  1.
        -13    1    4    4    0    0 -0.69154450686E+00  0.33732995079E+02 -0.18832189643E+03  0.19132048993E+03  0.00000000000E+00 0. -1.
         13    1    4    4    0    0  0.58289418225E+02  0.26460715577E+02 -0.65629839662E+02  0.91679341184E+02  0.00000000000E+00 0.  1.
         21    1    1    2  502  501 -0.87676343382E+01 -0.20597403051E+02 -0.26317011305E+02  0.34550101423E+02  0.00000000000E+00 0.  1.
<scales pt_clust_5="13000.00000" pt_clust_6="13000.00000" pt_clust_7="13000.00000" pt_clust_8="13000.00000" pt_clust_9="22.38581"></scales>
<clustering>
<clus scale="   22.386">  1  9  2 -1</clus>
<clus scale="   78.087">  5  6 -1 -1</clus>
<clus scale="   93.041">  7  8 -1 -1</clus>
<clus scale="  106.941">  1  5  2 -1</clus>
<clus scale="  118.303">  2  5  1 -1</clus>
</clustering>
</event>
<event>
 9    1  0.2951046E-005  0.1885153E+03  0.7546771E-02  0.1160872E+00
         -2   -1    0    0    0  501 -0.00000000000E+00  0.00000000000E+00  0.71134372423E+02  0.71134372423E+02  0.00000000000E+00 0.  1.
          1   -1    0    0  502    0  0.00000000000E+00 -0.00000000000E+00 -0.89399750236E+03  0.89399750236E+03  0.00000000000E+00 0. -1.
         23    2    1    2    0    0  0.17233410012E+03  0.37341104300E+02 -0.12746917023E+03  0.23556243082E+03  0.90265548907E+02 0.  0.
        -24    2    1    2    0    0 -0.15217871894E+03 -0.59542386052E+02 -0.65120603840E+03  0.67616805175E+03  0.80188973783E+02 0.  0.
         13    1    4    4    0    0 -0.15711333201E+03 -0.61608699626E+02 -0.56174627680E+03  0.58654847239E+03  0.00000000000E+00 0. -1.
        -14    1    4    4    0    0  0.49346130715E+01  0.20663135736E+01 -0.89459761606E+02  0.89619579360E+02  0.00000000000E+00 0.  1.
        -11    1    3    3    0    0  0.16431781083E+03  0.72305823304E+01 -0.92415029122E+02  0.18866150080E+03  0.00000000000E+00 0.  1.
         11    1    3    3    0    0  0.80162892847E+01  0.30110521970E+02 -0.35054141113E+02  0.46900930016E+02  0.00000000000E+00 0. -1.
         21    1    1    2  502  501 -0.20155381175E+02  0.22201281752E+02 -0.44187921298E+02  0.53401392214E+02  0.00000000000E+00 0. -1.
<scales pt_clust_5="13000.00000" pt_clust_6="13000.00000" pt_clust_7="13000.00000" pt_clust_8="13000.00000" pt_clust_9="29.98560"></scales>
<clustering>
<clus scale="   29.986">  1  9  2 -1</clus>
<clus scale="   80.189">  5  6 -1 -1</clus>
<clus scale="   90.266">  7  8 -1 -1</clus>
<clus scale="  183.903">  2  5  1 -1</clus>
<clus scale="  183.903">  2  5  1 -1</clus>
</clustering>
</event>
<event>
 9    1  0.2951046E-005  0.1349307E+03  0.7546771E-02  0.1222844E+00
          1   -1    0    0  502    0  0.00000000000E+00  0.00000000000E+00  0.31462207342E+03  0.31462207342E+03  0.00000000000E+00 0. -1.
         -2   -1    0    0    0  501 -0.00000000000E+00 -0.00000000000E+00 -0.11280674816E+03  0.11280674816E+03  0.00000000000E+00 0.  1.
        -24    2    1    2    0    0 -0.10143712610E+03 -0.66268760840E+01  0.57426719429E+00  0.12953764890E+03  0.80288645907E+02 0.  0.
         23    2    1    2    0    0  0.82070719236E+02  0.78284487257E+02  0.13135796110E+03  0.19594256703E+03  0.90964343174E+02 0.  0.
         11    1    3    3    0    0 -0.93393898449E+02 -0.18592530949E+01  0.30436457284E+02  0.98245890609E+02  0.00000000000E+00 0. -1.
        -12    1    3    3    0    0 -0.80432276530E+01 -0.47676229892E+01 -0.29862190090E+02  0.31291758292E+02  0.00000000000E+00 0.  1.
        -11    1    4    4    0    0  0.16744002943E+02  0.72777984702E+02  0.95455265310E+02  0.12119696517E+03  0.00000000000E+00 0.  1.
         11    1    4    4    0    0  0.65326716292E+02  0.55065025554E+01  0.35902695789E+02  0.74745601856E+02  0.00000000000E+00 0. -1.
         21    1    1    2  502  501  0.19366406866E+02 -0.71657611173E+02  0.69883096966E+02  0.10194860566E+03  0.00000000000E+00 0. -1.
<scales pt_clust_5="13000.00000" pt_clust_6="13000.00000" pt_clust_7="13000.00000" pt_clust_8="13000.00000" pt_clust_9="74.22850"></scales>
<clustering>
<clus scale="   74.229">  1  9  2 -1</clus>
<clus scale="   80.289">  5  6 -1 -1</clus>
<clus scale="   90.964">  7  8 -1 -1</clus>
<clus scale="  127.977">  2  5  1 -1</clus>
<clus scale="   74.229">  1  5  2 -1</clus>
</clustering>
</event>
<event>
 9    1  0.2951046E-005  0.1173990E+03  0.7546771E-02  0.1250941E+00
          1   -1    0    0  502    0  0.00000000000E+00  0.00000000000E+00  0.57797961824E+03  0.57797961824E+03  0.00000000000E+00 0. -1.
         -2   -1    0    0    0  501 -0.00000000000E+00 -0.00000000000E+00 -0.32863366890E+02  0.32863366890E+02  0.00000000000E+00 0.  1.
        -24    2    1    2    0    0  0.79932547086E+02  0.19714295286E+02  0.17386683628E+03  0.20836662135E+03  0.80056896089E+02 0.  0.
         23    2    1    2    0    0 -0.67729949593E+02  0.12061645796E+02  0.22258426254E+03  0.24996426133E+03  0.90584483449E+02 0.  0.
         11    1    3    3    0    0  0.37444136269E+02 -0.16919737395E+02  0.13232975123E+03  0.13856227450E+03  0.00000000000E+00 0. -1.
        -12    1    3    3    0    0  0.42488410817E+02  0.36634032681E+02  0.41537085053E+02  0.69804346849E+02  0.00000000000E+00 0.  1.
        -11    1    4    4    0    0 -0.62618921045E+02  0.39846351925E+02  0.20143498832E+03  0.21467397503E+03  0.00000000000E+00 0. -1.
         11    1    4    4    0    0 -0.51110285484E+01 -0.27784706129E+02  0.21149274221E+02  0.35290286306E+02  0.00000000000E+00 0.  1.
         21    1    1    2  502  501 -0.12202597493E+02 -0.31775941082E+02  0.14866515253E+03  0.15251210245E+03  0.00000000000E+00 0.  1.
<scales pt_clust_5="13000.00000" pt_clust_6="13000.00000" pt_clust_7="13000.00000" pt_clust_8="13000.00000" pt_clust_9="34.03842"></scales>
<clustering>
<clus scale="   34.038">  1  9  2 -1</clus>
<clus scale="   80.057">  5  6 -1 -1</clus>
<clus scale="   90.584">  7  8 -1 -1</clus>
<clus scale="  109.481">  2  5  1 -1</clus>
<clus scale="   34.038">  1  5  2 -1</clus>
</clustering>
</event>
<event>
 9    1  0.2951046E-005  0.9585573E+02  0.7546771E-02  0.1294706E+00
         -2   -1    0    0    0  501 -0.00000000000E+00  0.00000000000E+00  0.38500521437E+03  0.38500521437E+03  0.00000000000E+00 0.  1.
          1   -1    0    0  502    0  0.00000000000E+00 -0.00000000000E+00 -0.33719579817E+02  0.33719579817E+02  0.00000000000E+00 0. -1.
        -24    2    1    2    0    0 -0.28347706576E+02 -0.27923556638E+02  0.22079192729E+03  0.23871124721E+03  0.81551621104E+02 0.  0.
         23    2    1    2    0    0  0.66104988070E+01  0.40092457891E+01  0.98101863405E+02  0.13425732321E+03  0.91330610888E+02 0.  0.
         11    1    3    3    0    0  0.28772792562E+02 -0.10448419451E+02  0.64566671430E+02  0.71455567456E+02  0.00000000000E+00 0. -1.
        -12    1    3    3    0    0 -0.57120499139E+02 -0.17475137187E+02  0.15622525586E+03  0.16725567975E+03  0.00000000000E+00 0.  1.
        -13    1    4    4    0    0  0.44106455906E+02  0.21297045376E+02  0.41503097540E+02  0.64198525682E+02  0.00000000000E+00 0. -1.
         13    1    4    4    0    0 -0.37495957099E+02 -0.17287799586E+02  0.56598765865E+02  0.70058797526E+02  0.00000000000E+00 0.  1.
         21    1    1    2  502  501  0.21737207769E+02  0.23914310849E+02  0.32391843854E+02  0.45756223766E+02  0.00000000000E+00 0. -1.
<scales pt_clust_5="13000.00000" pt_clust_6="13000.00000" pt_clust_7="13000.00000" pt_clust_8="13000.00000" pt_clust_9="32.31719"></scales>
<clustering>
<clus scale="   32.317">  2  9  1 -1</clus>
<clus scale="   81.552">  5  6 -1 -1</clus>
<clus scale="   86.589">  1  5  2 -1</clus>
<clus scale="   91.331">  7  8 -1 -1</clus>
<clus scale="   32.317">  2  5  1 -1</clus>
</clustering>
</event>
<event>
 9    1  0.2951046E-005  0.9705395E+02  0.7546771E-02  0.1292121E+00
         -4   -1    0    0    0  501 -0.00000000000E+00  0.00000000000E+00  0.33368424436E+02  0.33368424436E+02  0.00000000000E+00 0.  1.
          3   -1    0    0  502    0  0.00000000000E+00 -0.00000000000E+00 -0.52359601891E+03  0.52359601891E+03  0.00000000000E+00 0. -1.
        -24    2    1    2    0    0  0.57325827323E+01  0.27941394729E+02 -0.83973254485E+02  0.11884594068E+03  0.79115523775E+02 0.  0.
         23    2    1    2    0    0  0.30301565676E+02 -0.59504396512E+02 -0.23338556644E+03  0.25873540480E+03  0.89533395935E+02 0.  0.
         13    1    3    3    0    0  0.40360020070E+02  0.21788179032E+01 -0.47231295342E+02  0.62164891436E+02  0.00000000000E+00 0. -1.
        -14    1    3    3    0    0 -0.34627437338E+02  0.25762576826E+02 -0.36741959143E+02  0.56681049240E+02  0.00000000000E+00 0.  1.
        -13    1    4    4    0    0 -0.10383273980E+02 -0.30505181603E+02 -0.16563808131E+02  0.36231729506E+02  0.00000000000E+00 0.  1.
         13    1    4    4    0    0  0.40684839656E+02 -0.28999214909E+02 -0.21682175831E+03  0.22250367529E+03  0.00000000000E+00 0. -1.
         21    1    1    2  502  501 -0.36034148409E+02  0.31563001783E+02 -0.17286877355E+03  0.17938309787E+03  0.00000000000E+00 0. -1.
<scales pt_clust_5="13000.00000" pt_clust_6="13000.00000" pt_clust_7="13000.00000" pt_clust_8="13000.00000" pt_clust_9="47.90285"></scales>
<clustering>
<clus scale="   47.903">  2  9  1 -1</clus>
<clus scale="   79.116">  5  6 -1 -1</clus>
<clus scale="   87.536">  1  5  2 -1</clus>
<clus scale="   89.533">  7  8 -1 -1</clus>
<clus scale="   47.903">  2  5  1 -1</clus>
</clustering>
</event>
<event>
 9    1  0.2951046E-005  0.9613889E+02  0.7546771E-02  0.1294596E+00
          1   -1    0    0  502    0  0.00000000000E+00  0.00000000000E+00  0.46099366218E+03  0.46099366218E+03  0.00000000000E+00 0. -1.
         -2   -1    0    0    0  501 -0.00000000000E+00 -0.00000000000E+00 -0.36325737118E+02  0.36325737118E+02  0.00000000000E+00 0.  1.
        -24    2    1    2    0    0 -0.24580451966E+02 -0.27125339219E+02  0.59101060320E+02  0.10632999010E+03  0.80455881187E+02 0.  0.
         23    2    1    2    0    0  0.26996267511E+02 -0.97208235752E+01  0.20458856997E+03  0.22583043346E+03  0.91211889824E+02 0.  0.
         11    1    3    3    0    0 -0.50439607747E+02 -0.73353495575E+01  0.52368953959E+02  0.73078510669E+02  0.00000000000E+00 0. -1.
        -12    1    3    3    0    0  0.25859155780E+02 -0.19789989661E+02  0.67321063608E+01  0.33251479434E+02  0.00000000000E+00 0.  1.
        -13    1    4    4    0    0 -0.82982441293E+01  0.27008421955E+02  0.14366695789E+03  0.14641895541E+03  0.00000000000E+00 0. -1.
         13    1    4    4    0    0  0.35294511641E+02 -0.36729245530E+02  0.60921612079E+02  0.79411478058E+02  0.00000000000E+00 0.  1.
         21    1    1    2  502  501 -0.24158155453E+01  0.36846162794E+02  0.16097829477E+03  0.16515897573E+03  0.00000000000E+00 0. -1.
<scales pt_clust_5="13000.00000" pt_clust_6="13000.00000" pt_clust_7="13000.00000" pt_clust_8="13000.00000" pt_clust_9="36.92527"></scales>
<clustering>
<clus scale="   36.925">  1  9  2 -1</clus>
<clus scale="   80.456">  5  6 -1 -1</clus>
<clus scale="   86.001">  2  5  1 -1</clus>
<clus scale="   91.212">  7  8 -1 -1</clus>
<clus scale="   36.925">  1  5  2 -1</clus>
</clustering>
</event>
<event>
 9    1  0.2951046E-005  0.9039688E+02  0.7546771E-02  0.1308511E+00
         -2   -1    0    0    0  501 -0.00000000000E+00  0.00000000000E+00  0.75227439609E+03  0.75227439609E+03  0.00000000000E+00 0.  1.
          1   -1    0    0  502    0  0.00000000000E+00 -0.00000000000E+00 -0.85390291306E+02  0.85390291306E+02  0.00000000000E+00 0. -1.
        -24    2    1    2    0    0  0.98758052558E+01  0.85358613197E+01  0.56175834959E+03  0.56757876742E+03  0.80017632073E+02 0.  0.
         23    2    1    2    0    0  0.32178452447E+02  0.28696978966E+02  0.16182393900E+03  0.19027659074E+03  0.90328424907E+02 0.  0.
         11    1    3    3    0    0 -0.24591173866E+02 -0.57933405253E+01  0.70246344779E+02  0.74651440585E+02  0.00000000000E+00 0. -1.
        -12    1    3    3    0    0  0.34466979122E+02  0.14329201845E+02  0.49151200481E+03  0.49292732684E+03  0.00000000000E+00 0.  1.
        -13    1    4    4    0    0 -0.17280408671E+01 -0.29497154782E+02  0.73395526628E+02  0.79119982270E+02  0.00000000000E+00 0. -1.
         13    1    4    4    0    0  0.33906493314E+02  0.58194133748E+02  0.88428412368E+02  0.11115660847E+03  0.00000000000E+00 0.  1.
         21    1    1    2  502  501 -0.42054257703E+02 -0.37232840286E+02 -0.56698183800E+02  0.79809329235E+02  0.00000000000E+00 0. -1.
<scales pt_clust_5="13000.00000" pt_clust_6="13000.00000" pt_clust_7="13000.00000" pt_clust_8="13000.00000" pt_clust_9="56.16801"></scales>
<clustering>
<clus scale="   56.168">  2  9  1 -1</clus>
<clus scale="   80.018">  5  6 -1 -1</clus>
<clus scale="   80.095">  1  5  2 -1</clus>
<clus scale="   90.328">  7  8 -1 -1</clus>
<clus scale="   56.168">  2  5  1 -1</clus>
</clustering>
</event>
<event>
 9    1  0.2951046E-005  0.1381229E+03  0.7546771E-02  0.1216696E+00
         -2   -1    0    0    0  501 -0.00000000000E+00  0.00000000000E+00  0.24564686410E+03  0.24564686410E+03  0.00000000000E+00 0.  1.
          1   -1    0    0  502    0  0.00000000000E+00 -0.00000000000E+00 -0.97856292864E+02  0.97856292864E+02  0.00000000000E+00 0. -1.
        -24    2    1    2    0    0 -0.22273007676E+02 -0.99336044458E+02  0.75100677505E+02  0.15286352940E+03  0.85810315582E+02 0.  0.
         23    2    1    2    0    0  0.43249229767E+02  0.99635887525E+02  0.31223435622E+02  0.14416857262E+03  0.89509041115E+02 0.  0.
         13    1    3    3    0    0 -0.45582234707E+01 -0.53996970493E+02 -0.97334020332E+01  0.55056237964E+02  0.00000000000E+00 0. -1.
        -14    1    3    3    0    0 -0.17714784205E+02 -0.45339073965E+02  0.84834079539E+02  0.97807291439E+02  0.00000000000E+00 0.  1.
        -13    1    4    4    0    0 -0.20547881507E+02  0.61221459140E+02  0.25667953746E+02  0.69491915667E+02  0.00000000000E+00 0.  1.
         13    1    4    4    0    0  0.63797111273E+02  0.38414428385E+02  0.55554818762E+01  0.74676656954E+02  0.00000000000E+00 0. -1.
         21    1    1    2  502  501 -0.20976222091E+02 -0.29984306707E+00  0.41466458106E+02  0.46471054937E+02  0.00000000000E+00 0. -1.
<scales pt_clust_5="13000.00000" pt_clust_6="13000.00000" pt_clust_7="13000.00000" pt_clust_8="13000.00000" pt_clust_9="20.97837"></scales>
<clustering>
<clus scale="   20.978">  1  9  2 -1</clus>
<clus scale="   85.810">  5  6 -1 -1</clus>
<clus scale="   89.509">  7  8 -1 -1</clus>
<clus scale="  135.755">  1  5  2 -1</clus>
<clus scale="  138.123">  2  5  1 -1</clus>
</clustering>
</event>
<event>
 9    1  0.2951046E-005  0.1272598E+03  0.7546771E-02  0.1234887E+00
         -2   -1    0    0    0  501 -0.00000000000E+00  0.00000000000E+00  0.78257029606E+02  0.78257029606E+02  0.00000000000E+00 0.  1.
          1   -1    0    0  502    0  0.00000000000E+00 -0.00000000000E+00 -0.27585550867E+03  0.27585550867E+03  0.00000000000E+00 0. -1.
         23    2    1    2    0    0  0.48347406840E+01 -0.10612018803E+03 -0.55633564320E+02  0.15139833265E+03  0.92420195985E+02 0.  0.
        -24    2    1    2    0    0 -0.54055258893E+01  0.65207403770E+02 -0.99878775480E+02  0.14401646435E+03  0.80521717545E+02 0.  0.
         13    1    4    4    0    0 -0.11768736402E+02  0.34897508686E+02 -0.10620243271E+03  0.11240683245E+03  0.00000000000E+00 0. -1.
        -14    1    4    4    0    0  0.63632105127E+01  0.30309895084E+02  0.63236572282E+01  0.31609631899E+02  0.00000000000E+00 0.  1.
        -13    1    3    3    0    0 -0.31965806208E+02 -0.80706429835E+02 -0.61369935918E+02  0.10630902886E+03  0.00000000000E+00 0. -1.
         13    1    3    3    0    0  0.36800546892E+02 -0.25413758198E+02  0.57363715976E+01  0.45089303791E+02  0.00000000000E+00 0.  1.
         21    1    1    2  502  501  0.57078520531E+00  0.40912784263E+02 -0.42086139260E+02  0.58697741266E+02  0.00000000000E+00 0. -1.
<scales pt_clust_5="13000.00000" pt_clust_6="13000.00000" pt_clust_7="13000.00000" pt_clust_8="13000.00000" pt_clust_9="40.91677"></scales>
<clustering>
<clus scale="   40.917">  2  9  1 -1</clus>
<clus scale="   80.522">  5  6 -1 -1</clus>
<clus scale="   92.420">  7  8 -1 -1</clus>
<clus scale="  118.900">  2  5  1 -1</clus>
<clus scale="   40.917">  2  5  1 -1</clus>
</clustering>
</event>
<event>
 9    1  0.2951046E-005  0.1054416E+03  0.7546771E-02  0.1273566E+00
         -2   -1    0    0    0  501 -0.00000000000E+00  0.00000000000E+00  0.16106522419E+03  0.16106522419E+03  0.00000000000E+00 0.  1.
          1   -1    0    0  502    0  0.00000000000E+00 -0.00000000000E+00 -0.26206212336E+03  0.26206212336E+03  0.00000000000E+00 0. -1.
        -24    2    1    2    0    0  0.32543677410E+02  0.48630000870E+02  0.11525000404E+03  0.15236191854E+03  0.80669838639E+02 0.  0.
         23    2    1    2    0    0 -0.56552793569E+01 -0.33447888705E+02 -0.65405723614E+02  0.11679613356E+03  0.90623863796E+02 0.  0.
         11    1    3    3    0    0  0.13415033337E+02  0.20673659269E+02 -0.69077184278E+01  0.25594528339E+02  0.00000000000E+00 0. -1.
        -12    1    3    3    0    0  0.19128644073E+02  0.27956341601E+02  0.12215772247E+03  0.12676739020E+03  0.00000000000E+00 0.  1.
        -11    1    4    4    0    0 -0.39380047584E+02 -0.45834874305E+02 -0.46133805119E+02  0.76025994404E+02  0.00000000000E+00 0. -1.
         11    1    4    4    0    0  0.33724768227E+02  0.12386985600E+02 -0.19271918495E+02  0.40770139155E+02  0.00000000000E+00 0.  1.
         21    1    1    2  502  501 -0.26888398053E+02 -0.15182112165E+02 -0.15084117959E+03  0.15396929545E+03  0.00000000000E+00 0. -1.
<scales pt_clust_5="13000.00000" pt_clust_6="13000.00000" pt_clust_7="13000.00000" pt_clust_8="13000.00000" pt_clust_9="30.87851"></scales>
<clustering>
<clus scale="   30.879">  2  9  1 -1</clus>
<clus scale="   80.670">  5  6 -1 -1</clus>
<clus scale="   90.624">  7  8 -1 -1</clus>
<clus scale="   97.020">  1  5  2 -1</clus>
<clus scale="   30.879">  2  5  1 -1</clus>
</clustering>
</event>
<event>
 9    1  0.2951046E-005  0.2269052E+03  0.7546771E-02  0.1129505E+00
          1   -1    0    0  502    0  0.00000000000E+00  0.00000000000E+00  0.96967355607E+03  0.96967355607E+03  0.00000000000E+00 0. -1.
         -2   -1    0    0    0  501 -0.00000000000E+00 -0.00000000000E+00 -0.20995012729E+03  0.20995012729E+03  0.00000000000E+00 0.  1.
         23    2    1    2    0    0 -0.21176379123E+03 -0.30207579181E+02 -0.10482556138E+03  0.25474944687E+03  0.90291091719E+02 0.  0.
        -24    2    1    2    0    0  0.16938700213E+03 -0.80641775854E+02  0.62572840796E+03  0.65819344932E+03  0.80545165491E+02 0.  0.
         13    1    4    4    0    0  0.10698538456E+03 -0.88777470826E+02  0.47302673379E+03  0.49303306453E+03  0.00000000000E+00 0. -1.
        -14    1    4    4    0    0  0.62401617571E+02  0.81356949722E+01  0.15270167417E+03  0.16516038479E+03  0.00000000000E+00 0.  1.
        -13    1    3    3    0    0 -0.14079673527E+02 -0.25763718222E+02  0.30245720767E+01  0.29515325163E+02  0.00000000000E+00 0. -1.
         13    1    3    3    0    0 -0.19768411771E+03 -0.44438609585E+01 -0.10785013346E+03  0.22523412171E+03  0.00000000000E+00 0.  1.
         21    1    1    2  502  501  0.42376789101E+02  0.11084935503E+03  0.23882058220E+03  0.26668078718E+03  0.00000000000E+00 0. -1.
<scales pt_clust_5="13000.00000" pt_clust_6="13000.00000" pt_clust_7="13000.00000" pt_clust_8="13000.00000" pt_clust_9="118.67338"></scales>
<clustering>
<clus scale="   80.545">  5  6 -1 -1</clus>
<clus scale="   90.291">  7  8 -1 -1</clus>
<clus scale="  118.673">  1  9  2 -1</clus>
<clus scale="  223.206">  1  5  2 -1</clus>
<clus scale="  118.673">  1  5  2 -1</clus>
</clustering>
</event>
<event>
 9    1  0.2951046E-005  0.1256763E+03  0.7546771E-02  0.1256476E+00
         -2   -1    0    0    0  501 -0.00000000000E+00  0.00000000000E+00  0.27383909788E+03  0.27383909788E+03  0.00000000000E+00 0.  1.
          1   -1    0    0  502    0  0.00000000000E+00 -0.00000000000E+00 -0.79261156377E+02  0.79261156377E+02  0.00000000000E+00 0. -1.
        -24    2    1    2    0    0 -0.40584158352E+01  0.22440125556E+01  0.70551954991E+02  0.10663113393E+03  0.79819258567E+02 0.  0.
         23    2    1    2    0    0 -0.47338481682E+01 -0.87656047926E+02  0.82853474840E+02  0.15124467279E+03  0.91127716407E+02 0.  0.
         11    1    3    3    0    0  0.87630408639E+01  0.34199855700E+02  0.95352220009E+01  0.36569679705E+02  0.00000000000E+00 0. -1.
        -12    1    3    3    0    0 -0.12821456699E+02 -0.31955843145E+02  0.61016732990E+02  0.70061454223E+02  0.00000000000E+00 0.  1.
        -11    1    4    4    0    0 -0.35431421165E+02 -0.68640735489E+01  0.42806174924E+02  0.55989907333E+02  0.00000000000E+00 0. -1.
         11    1    4    4    0    0  0.30697572997E+02 -0.80791974377E+02  0.40047299916E+02  0.95254765457E+02  0.00000000000E+00 0.  1.
         21    1    1    2  502  501  0.87922640035E+01  0.85412035371E+02  0.41172511677E+02  0.95224447545E+02  0.00000000000E+00 0. -1.
<scales pt_clust_5="13000.00000" pt_clust_6="13000.00000" pt_clust_7="13000.00000" pt_clust_8="13000.00000" pt_clust_9="86.54643"></scales>
<clustering>
<clus scale="   79.819">  5  6 -1 -1</clus>
<clus scale="   79.954">  1  5  2 -1</clus>
<clus scale="   86.546">  2  9  1 -1</clus>
<clus scale="   91.128">  7  8 -1 -1</clus>
<clus scale="   86.546">  2  5  1 -1</clus>
</clustering>
</event>
<event>
 9    1  0.2951046E-005  0.1587308E+03  0.7546771E-02  0.1193520E+00
         -2   -1    0    0    0  501 -0.00000000000E+00  0.00000000000E+00  0.14418498301E+03  0.14418498301E+03  0.00000000000E+00 0.  1.
          1   -1    0    0  502    0  0.00000000000E+00 -0.00000000000E+00 -0.47708919955E+03  0.47708919955E+03  0.00000000000E+00 0. -1.
        -24    2    1    2    0    0  0.11824355012E+03 -0.30964160458E+02  0.18519108436E+02  0.14234799209E+03  0.70566827180E+02 0.  0.
         23    2    1    2    0    0 -0.11593773721E+03  0.10685162263E+03 -0.84038096810E+02  0.20097100717E+03  0.92022365961E+02 0.  0.
         13    1    3    3    0    0  0.32227139942E+02 -0.39890210513E+02 -0.79841423037E+01  0.51899556568E+02  0.00000000000E+00 0. -1.
        -14    1    3    3    0    0  0.86016410175E+02  0.89260500554E+01  0.26503250739E+02  0.90448435524E+02  0.00000000000E+00 0.  1.
        -13    1    4    4    0    0 -0.77689897316E+02  0.23133413932E+02 -0.71482815459E+02  0.10807713861E+03  0.00000000000E+00 0. -1.
         13    1    4    4    0    0 -0.38247839895E+02  0.83718208701E+02 -0.12555281351E+02  0.92893868552E+02  0.00000000000E+00 0.  1.
         21    1    1    2  502  501 -0.23058129059E+01 -0.75887462175E+02 -0.26738522816E+03  0.27795518331E+03  0.00000000000E+00 0. -1.
<scales pt_clust_5="13000.00000" pt_clust_6="13000.00000" pt_clust_7="13000.00000" pt_clust_8="13000.00000" pt_clust_9="75.92248"></scales>
<clustering>
<clus scale="   70.567">  5  6 -1 -1</clus>
<clus scale="   75.922">  2  9  1 -1</clus>
<clus scale="   92.022">  7  8 -1 -1</clus>
<clus scale="  147.333">  1  5  2 -1</clus>
<clus scale="   75.922">  2  5  1 -1</clus>
</clustering>
</event>
<event>
 9    1  0.2951046E-005  0.9787581E+02  0.7546771E-02  0.1290195E+00
          1   -1    0    0  502    0  0.00000000000E+00  0.00000000000E+00  0.55848076917E+02  0.55848076917E+02  0.00000000000E+00 0. -1.
         -2   -1    0    0    0  501 -0.00000000000E+00 -0.00000000000E+00 -0.53789356830E+03  0.53789356830E+03  0.00000000000E+00 0.  1.
        -24    2    1    2    0    0 -0.14172245453E+02  0.37615385206E+02 -0.44414595231E+03  0.45311940137E+03  0.80223408063E+02 0.  0.
         23    2    1    2    0    0  0.25214679752E+02 -0.10505995611E+02 -0.52278195422E+02  0.10800936116E+03  0.90481248676E+02 0.  0.
         13    1    3    3    0    0 -0.34483742952E+02  0.52642672042E+02 -0.27585169850E+03  0.28293910831E+03  0.00000000000E+00 0. -1.
        -14    1    3    3    0    0  0.20311497498E+02 -0.15027286836E+02 -0.16829425381E+03  0.17018029306E+03  0.00000000000E+00 0.  1.
        -11    1    4    4    0    0  0.15290650113E+02  0.32512340965E+02 -0.52792134235E+02  0.63858168882E+02  0.00000000000E+00 0.  1.
         11    1    4    4    0    0  0.99240296390E+01 -0.43018336576E+02  0.51393881364E+00  0.44151192273E+02  0.00000000000E+00 0. -1.
         21    1    1    2  502  501 -0.11042434298E+02 -0.27109389595E+02  0.14378656342E+02  0.32612882695E+02  0.00000000000E+00 0. -1.
<scales pt_clust_5="13000.00000" pt_clust_6="13000.00000" pt_clust_7="13000.00000" pt_clust_8="13000.00000" pt_clust_9="29.27207"></scales>
<clustering>
<clus scale="   29.272">  1  9  2 -1</clus>
<clus scale="   80.223">  5  6 -1 -1</clus>
<clus scale="   88.479">  2  5  1 -1</clus>
<clus scale="   90.481">  7  8 -1 -1</clus>
<clus scale="   29.272">  1  5  2 -1</clus>
</clustering>
</event>
<event>
 9    1  0.2951046E-005  0.9707775E+02  0.7546771E-02  0.1287834E+00
         -2   -1    0    0    0  501 -0.00000000000E+00  0.00000000000E+00  0.37213648670E+03  0.37213648670E+03  0.00000000000E+00 0.  1.
          1   -1    0    0  502    0  0.00000000000E+00 -0.00000000000E+00 -0.85975628033E+02  0.85975628033E+02  0.00000000000E+00 0. -1.
        -24    2    1    2    0    0  0.26643393361E+02  0.40046914686E+02  0.30717258966E+03  0.32126060094E+03  0.80868708987E+02 0.  0.
         23    2    1    2    0    0 -0.46834367566E+02 -0.44847206017E+02 -0.35484434048E+02  0.11154978717E+03  0.83543282707E+02 0.  0.
         13    1    3    3    0    0 -0.20910898246E+02  0.41235423983E+02  0.13884085558E+03  0.14633662916E+03  0.00000000000E+00 0. -1.
        -14    1    3    3    0    0  0.47554291607E+02 -0.11885092963E+01  0.16833173408E+03  0.17492397178E+03  0.00000000000E+00 0.  1.
        -13    1    4    4    0    0 -0.68629264556E+02 -0.42584327500E+02 -0.38423659679E+02  0.89441481010E+02  0.00000000000E+00 0. -1.
         13    1    4    4    0    0  0.21794896990E+02 -0.22628785172E+01  0.29392256309E+01  0.22108306161E+02  0.00000000000E+00 0.  1.
         21    1    1    2  502  501  0.20190974205E+02  0.48002913304E+01  0.14472703051E+02  0.25301726616E+02  0.00000000000E+00 0. -1.
<scales pt_clust_5="13000.00000" pt_clust_6="13000.00000" pt_clust_7="13000.00000" pt_clust_8="13000.00000" pt_clust_9="20.75375"></scales>
<clustering>
<clus scale="   20.754">  2  9  1 -1</clus>
<clus scale="   80.869">  5  6 -1 -1</clus>
<clus scale="   83.543">  7  8 -1 -1</clus>
<clus scale="   94.786">  1  5  2 -1</clus>
<clus scale="   20.754">  2  5  1 -1</clus>
</clustering>
</event>
<event>
 9    1  0.2951046E-005  0.1427328E+03  0.7546771E-02  0.1213104E+00
          1   -1    0    0  502    0  0.00000000000E+00  0.00000000000E+00  0.40527392270E+03  0.40527392270E+03  0.00000000000E+00 0. -1.
         -2   -1    0    0    0  501 -0.00000000000E+00 -0.00000000000E+00 -0.10074855964E+03  0.10074855964E+03  0.00000000000E+00 0.  1.
         23    2    1    2    0    0 -0.40729360198E+02 -0.80981122986E+02  0.48215596997E+01  0.13485952650E+03  0.99734755164E+02 0.  0.
        -24    2    1    2    0    0  0.46421507507E+02  0.13258483892E+03  0.19960857551E+03  0.25840481344E+03  0.84827874668E+02 0.  0.
         11    1    4    4    0    0 -0.13540172214E+02  0.86445304271E+02  0.93162642154E+02  0.12781003398E+03  0.00000000000E+00 0. -1.
        -12    1    4    4    0    0  0.59961679721E+02  0.46139534646E+02  0.10644593336E+03  0.13059477945E+03  0.00000000000E+00 0.  1.
        -13    1    3    3    0    0 -0.49020540998E+02 -0.14483788881E+02  0.34396737161E+02  0.61611111883E+02  0.00000000000E+00 0.  1.
         13    1    3    3    0    0  0.82911807999E+01 -0.66497334105E+02 -0.29575177461E+02  0.73248414618E+02  0.00000000000E+00 0. -1.
         21    1    1    2  502  501 -0.56921473084E+01 -0.51603715931E+02  0.10009522785E+03  0.11275814240E+03  0.00000000000E+00 0.  1.
<scales pt_clust_5="13000.00000" pt_clust_6="13000.00000" pt_clust_7="13000.00000" pt_clust_8="13000.00000" pt_clust_9="51.91670"></scales>
<clustering>
<clus scale="   51.917">  1  9  2 -1</clus>
<clus scale="   84.828">  5  6 -1 -1</clus>
<clus scale="   99.735">  7  8 -1 -1</clus>
<clus scale="  132.746">  1  5  2 -1</clus>
<clus scale="   51.917">  1  5  2 -1</clus>
</clustering>
</event>
<event>
 9    1  0.2951046E-005  0.1192579E+03  0.7546771E-02  0.1244976E+00
          1   -1    0    0  502    0  0.00000000000E+00  0.00000000000E+00  0.27233229354E+03  0.27233229354E+03  0.00000000000E+00 0. -1.
         -2   -1    0    0    0  501 -0.00000000000E+00 -0.00000000000E+00 -0.17218172412E+03  0.17218172412E+03  0.00000000000E+00 0.  1.
         23    2    1    2    0    0  0.58641911920E+02 -0.53805956094E+02 -0.13171215322E+03  0.17850529906E+03  0.90454937628E+02 0.  0.
        -24    2    1    2    0    0 -0.52802491181E+02  0.32332218491E+02  0.19761355183E+03  0.22516479688E+03  0.88400194917E+02 0.  0.
         11    1    4    4    0    0 -0.68501206755E+02 -0.32997937459E+01  0.13525351987E+03  0.15164701976E+03  0.00000000000E+00 0. -1.
        -12    1    4    4    0    0  0.15698715574E+02  0.35632012237E+02  0.62360031955E+02  0.73517777117E+02  0.00000000000E+00 0.  1.
        -11    1    3    3    0    0  0.58373157022E+02  0.39620154489E+01 -0.89623599743E+02  0.10703042865E+03  0.00000000000E+00 0.  1.
         11    1    3    3    0    0  0.26875489731E+00 -0.57767971542E+02 -0.42088553474E+02  0.71474870401E+02  0.00000000000E+00 0. -1.
         21    1    1    2  502  501 -0.58394207383E+01  0.21473737602E+02  0.34249170803E+02  0.40843921725E+02  0.00000000000E+00 0.  1.
<scales pt_clust_5="13000.00000" pt_clust_6="13000.00000" pt_clust_7="13000.00000" pt_clust_8="13000.00000" pt_clust_9="22.25354"></scales>
<clustering>
<clus scale="   22.254">  1  9  2 -1</clus>
<clus scale="   88.400">  5  6 -1 -1</clus>
<clus scale="   90.455">  7  8 -1 -1</clus>
<clus scale="  117.707">  1  5  2 -1</clus>
<clus scale="   22.254">  1  5  2 -1</clus>
</clustering>
</event>
<event>
 9    1  0.2951046E-005  0.8816653E+02  0.7546771E-02  0.1310311E+00
         -2   -1    0    0    0  501 -0.00000000000E+00  0.00000000000E+00  0.15630463438E+03  0.15630463438E+03  0.00000000000E+00 0.  1.
          1   -1    0    0  502    0  0.00000000000E+00 -0.00000000000E+00 -0.58602541539E+03  0.58602541539E+03  0.00000000000E+00 0. -1.
        -24    2    1    2    0    0 -0.69765535152E+00  0.14934924228E+02  0.12532158852E+03  0.15099316463E+03  0.82884838963E+02 0.  0.
         23    2    1    2    0    0 -0.20597802282E+02  0.45969826467E+02 -0.14777086347E+03  0.17898634879E+03  0.87535081869E+02 0.  0.
         11    1    3    3    0    0 -0.31895905355E+02 -0.19490138696E+02  0.63099936170E+02  0.73340413344E+02  0.00000000000E+00 0. -1.
        -12    1    3    3    0    0  0.31198250003E+02  0.34425062923E+02  0.62221652353E+02  0.77652751285E+02  0.00000000000E+00 0.  1.
        -11    1    4    4    0    0 -0.38310306040E+02  0.63900677015E+02 -0.97071622267E+02  0.12236778956E+03  0.00000000000E+00 0. -1.
         11    1    4    4    0    0  0.17712503758E+02 -0.17930850548E+02 -0.50699241202E+02  0.56618559229E+02  0.00000000000E+00 0.  1.
         21    1    1    2  502  501  0.21295457633E+02 -0.60904750694E+02 -0.40727150607E+03  0.41235053635E+03  0.00000000000E+00 0. -1.
<scales pt_clust_5="13000.00000" pt_clust_6="13000.00000" pt_clust_7="13000.00000" pt_clust_8="13000.00000" pt_clust_9="64.52042"></scales>
<clustering>
<clus scale="   64.520">  2  9  1 -1</clus>
<clus scale="   82.885">  5  6 -1 -1</clus>
<clus scale="   83.551">  1  5  2 -1</clus>
<clus scale="   87.535">  7  8 -1 -1</clus>
<clus scale="   64.520">  2  5  1 -1</clus>
</clustering>
</event>
<event>
 9    1  0.2951046E-005  0.1875840E+03  0.7546771E-02  0.1161330E+00
         -2   -1    0    0    0  501 -0.00000000000E+00  0.00000000000E+00  0.36356482526E+03  0.36356482526E+03  0.00000000000E+00 0.  1.
          1   -1    0    0  502    0  0.00000000000E+00 -0.00000000000E+00 -0.12529364027E+03  0.12529364027E+03  0.00000000000E+00 0. -1.
        -24    2    1    2    0    0 -0.62219053275E+02  0.15300801305E+03  0.16455547511E+03  0.24619499937E+03  0.79062068522E+02 0.  0.
         23    2    1    2    0    0  0.34059093389E+02 -0.16789679243E+03  0.84080903608E+02  0.20916575977E+03  0.85623372730E+02 0.  0.
         13    1    3    3    0    0 -0.39721031937E+02  0.57199345750E+02  0.22120562852E+02  0.73067399251E+02  0.00000000000E+00 0. -1.
        -14    1    3    3    0    0 -0.22498021339E+02  0.95808667301E+02  0.14243491225E+03  0.17312760012E+03  0.00000000000E+00 0.  1.
        -11    1    4    4    0    0  0.13442456246E+02 -0.13040785223E+03  0.98541536852E+02  0.16400409153E+03  0.00000000000E+00 0.  1.
         11    1    4    4    0    0  0.20616637143E+02 -0.37488940200E+02 -0.14460633244E+02  0.45161668240E+02  0.00000000000E+00 0. -1.
         21    1    1    2  502  501  0.28159959886E+02  0.14888779379E+02 -0.10365193724E+02  0.33497706386E+02  0.00000000000E+00 0.  1.
<scales pt_clust_5="13000.00000" pt_clust_6="13000.00000" pt_clust_7="13000.00000" pt_clust_8="13000.00000" pt_clust_9="31.85371"></scales>
<clustering>
<clus scale="   31.854">  2  9  1 -1</clus>
<clus scale="   79.062">  5  6 -1 -1</clus>
<clus scale="   85.623">  7  8 -1 -1</clus>
<clus scale="  184.681">  1  5  2 -1</clus>
<clus scale="   31.854">  2  5  1 -1</clus>
</clustering>
</event>
<event>
 9    1  0.2951046E-005  0.1115529E+03  0.7546771E-02  0.1268708E+00
          1   -1    0    0  502    0  0.00000000000E+00  0.00000000000E+00  0.37355135986E+02  0.37355135986E+02  0.00000000000E+00 0. -1.
         -2   -1    0    0    0  501 -0.00000000000E+00 -0.00000000000E+00 -0.52351281577E+03  0.52351281577E+03  0.00000000000E+00 0.  1.
         23    2    1    2    0    0 -0.14867959970E+01 -0.34154435273E+02 -0.36837781658E+03  0.38430968093E+03  0.10403354795E+03 0.  0.
        -24    2    1    2    0    0  0.17242223346E+02  0.57928542367E+02 -0.76664056501E+02  0.12651877422E+03  0.80477402949E+02 0.  0.
         13    1    4    4    0    0  0.38402647484E+02  0.11404449190E+02 -0.78855423164E+01  0.40828991816E+02  0.00000000000E+00 0. -1.
        -14    1    4    4    0    0 -0.21160424138E+02  0.46524093178E+02 -0.68778514184E+02  0.85689782408E+02  0.00000000000E+00 0.  1.
        -11    1    3    3    0    0 -0.12025131310E+02 -0.58827855669E+02 -0.33998245569E+03  0.34524395803E+03  0.00000000000E+00 0.  1.
         11    1    3    3    0    0  0.10538335313E+02  0.24673420396E+02 -0.28395360898E+02  0.39065722900E+02  0.00000000000E+00 0. -1.
         21    1    1    2  502  501 -0.15755427349E+02 -0.23774107094E+02 -0.41115806702E+02  0.50039496598E+02  0.00000000000E+00 0. -1.
<scales pt_clust_5="13000.00000" pt_clust_6="13000.00000" pt_clust_7="13000.00000" pt_clust_8="13000.00000" pt_clust_9="28.52090"></scales>
<clustering>
<clus scale="   28.521">  1  9  2 -1</clus>
<clus scale="   80.477">  5  6 -1 -1</clus>
<clus scale="   89.987">  1  5  2 -1</clus>
<clus scale="  104.034">  7  8 -1 -1</clus>
<clus scale="   28.521">  1  5  2 -1</clus>
</clustering>
</event>
<event>
 9    1  0.2951046E-005  0.1498018E+03  0.7546771E-02  0.1216679E+00
          1   -1    0    0  502    0  0.00000000000E+00  0.00000000000E+00  0.24127240962E+03  0.24127240962E+03  0.00000000000E+00 0. -1.
         -2   -1    0    0    0  501 -0.00000000000E+00 -0.00000000000E+00 -0.42225978600E+03  0.42225978600E+03  0.00000000000E+00 0.  1.
         23    2    1    2    0    0 -0.46682348276E+02 -0.28432996562E+02 -0.27216301355E+03  0.29224085012E+03  0.91347313031E+02 0.  0.
        -24    2    1    2    0    0 -0.78286815604E+02  0.63340121294E+02 -0.82249902089E+02  0.15469906275E+03  0.83820982810E+02 0.  0.
         13    1    4    4    0    0 -0.28283628436E+01  0.54500311499E+02 -0.40916077187E+02  0.68208569566E+02  0.00000000000E+00 0. -1.
        -14    1    4    4    0    0 -0.75458452761E+02  0.88398097949E+01 -0.41333824902E+02  0.86490493184E+02  0.00000000000E+00 0.  1.
        -13    1    3    3    0    0  0.17085455742E+02  0.18872623513E+02 -0.89889273581E+02  0.93424676725E+02  0.00000000000E+00 0. -1.
         13    1    3    3    0    0 -0.63767804017E+02 -0.47305620075E+02 -0.18227373997E+03  0.19881617339E+03  0.00000000000E+00 0.  1.
         21    1    1    2  502  501  0.12496916388E+03 -0.34907124732E+02  0.17342553926E+03  0.21659228275E+03  0.00000000000E+00 0. -1.
<scales pt_clust_5="13000.00000" pt_clust_6="13000.00000" pt_clust_7="13000.00000" pt_clust_8="13000.00000" pt_clust_9="124.15562"></scales>
<clustering>
<clus scale="   83.821">  5  6 -1 -1</clus>
<clus scale="   91.347">  7  8 -1 -1</clus>
<clus scale="  106.452">  2  7  1 -1</clus>
<clus scale="  124.156">  1  9  2 -1</clus>
<clus scale="  124.156">  1  5  2 -1</clus>
</clustering>
</event>
<event>
 9    1  0.2951046E-005  0.9693283E+02  0.7546771E-02  0.1296225E+00
          1   -1    0    0  502    0  0.00000000000E+00  0.00000000000E+00  0.25049643589E+03  0.25049643589E+03  0.00000000000E+00 0. -1.
         -2   -1    0    0    0  501 -0.00000000000E+00 -0.00000000000E+00 -0.13774549504E+03  0.13774549504E+03  0.00000000000E+00 0.  1.
        -24    2    1    2    0    0  0.11246798508E+02  0.61302840111E+01 -0.90606561279E+02  0.12215648125E+03  0.80923334741E+02 0.  0.
         23    2    1    2    0    0  0.47053024169E+01  0.25550478018E+02  0.56128197342E+02  0.11464368400E+03  0.96528922848E+02 0.  0.
         11    1    3    3    0    0 -0.19477028137E+02 -0.27110916749E+02 -0.22058454520E+02  0.40011646402E+02  0.00000000000E+00 0. -1.
        -12    1    3    3    0    0  0.30723826645E+02  0.33241200760E+02 -0.68548106759E+02  0.82144834846E+02  0.00000000000E+00 0.  1.
        -11    1    4    4    0    0 -0.21198510745E+02  0.52194984429E+02  0.13192185434E+02  0.57859545572E+02  0.00000000000E+00 0.  1.
         11    1    4    4    0    0  0.25903813162E+02 -0.26644506411E+02  0.42936011908E+02  0.56784138426E+02  0.00000000000E+00 0. -1.
         21    1    1    2  502  501 -0.15952100925E+02 -0.31680762029E+02  0.14722930478E+03  0.15144176568E+03  0.00000000000E+00 0. -1.
<scales pt_clust_5="13000.00000" pt_clust_6="13000.00000" pt_clust_7="13000.00000" pt_clust_8="13000.00000" pt_clust_9="35.47027"></scales>
<clustering>
<clus scale="   35.470">  1  9  2 -1</clus>
<clus scale="   80.923">  5  6 -1 -1</clus>
<clus scale="   81.405">  2  5  1 -1</clus>
<clus scale="   96.529">  7  8 -1 -1</clus>
<clus scale="   35.470">  1  5  2 -1</clus>
</clustering>
</event>
<event>
 9    1  0.2951046E-005  0.1016514E+03  0.7546771E-02  0.1278668E+00
         -2   -1    0    0    0  501 -0.00000000000E+00  0.00000000000E+00  0.69502870758E+03  0.69502870758E+03  0.00000000000E+00 0.  1.
          1   -1    0    0  502    0  0.00000000000E+00 -0.00000000000E+00 -0.16821557577E+03  0.16821557577E+03  0.00000000000E+00 0. -1.
        -24    2    1    2    0    0 -0.34936125438E+02 -0.34709939132E+02  0.63324676450E+03  0.64066750879E+03  0.83833640807E+02 0.  0.
         23    2    1    2    0    0  0.57086983940E+02  0.67361346830E+02 -0.18138699496E+02  0.12586705330E+03  0.87846615782E+02 0.  0.
         11    1    3    3    0    0  0.23965436426E+02 -0.25701736569E+02  0.16920092963E+03  0.17281167783E+03  0.00000000000E+00 0. -1.
        -12    1    3    3    0    0 -0.58901561863E+02 -0.90082025624E+01  0.46404583487E+03  0.46785583096E+03  0.00000000000E+00 0.  1.
        -13    1    4    4    0    0  0.43133850282E+02  0.25041178329E+02 -0.50359124485E+02  0.70877578057E+02  0.00000000000E+00 0. -1.
         13    1    4    4    0    0  0.13953133658E+02  0.42320168500E+02  0.32220424990E+02  0.54989475241E+02  0.00000000000E+00 0.  1.
         21    1    1    2  502  501 -0.22150858503E+02 -0.32651407698E+02 -0.88294933202E+02  0.96709721260E+02  0.00000000000E+00 0. -1.
<scales pt_clust_5="13000.00000" pt_clust_6="13000.00000" pt_clust_7="13000.00000" pt_clust_8="13000.00000" pt_clust_9="39.45599"></scales>
<clustering>
<clus scale="   39.456">  2  9  1 -1</clus>
<clus scale="   83.834">  5  6 -1 -1</clus>
<clus scale="   87.847">  7  8 -1 -1</clus>
<clus scale="   98.204">  1  5  2 -1</clus>
<clus scale="   39.456">  2  5  1 -1</clus>
</clustering>
</event>
<event>
 9    1  0.2951046E-005  0.1031767E+03  0.7546771E-02  0.1279054E+00
         -2   -1    0    0    0  501 -0.00000000000E+00  0.00000000000E+00  0.51158436272E+03  0.51158436272E+03  0.00000000000E+00 0.  1.
          1   -1    0    0  502    0  0.00000000000E+00 -0.00000000000E+00 -0.55131234645E+02  0.55131234645E+02  0.00000000000E+00 0. -1.
        -24    2    1    2    0    0 -0.48870673655E+02 -0.20434434305E+01  0.41984126646E+03  0.43038532304E+03  0.81069839423E+02 0.  0.
         23    2    1    2    0    0  0.30258999805E+02 -0.66785579810E+01  0.52223453470E+02  0.11051962705E+03  0.92342236626E+02 0.  0.
         13    1    3    3    0    0 -0.52153500234E+02 -0.46122186168E+01  0.12509787004E+03  0.13561245236E+03  0.00000000000E+00 0. -1.
        -14    1    3    3    0    0  0.32828265785E+01  0.25687751863E+01  0.29474339642E+03  0.29477287068E+03  0.00000000000E+00 0.  1.
        -13    1    4    4    0    0  0.48026598939E+02  0.26977220099E+02  0.46391926632E+02  0.72017605254E+02  0.00000000000E+00 0.  1.
         13    1    4    4    0    0 -0.17767599134E+02 -0.33655778079E+02  0.58315268385E+01  0.38502021796E+02  0.00000000000E+00 0. -1.
         21    1    1    2  502  501  0.18611673850E+02  0.87220014114E+01 -0.15611591858E+02  0.25810647269E+02  0.00000000000E+00 0. -1.
<scales pt_clust_5="13000.00000" pt_clust_6="13000.00000" pt_clust_7="13000.00000" pt_clust_8="13000.00000" pt_clust_9="20.55402"></scales>
<clustering>
<clus scale="   20.554">  2  9  1 -1</clus>
<clus scale="   81.070">  5  6 -1 -1</clus>
<clus scale="   92.342">  7  8 -1 -1</clus>
<clus scale="   93.224">  1  5  2 -1</clus>
<clus scale="   20.554">  2  5  1 -1</clus>
</clustering>
</event>
<event>
 9    1  0.2951046E-005  0.1493413E+03  0.7546771E-02  0.1203239E+00
          1   -1    0    0  502    0  0.00000000000E+00  0.00000000000E+00  0.58999781292E+03  0.58999781292E+03  0.00000000000E+00 0. -1.
         -2   -1    0    0    0  501 -0.00000000000E+00 -0.00000000000E+00 -0.10864099295E+03  0.10864099295E+03  0.00000000000E+00 0.  1.
        -24    2    1    2    0    0 -0.77359744777E+02 -0.53166754846E+02 -0.49602195636E+02  0.13350285042E+03  0.80940714879E+02 0.  0.
         23    2    1    2    0    0  0.10113531591E+03  0.66473102394E+02  0.50578986390E+03  0.52804386916E+03  0.91432575509E+02 0.  0.
         11    1    3    3    0    0 -0.81577237679E+02 -0.25768568536E+02 -0.11405743476E+02  0.86307333501E+02  0.00000000000E+00 0. -1.
        -12    1    3    3    0    0  0.42174929025E+01 -0.27398186310E+02 -0.38196452160E+02  0.47195516917E+02  0.00000000000E+00 0.  1.
        -13    1    4    4    0    0  0.75692896663E+02  0.86879025946E+02  0.43664553340E+03  0.45159351367E+03  0.00000000000E+00 0.  1.
         13    1    4    4    0    0  0.25442419247E+02 -0.20405923552E+02  0.69144330504E+02  0.76450355486E+02  0.00000000000E+00 0. -1.
         21    1    1    2  502  501 -0.23775571133E+02 -0.13306347548E+02  0.25169151708E+02  0.37092086291E+02  0.00000000000E+00 0. -1.
<scales pt_clust_5="13000.00000" pt_clust_6="13000.00000" pt_clust_7="13000.00000" pt_clust_8="13000.00000" pt_clust_9="27.24586"></scales>
<clustering>
<clus scale="   27.246">  2  9  1 -1</clus>
<clus scale="   80.941">  5  6 -1 -1</clus>
<clus scale="   91.433">  7  8 -1 -1</clus>
<clus scale="  143.158">  2  5  1 -1</clus>
<clus scale="  149.341">  1  5  2 -1</clus>
</clustering>
</event>
<event>
 9    1  0.2951046E-005  0.1928925E+03  0.7546771E-02  0.1156801E+00
         -2   -1    0    0    0  501 -0.00000000000E+00  0.00000000000E+00  0.34145660237E+03  0.34145660237E+03  0.00000000000E+00 0.  1.
          1   -1    0    0  502    0  0.00000000000E+00 -0.00000000000E+00 -0.37799939365E+03  0.37799939365E+03  0.00000000000E+00 0. -1.
        -24    2    1    2    0    0  0.16721511307E+03 -0.28601767871E+02  0.25596631920E+03  0.31729156525E+03  0.79851272063E+02 0.  0.
         23    2    1    2    0    0 -0.19015269554E+03 -0.30808872029E+02 -0.22804125990E+03  0.31154511394E+03  0.89164497333E+02 0.  0.
         13    1    3    3    0    0  0.62101166979E+02 -0.49827251354E+02  0.12216982870E+03  0.14582447312E+03  0.00000000000E+00 0. -1.
        -14    1    3    3    0    0  0.10511394609E+03  0.21225483483E+02  0.13379649051E+03  0.17146709213E+03  0.00000000000E+00 0.  1.
        -11    1    4    4    0    0 -0.17686858109E+02 -0.29193423075E+02 -0.14588937460E+02  0.37120317844E+02  0.00000000000E+00 0.  1.
         11    1    4    4    0    0 -0.17246583743E+03 -0.16154489538E+01 -0.21345232244E+03  0.27442479609E+03  0.00000000000E+00 0. -1.
         21    1    1    2  502  501  0.22937582468E+02  0.59410639900E+02 -0.64467850587E+02  0.90619316826E+02  0.00000000000E+00 0. -1.
<scales pt_clust_5="13000.00000" pt_clust_6="13000.00000" pt_clust_7="13000.00000" pt_clust_8="13000.00000" pt_clust_9="63.68482"></scales>
<clustering>
<clus scale="   63.685">  2  9  1 -1</clus>
<clus scale="   79.851">  5  6 -1 -1</clus>
<clus scale="   89.164">  7  8 -1 -1</clus>
<clus scale="  188.768">  1  5  2 -1</clus>
<clus scale="   63.685">  2  5  1 -1</clus>
</clustering>
</event>
<event>
 9    1  0.2951046E-005  0.2868365E+03  0.7546771E-02  0.1092045E+00
         -2   -1    0    0    0  501 -0.00000000000E+00  0.00000000000E+00  0.94738838875E+03  0.94738838875E+03  0.00000000000E+00 0.  1.
          1   -1    0    0  502    0  0.00000000000E+00 -0.00000000000E+00 -0.28340510279E+03  0.28340510279E+03  0.00000000000E+00 0. -1.
         23    2    1    2    0    0 -0.17690230527E+03 -0.19863310240E+03  0.76618001786E+03  0.81607171836E+03  0.90507981718E+02 0.  0.
        -24    2    1    2    0    0  0.21476621468E+03  0.24740807289E+03 -0.93867322226E+02  0.35241565433E+03  0.89724231583E+02 0.  0.
         13    1    4    4    0    0  0.10220520844E+03  0.15792007190E+03 -0.15744474032E+02  0.18876583961E+03  0.00000000000E+00 0. -1.
        -14    1    4    4    0    0  0.11256100624E+03  0.89488000991E+02 -0.78122848194E+02  0.16364981472E+03  0.00000000000E+00 0.  1.
        -13    1    3    3    0    0 -0.12269651502E+03 -0.17639283764E+03  0.66832919755E+03  0.70202050131E+03  0.00000000000E+00 0.  1.
         13    1    3    3    0    0 -0.54205790254E+02 -0.22240264767E+02  0.97850820312E+02  0.11405121705E+03  0.00000000000E+00 0. -1.
         21    1    1    2  502  501 -0.37863909408E+02 -0.48774970486E+02 -0.83294096659E+01  0.62306118857E+02  0.00000000000E+00 0.  1.
<scales pt_clust_5="13000.00000" pt_clust_6="13000.00000" pt_clust_7="13000.00000" pt_clust_8="13000.00000" pt_clust_9="61.74685"></scales>
<clustering>
<clus scale="   61.747">  2  9  1 -1</clus>
<clus scale="   89.724">  5  6 -1 -1</clus>
<clus scale="   90.508">  7  8 -1 -1</clus>
<clus scale="  286.590">  2  5  1 -1</clus>
<clus scale="   61.747">  2  5  1 -1</clus>
</clustering>
</event>
<event>
 9    1  0.2951046E-005  0.9630151E+02  0.7546771E-02  0.1292672E+00
          1   -1    0    0  502    0  0.00000000000E+00  0.00000000000E+00  0.30103826095E+03  0.30103826095E+03  0.00000000000E+00 0. -1.
         -2   -1    0    0    0  501 -0.00000000000E+00 -0.00000000000E+00 -0.84785045909E+02  0.84785045909E+02  0.00000000000E+00 0.  1.
        -24    2    1    2    0    0  0.42335556160E+02  0.98583893253E+01 -0.74016219146E+01  0.92002495947E+02  0.80747681689E+02 0.  0.
         23    2    1    2    0    0  0.25812679686E+02 -0.41551470636E+02  0.18057457260E+03  0.20719204762E+03  0.89042401051E+02 0.  0.
         13    1    3    3    0    0  0.66319217024E+02  0.11151307405E+02 -0.14877450775E+01  0.67266660307E+02  0.00000000000E+00 0. -1.
        -14    1    3    3    0    0 -0.23983660863E+02 -0.12929180799E+01 -0.59138768371E+01  0.24735835640E+02  0.00000000000E+00 0.  1.
        -13    1    4    4    0    0 -0.12997605717E+01 -0.60262175735E+02  0.15224843967E+03  0.16374616509E+03  0.00000000000E+00 0.  1.
         13    1    4    4    0    0  0.27112440258E+02  0.18710705099E+02  0.28326132933E+02  0.43445882532E+02  0.00000000000E+00 0. -1.
         21    1    1    2  502  501 -0.68148235846E+02  0.31693081311E+02  0.43080264361E+02  0.86628763291E+02  0.00000000000E+00 0.  1.
<scales pt_clust_5="13000.00000" pt_clust_6="13000.00000" pt_clust_7="13000.00000" pt_clust_8="13000.00000" pt_clust_9="75.15739"></scales>
<clustering>
<clus scale="   75.157">  2  9  1 -1</clus>
<clus scale="   80.748">  5  6 -1 -1</clus>
<clus scale="   88.688">  2  5  1 -1</clus>
<clus scale="   89.042">  7  8 -1 -1</clus>
<clus scale="   96.302">  1  5  2 -1</clus>
</clustering>
</event>
<event>
 9    1  0.2951046E-005  0.9730128E+02  0.7546771E-02  0.1291190E+00
          1   -1    0    0  502    0  0.00000000000E+00  0.00000000000E+00  0.13079023617E+03  0.13079023617E+03  0.00000000000E+00 0. -1.
         -2   -1    0    0    0  501 -0.00000000000E+00 -0.00000000000E+00 -0.40944904599E+03  0.40944904599E+03  0.00000000000E+00 0.  1.
        -24    2    1    2    0    0 -0.40674249921E+00 -0.33332888886E+02 -0.36875140695E+03  0.37915560953E+03  0.81670858863E+02 0.  0.
         23    2    1    2    0    0  0.23370659971E+02  0.43479310209E+02  0.87746967694E+02  0.13586872967E+03  0.91236742591E+02 0.  0.
         11    1    3    3    0    0  0.30197625887E+01 -0.33916975686E+02 -0.50631003737E+02  0.61016217067E+02  0.00000000000E+00 0. -1.
        -12    1    3    3    0    0 -0.34265050879E+01  0.58408679921E+00 -0.31812040321E+03  0.31813939246E+03  0.00000000000E+00 0.  1.
        -11    1    4    4    0    0  0.56148256461E+02  0.43004428572E+02  0.55693946822E+02  0.90021238011E+02  0.00000000000E+00 0.  1.
         11    1    4    4    0    0 -0.32777596490E+02  0.47488163696E+00  0.32053020872E+02  0.45847491658E+02  0.00000000000E+00 0. -1.
         21    1    1    2  502  501 -0.22963917472E+02 -0.10146421323E+02  0.23456294287E+01  0.25214942965E+02  0.00000000000E+00 0. -1.
<scales pt_clust_5="13000.00000" pt_clust_6="13000.00000" pt_clust_7="13000.00000" pt_clust_8="13000.00000" pt_clust_9="25.10560"></scales>
<clustering>
<clus scale="   25.106">  1  9  2 -1</clus>
<clus scale="   81.671">  5  6 -1 -1</clus>
<clus scale="   88.394">  2  5  1 -1</clus>
<clus scale="   91.237">  7  8 -1 -1</clus>
<clus scale="   25.106">  1  5  2 -1</clus>
</clustering>
</event>
<event>
 9    1  0.2951046E-005  0.1304524E+03  0.7546771E-02  0.1228380E+00
         -2   -1    0    0    0  501 -0.00000000000E+00  0.00000000000E+00  0.95488716402E+02  0.95488716402E+02  0.00000000000E+00 0.  1.
          1   -1    0    0  502    0  0.00000000000E+00 -0.00000000000E+00 -0.28669006620E+03  0.28669006620E+03  0.00000000000E+00 0. -1.
         23    2    1    2    0    0  0.97817351259E+02 -0.10622648761E+02  0.11796076919E+02  0.13200417693E+03  0.87205965515E+02 0.  0.
        -24    2    1    2    0    0 -0.93418930184E+02 -0.91247796963E+01 -0.18752516633E+03  0.22470505758E+03  0.80723706394E+02 0.  0.
         13    1    4    4    0    0 -0.97350670210E+02  0.15405028976E+02 -0.14220222356E+03  0.17302005749E+03  0.00000000000E+00 0. -1.
        -14    1    4    4    0    0  0.39317400262E+01 -0.24529808673E+02 -0.45322942768E+02  0.51685000090E+02  0.00000000000E+00 0.  1.
        -11    1    3    3    0    0  0.69781072946E+01  0.29195195809E+02  0.13247344381E+02  0.32810753921E+02  0.00000000000E+00 0.  1.
         11    1    3    3    0    0  0.90839243965E+02 -0.39817844570E+02 -0.14512674626E+01  0.99193423005E+02  0.00000000000E+00 0. -1.
         21    1    1    2  502  501 -0.43984210757E+01  0.19747428458E+02 -0.15472260385E+02  0.25469548093E+02  0.00000000000E+00 0. -1.
<scales pt_clust_5="13000.00000" pt_clust_6="13000.00000" pt_clust_7="13000.00000" pt_clust_8="13000.00000" pt_clust_9="20.23134"></scales>
<clustering>
<clus scale="   20.231">  2  9  1 -1</clus>
<clus scale="   80.724">  5  6 -1 -1</clus>
<clus scale="   87.206">  7  8 -1 -1</clus>
<clus scale="  126.211">  2  5  1 -1</clus>
<clus scale="   20.231">  2  5  1 -1</clus>
</clustering>
</event>
<event>
 9    1  0.2951046E-005  0.1381809E+03  0.7546771E-02  0.1219277E+00
          1   -1    0    0  502    0  0.00000000000E+00  0.00000000000E+00  0.40530012641E+02  0.40530012641E+02  0.00000000000E+00 0. -1.
         -2   -1    0    0    0  501 -0.00000000000E+00 -0.00000000000E+00 -0.57365939309E+03  0.57365939309E+03  0.00000000000E+00 0.  1.
        -24    2    1    2    0    0 -0.10722639896E+03 -0.31067014937E+01 -0.35546935821E+03  0.37986629319E+03  0.80204637339E+02 0.  0.
         23    2    1    2    0    0  0.86207022719E+02 -0.78660035756E+01 -0.14270972404E+03  0.19208879263E+03  0.95071100446E+02 0.  0.
         13    1    3    3    0    0 -0.22156492071E+02 -0.28272483223E+02 -0.48616767623E+02  0.60446948166E+02  0.00000000000E+00 0. -1.
        -14    1    3    3    0    0 -0.85069906888E+02  0.25165781729E+02 -0.30685259059E+03  0.31941934503E+03  0.00000000000E+00 0.  1.
        -13    1    4    4    0    0  0.69409054899E+02  0.29964999399E+02 -0.12703224799E+03  0.14782662183E+03  0.00000000000E+00 0. -1.
         13    1    4    4    0    0  0.16797967820E+02 -0.37831002975E+02 -0.15677476049E+02  0.44262170803E+02  0.00000000000E+00 0.  1.
         21    1    1    2  502  501  0.21019376239E+02  0.10972705069E+02 -0.34950298205E+02  0.42234319914E+02  0.00000000000E+00 0. -1.
<scales pt_clust_5="13000.00000" pt_clust_6="13000.00000" pt_clust_7="13000.00000" pt_clust_8="13000.00000" pt_clust_9="23.71106"></scales>
<clustering>
<clus scale="   23.711">  1  9  2 -1</clus>
<clus scale="   80.205">  5  6 -1 -1</clus>
<clus scale="   95.071">  7  8 -1 -1</clus>
<clus scale="  128.407">  2  5  1 -1</clus>
<clus scale="   23.711">  1  5  2 -1</clus>
</clustering>
</event>
<event>
 9    1  0.4643760E-005  0.4474127E+03  0.7546771E-02  0.1028802E+00
         -2   -1    0    0    0  501 -0.00000000000E+00  0.00000000000E+00  0.24647963316E+03  0.24647963316E+03  0.00000000000E+00 0.  1.
          1   -1    0    0  502    0  0.00000000000E+00 -0.00000000000E+00 -0.14547350750E+04  0.14547350750E+04  0.00000000000E+00 0. -1.
        -24    2    1    2    0    0  0.26996676884E+03 -0.36317155590E+03 -0.65141840814E+02  0.46260508038E+03  0.70600040210E+02 0.  0.
         23    2    1    2    0    0 -0.27142906709E+03  0.33941422010E+03 -0.11219990136E+04  0.12067917850E+04  0.92676180138E+02 0.  0.
         11    1    3    3    0    0  0.12907938551E+03 -0.16396726964E+03 -0.65156486407E+02  0.21861409149E+03  0.00000000000E+00 0. -1.
        -12    1    3    3    0    0  0.14088738333E+03 -0.19920428627E+03  0.14645593293E-01  0.24399098890E+03  0.00000000000E+00 0.  1.
        -11    1    4    4    0    0 -0.14622615782E+03  0.11552799057E+03 -0.42386444767E+03  0.46302254355E+03  0.00000000000E+00 0.  1.
         11    1    4    4    0    0 -0.12520290927E+03  0.22388622953E+03 -0.69813456598E+03  0.74376924141E+03  0.00000000000E+00 0. -1.
         21    1    1    2  502  501  0.14622982585E+01  0.23757335806E+02 -0.21114587364E+02  0.31817842799E+02  0.00000000000E+00 0.  1.
<scales pt_clust_5="13000.00000" pt_clust_6="13000.00000" pt_clust_7="13000.00000" pt_clust_8="13000.00000" pt_clust_9="23.80230"></scales>
<clustering>
<clus scale="   23.802">  1  9  2 -1</clus>
<clus scale="   70.600">  5  6 -1 -1</clus>
<clus scale="   92.676">  7  8 -1 -1</clus>
<clus scale="  443.366">  1  5  2 -1</clus>
<clus scale="  447.413">  2  5  1 -1</clus>
</clustering>
</event>
<event>
 9    1  0.2951046E-005  0.9236713E+02  0.7546771E-02  0.1300320E+00
         -2   -1    0    0    0  501 -0.00000000000E+00  0.00000000000E+00  0.45702995257E+03  0.45702995257E+03  0.00000000000E+00 0.  1.
          1   -1    0    0  502    0  0.00000000000E+00 -0.00000000000E+00 -0.38932290164E+02  0.38932290164E+02  0.00000000000E+00 0. -1.
        -24    2    1    2    0    0  0.24584805280E+01 -0.59885037091E+02  0.11079502288E+03  0.14943781613E+03  0.80398146755E+02 0.  0.
         23    2    1    2    0    0  0.19241578257E+01  0.11503382100E+02  0.94603282478E+02  0.12834787299E+03  0.85949783370E+02 0.  0.
         13    1    3    3    0    0 -0.20357962108E+02 -0.59291565015E+02  0.10998852115E+03  0.12659941188E+03  0.00000000000E+00 0. -1.
        -14    1    3    3    0    0  0.22816442636E+02 -0.59347207585E+00  0.80650172389E+00  0.22838404250E+02  0.00000000000E+00 0.  1.
        -13    1    4    4    0    0  0.22375035754E+02  0.23843792450E+02  0.20502357608E+01  0.32762358433E+02  0.00000000000E+00 0. -1.
         13    1    4    4    0    0 -0.20450877929E+02 -0.12340410350E+02  0.92553046717E+02  0.95585514553E+02  0.00000000000E+00 0.  1.
         21    1    1    2  502  501 -0.43826383537E+01  0.48381654991E+02  0.21269935705E+03  0.21817655361E+03  0.00000000000E+00 0.  1.
<scales pt_clust_5="13000.00000" pt_clust_6="13000.00000" pt_clust_7="13000.00000" pt_clust_8="13000.00000" pt_clust_9="48.57975"></scales>
<clustering>
<clus scale="   48.580">  1  9  2 -1</clus>
<clus scale="   80.398">  5  6 -1 -1</clus>
<clus scale="   85.950">  7  8 -1 -1</clus>
<clus scale="   87.225">  1  5  2 -1</clus>
<clus scale="   92.367">  2  5  1 -1</clus>
</clustering>
</event>
<event>
 9    1  0.2951046E-005  0.9747091E+02  0.7546771E-02  0.1293335E+00
          1   -1    0    0  502    0  0.00000000000E+00  0.00000000000E+00  0.12550114510E+03  0.12550114510E+03  0.00000000000E+00 0. -1.
         -2   -1    0    0    0  501 -0.00000000000E+00 -0.00000000000E+00 -0.16460375094E+03  0.16460375094E+03  0.00000000000E+00 0.  1.
        -24    2    1    2    0    0  0.31945274308E+02 -0.42984711517E+00 -0.11172567287E+03  0.14087727272E+03  0.79643547595E+02 0.  0.
         23    2    1    2    0    0 -0.10193083588E+02  0.15686064068E+02  0.31449778095E+02  0.10022609601E+03  0.93307182043E+02 0.  0.
         11    1    3    3    0    0  0.51445500715E+02 -0.12368229231E+02 -0.42171172809E+02  0.67661070448E+02  0.00000000000E+00 0. -1.
        -12    1    3    3    0    0 -0.19500226407E+02  0.11938382116E+02 -0.69554500058E+02  0.73216202276E+02  0.00000000000E+00 0.  1.
        -11    1    4    4    0    0  0.40039212410E+02 -0.41660069260E+01  0.66854308345E+01  0.40806728974E+02  0.00000000000E+00 0.  1.
         11    1    4    4    0    0 -0.50232295999E+02  0.19852070994E+02  0.24764347261E+02  0.59419367039E+02  0.00000000000E+00 0. -1.
         21    1    1    2  502  501 -0.21752190720E+02 -0.15256216952E+02  0.41173288930E+02  0.49001527304E+02  0.00000000000E+00 0. -1.
<scales pt_clust_5="13000.00000" pt_clust_6="13000.00000" pt_clust_7="13000.00000" pt_clust_8="13000.00000" pt_clust_9="26.56897"></scales>
<clustering>
<clus scale="   26.569">  1  9  2 -1</clus>
<clus scale="   79.644">  5  6 -1 -1</clus>
<clus scale="   84.483">  2  5  1 -1</clus>
<clus scale="   93.307">  7  8 -1 -1</clus>
<clus scale="   26.569">  1  5  2 -1</clus>
</clustering>
</event>
<event>
 9    1  0.2951046E-005  0.1527827E+03  0.7546771E-02  0.1229851E+00
         -2   -1    0    0    0  501 -0.00000000000E+00  0.00000000000E+00  0.68481153586E+02  0.68481153586E+02  0.00000000000E+00 0.  1.
          1   -1    0    0  502    0  0.00000000000E+00 -0.00000000000E+00 -0.60927927903E+03  0.60927927903E+03  0.00000000000E+00 0. -1.
        -24    2    1    2    0    0  0.12309264184E+03  0.98269887887E+01 -0.84678616629E+02  0.17142911036E+03  0.83481157039E+02 0.  0.
         23    2    1    2    0    0  0.17665795316E+02 -0.30818263905E+02 -0.13361483346E+03  0.15382197927E+03  0.67427233910E+02 0.  0.
         11    1    3    3    0    0  0.77172188556E+02 -0.28690944197E+02 -0.73690232854E+02  0.11049419615E+03  0.00000000000E+00 0. -1.
        -12    1    3    3    0    0  0.45920453288E+02  0.38517932986E+02 -0.10988383775E+02  0.60934914209E+02  0.00000000000E+00 0.  1.
        -13    1    4    4    0    0 -0.18958415943E+02 -0.22343111716E+02 -0.23797221326E+02  0.37748429359E+02  0.00000000000E+00 0. -1.
         13    1    4    4    0    0  0.36624211259E+02 -0.84751521895E+01 -0.10981761214E+03  0.11607354992E+03  0.00000000000E+00 0.  1.
         21    1    1    2  502  501 -0.14075843716E+03  0.20991275116E+02 -0.32250467535E+03  0.35250934298E+03  0.00000000000E+00 0. -1.
<scales pt_clust_5="13000.00000" pt_clust_6="13000.00000" pt_clust_7="13000.00000" pt_clust_8="13000.00000" pt_clust_9="127.95880"></scales>
<clustering>
<clus scale="   67.427">  7  8 -1 -1</clus>
<clus scale="   76.212">  2  7  1 -1</clus>
<clus scale="   83.481">  5  6 -1 -1</clus>
<clus scale="  127.959">  2  9  1 -1</clus>
<clus scale="   76.212">  2  5  1 -1</clus>
</clustering>
</event>
<event>
 9    1  0.2951046E-005  0.1291919E+03  0.7546771E-02  0.1232055E+00
         -2   -1    0    0    0  501 -0.00000000000E+00  0.00000000000E+00  0.27845968371E+03  0.27845968371E+03  0.00000000000E+00 0.  1.
          1   -1    0    0  502    0  0.00000000000E+00 -0.00000000000E+00 -0.86896826011E+02  0.86896826011E+02  0.00000000000E+00 0. -1.
         23    2    1    2    0    0 -0.99127443671E+02 -0.16492719429E+02  0.14135074466E+03  0.19546939672E+03  0.90166469118E+02 0.  0.
        -24    2    1    2    0    0  0.84323689472E+02 -0.12806111360E+02  0.66931548028E+02  0.13304811016E+03  0.77119948149E+02 0.  0.
         13    1    4    4    0    0  0.13001377409E+02 -0.36371760206E+02  0.13697332120E+02  0.40982406741E+02  0.00000000000E+00 0. -1.
        -14    1    4    4    0    0  0.71322312063E+02  0.23565648846E+02  0.53234215907E+02  0.92065703423E+02  0.00000000000E+00 0.  1.
        -13    1    3    3    0    0 -0.91270091389E+02 -0.43441916188E+02  0.83278860658E+02  0.13096869205E+03  0.00000000000E+00 0. -1.
         13    1    3    3    0    0 -0.78573522821E+01  0.26949196759E+02  0.58071884006E+02  0.64500704669E+02  0.00000000000E+00 0.  1.
         21    1    1    2  502  501  0.14803754200E+02  0.29298830789E+02 -0.16719434990E+02  0.36839002842E+02  0.00000000000E+00 0.  1.
<scales pt_clust_5="13000.00000" pt_clust_6="13000.00000" pt_clust_7="13000.00000" pt_clust_8="13000.00000" pt_clust_9="32.82640"></scales>
<clustering>
<clus scale="   32.826">  2  9  1 -1</clus>
<clus scale="   77.120">  5  6 -1 -1</clus>
<clus scale="   90.166">  7  8 -1 -1</clus>
<clus scale="  120.449">  2  5  1 -1</clus>
<clus scale="   32.826">  2  5  1 -1</clus>
</clustering>
</event>
<event>
 9    1  0.2951046E-005  0.9058705E+02  0.7546771E-02  0.1309135E+00
          3   -1    0    0  502    0  0.00000000000E+00  0.00000000000E+00  0.50787923244E+03  0.50787923244E+03  0.00000000000E+00 0. -1.
         -4   -1    0    0    0  501 -0.00000000000E+00 -0.00000000000E+00 -0.80725039507E+02  0.80725039507E+02  0.00000000000E+00 0.  1.
        -24    2    1    2    0    0  0.71259164967E+01 -0.11316007730E+02 -0.31499740077E+02  0.85705209394E+02  0.78576832307E+02 0.  0.
         23    2    1    2    0    0  0.13745880125E+02 -0.33124566813E+02  0.95222242677E+02  0.13616593057E+03  0.90485904977E+02 0.  0.
         13    1    3    3    0    0  0.41024828678E+02 -0.97851015658E+01 -0.46443276013E+01  0.42430585190E+02  0.00000000000E+00 0. -1.
        -14    1    3    3    0    0 -0.33898912181E+02 -0.15309061646E+01 -0.26855412475E+02  0.43274624204E+02  0.00000000000E+00 0.  1.
        -13    1    4    4    0    0  0.34766057953E+02 -0.26148419259E+02  0.10369712005E+03  0.11245226242E+03  0.00000000000E+00 0. -1.
         13    1    4    4    0    0 -0.21020177828E+02 -0.69761475532E+01 -0.84748773751E+01  0.23713668150E+02  0.00000000000E+00 0.  1.
         21    1    1    2  502  501 -0.20871796622E+02  0.44440574543E+02  0.36343169033E+03  0.36673313199E+03  0.00000000000E+00 0. -1.
<scales pt_clust_5="13000.00000" pt_clust_6="13000.00000" pt_clust_7="13000.00000" pt_clust_8="13000.00000" pt_clust_9="49.09783"></scales>
<clustering>
<clus scale="   49.098">  1  9  2 -1</clus>
<clus scale="   78.577">  5  6 -1 -1</clus>
<clus scale="   78.693">  2  5  1 -1</clus>
<clus scale="   90.486">  7  8 -1 -1</clus>
<clus scale="   49.098">  1  5  2 -1</clus>
</clustering>
</event>
<event>
 9    1  0.2951046E-005  0.1102483E+03  0.7546771E-02  0.1264129E+00
         -2   -1    0    0    0  501 -0.00000000000E+00  0.00000000000E+00  0.38185726443E+02  0.38185726443E+02  0.00000000000E+00 0.  1.
          1   -1    0    0  502    0  0.00000000000E+00 -0.00000000000E+00 -0.63518615212E+03  0.63518615212E+03  0.00000000000E+00 0. -1.
        -24    2    1    2    0    0 -0.47045145530E+02 -0.32271982087E+02 -0.77997907129E+02  0.12536112004E+03  0.79856185463E+02 0.  0.
         23    2    1    2    0    0  0.49293787390E+02  0.68711437708E+02 -0.27820493590E+03  0.30446124379E+03  0.90263633113E+02 0.  0.
         13    1    3    3    0    0  0.89667492650E+01 -0.30036408115E+02 -0.57844524429E+02  0.65791925122E+02  0.00000000000E+00 0. -1.
        -14    1    3    3    0    0 -0.56011894795E+02 -0.22355739716E+01 -0.20153382700E+02  0.59569194923E+02  0.00000000000E+00 0.  1.
        -11    1    4    4    0    0  0.44902883159E+02  0.15806917481E+01 -0.53305337058E+02  0.69715324436E+02  0.00000000000E+00 0. -1.
         11    1    4    4    0    0  0.43909042309E+01  0.67130745960E+02 -0.22489959884E+03  0.23474591935E+03  0.00000000000E+00 0.  1.
         21    1    1    2  502  501 -0.22486418595E+01 -0.36439455621E+02 -0.24079758264E+03  0.24354951473E+03  0.00000000000E+00 0. -1.
<scales pt_clust_5="13000.00000" pt_clust_6="13000.00000" pt_clust_7="13000.00000" pt_clust_8="13000.00000" pt_clust_9="36.50877"></scales>
<clustering>
<clus scale="   36.509">  2  9  1 -1</clus>
<clus scale="   79.856">  5  6 -1 -1</clus>
<clus scale="   90.264">  7  8 -1 -1</clus>
<clus scale="  101.903">  1  5  2 -1</clus>
<clus scale="   36.509">  2  5  1 -1</clus>
</clustering>
</event>
<event>
 9    1  0.2951046E-005  0.8597320E+02  0.7546771E-02  0.1316832E+00
         -2   -1    0    0    0  501 -0.00000000000E+00  0.00000000000E+00  0.12314774169E+03  0.12314774169E+03  0.00000000000E+00 0.  1.
          1   -1    0    0  502    0  0.00000000000E+00 -0.00000000000E+00 -0.27206378550E+03  0.27206378550E+03  0.00000000000E+00 0. -1.
         23    2    1    2    0    0 -0.79486286618E+00  0.45172469100E+01  0.71387405158E+02  0.11129489058E+03  0.85260505080E+02 0.  0.
        -24    2    1    2    0    0 -0.20928912239E+02 -0.27072805756E+02 -0.30626423376E+02  0.91671871600E+02  0.79339763391E+02 0.  0.
         13    1    4    4    0    0 -0.26901598576E+02 -0.28680792938E+02 -0.54390288431E+02  0.67116222816E+02  0.00000000000E+00 0. -1.
        -14    1    4    4    0    0  0.59726863376E+01  0.16079871819E+01  0.23763865055E+02  0.24555648784E+02  0.00000000000E+00 0.  1.
        -11    1    3    3    0    0  0.28359984744E+01 -0.38694302102E+02  0.18736478568E+02  0.43085351706E+02  0.00000000000E+00 0. -1.
         11    1    3    3    0    0 -0.36308613406E+01  0.43211549012E+02  0.52650926590E+02  0.68209538870E+02  0.00000000000E+00 0.  1.
         21    1    1    2  502  501  0.21723775105E+02  0.22555558846E+02 -0.18967702559E+03  0.19224476502E+03  0.00000000000E+00 0. -1.
<scales pt_clust_5="13000.00000" pt_clust_6="13000.00000" pt_clust_7="13000.00000" pt_clust_8="13000.00000" pt_clust_9="31.31574"></scales>
<clustering>
<clus scale="   31.316">  2  9  1 -1</clus>
<clus scale="   79.340">  5  6 -1 -1</clus>
<clus scale="   80.105">  2  5  1 -1</clus>
<clus scale="   85.261">  7  8 -1 -1</clus>
<clus scale="   31.316">  2  5  1 -1</clus>
</clustering>
</event>
<event>
 9    1  0.2951046E-005  0.1042610E+03  0.7546771E-02  0.1274916E+00
         -2   -1    0    0    0  501 -0.00000000000E+00  0.00000000000E+00  0.58242055105E+02  0.58242055105E+02  0.00000000000E+00 0.  1.
          1   -1    0    0  502    0  0.00000000000E+00 -0.00000000000E+00 -0.30751170138E+03  0.30751170138E+03  0.00000000000E+00 0. -1.
         23    2    1    2    0    0 -0.63977718013E+02  0.18416566209E+02 -0.39540641757E+02  0.11762493813E+03  0.88542901496E+02 0.  0.
        -24    2    1    2    0    0  0.22434680634E+02 -0.30232825692E+02 -0.14828813071E+03  0.17302602935E+03  0.80816449306E+02 0.  0.
         11    1    4    4    0    0 -0.21746806400E+00 -0.55277717585E+02 -0.87884867436E+02  0.10382400145E+03  0.00000000000E+00 0. -1.
        -12    1    4    4    0    0  0.22652148698E+02  0.25044891893E+02 -0.60403263276E+02  0.69202027896E+02  0.00000000000E+00 0.  1.
        -11    1    3    3    0    0 -0.17325158952E+02  0.38587280755E+02  0.13268175480E+02  0.44330394193E+02  0.00000000000E+00 0.  1.
         11    1    3    3    0    0 -0.46652559061E+02 -0.20170714546E+02 -0.52808817238E+02  0.73294543932E+02  0.00000000000E+00 0. -1.
         21    1    1    2  502  501  0.41543037379E+02  0.11816259483E+02 -0.61440873803E+02  0.75102789006E+02  0.00000000000E+00 0. -1.
<scales pt_clust_5="13000.00000" pt_clust_6="13000.00000" pt_clust_7="13000.00000" pt_clust_8="13000.00000" pt_clust_9="43.19083"></scales>
<clustering>
<clus scale="   43.191">  2  9  1 -1</clus>
<clus scale="   80.816">  5  6 -1 -1</clus>
<clus scale="   88.543">  7  8 -1 -1</clus>
<clus scale="   97.785">  2  5  1 -1</clus>
<clus scale="   43.191">  2  5  1 -1</clus>
</clustering>
</event>
<event>
 9    1  0.2951046E-005  0.1133193E+03  0.7546771E-02  0.1261225E+00
         -2   -1    0    0    0  501 -0.00000000000E+00  0.00000000000E+00  0.22375975168E+03  0.22375975168E+03  0.00000000000E+00 0.  1.
          1   -1    0    0  502    0  0.00000000000E+00 -0.00000000000E+00 -0.23282786295E+03  0.23282786295E+03  0.00000000000E+00 0. -1.
         23    2    1    2    0    0  0.33498586619E+02  0.50888849647E+02  0.18973328301E+03  0.22109299022E+03  0.95768268849E+02 0.  0.
        -24    2    1    2    0    0 -0.95745633677E+01 -0.61172939296E+02 -0.15520777130E+03  0.18471544212E+03  0.78718114308E+02 0.  0.
         13    1    4    4    0    0 -0.18293090498E+02 -0.75163446132E+02 -0.96181072591E+02  0.12343005922E+03  0.00000000000E+00 0. -1.
        -14    1    4    4    0    0  0.87185271305E+01  0.13990506836E+02 -0.59026698707E+02  0.61285382899E+02  0.00000000000E+00 0.  1.
        -13    1    3    3    0    0 -0.26819271564E+02  0.38009990815E+02  0.11590220905E+03  0.12488937021E+03  0.00000000000E+00 0.  1.
         13    1    3    3    0    0  0.60317858183E+02  0.12878858832E+02  0.73831073962E+02  0.96203620010E+02  0.00000000000E+00 0. -1.
         21    1    1    2  502  501 -0.23924023252E+02  0.10284089649E+02 -0.43593622986E+02  0.50779182285E+02  0.00000000000E+00 0. -1.
<scales pt_clust_5="13000.00000" pt_clust_6="13000.00000" pt_clust_7="13000.00000" pt_clust_8="13000.00000" pt_clust_9="26.04076"></scales>
<clustering>
<clus scale="   26.041">  2  9  1 -1</clus>
<clus scale="   78.718">  5  6 -1 -1</clus>
<clus scale="   95.768">  7  8 -1 -1</clus>
<clus scale="   99.329">  2  5  1 -1</clus>
<clus scale="   26.041">  2  5  1 -1</clus>
</clustering>
</event>
<event>
 9    1  0.2951046E-005  0.1413987E+03  0.7546771E-02  0.1218255E+00
          1   -1    0    0  502    0  0.00000000000E+00  0.00000000000E+00  0.62456686457E+02  0.62456686457E+02  0.00000000000E+00 0. -1.
         -2   -1    0    0    0  501 -0.00000000000E+00 -0.00000000000E+00 -0.34073028948E+03  0.34073028948E+03  0.00000000000E+00 0.  1.
        -24    2    1    2    0    0 -0.69021399950E+02 -0.65401186579E+02 -0.13506342438E+03  0.18765938917E+03  0.89065419113E+02 0.  0.
         23    2    1    2    0    0  0.61316841607E+02  0.42408166772E+02 -0.11312795056E+03  0.17688849224E+03  0.11372509756E+03 0.  0.
         13    1    3    3    0    0 -0.40214717780E+02  0.48325443891E+01 -0.10592252812E+02  0.41866129879E+02  0.00000000000E+00 0. -1.
        -14    1    3    3    0    0 -0.28806682170E+02 -0.70233730969E+02 -0.12447117157E+03  0.14579325929E+03  0.00000000000E+00 0.  1.
        -13    1    4    4    0    0  0.32274260787E+02  0.57945779936E+02 -0.12530101583E+03  0.14177336101E+03  0.00000000000E+00 0.  1.
         13    1    4    4    0    0  0.29042580820E+02 -0.15537613165E+02  0.12173065274E+02  0.35115131236E+02  0.00000000000E+00 0. -1.
         21    1    1    2  502  501  0.77045583430E+01  0.22993019808E+02 -0.30082228080E+02  0.38639094521E+02  0.00000000000E+00 0.  1.
<scales pt_clust_5="13000.00000" pt_clust_6="13000.00000" pt_clust_7="13000.00000" pt_clust_8="13000.00000" pt_clust_9="24.24952"></scales>
<clustering>
<clus scale="   24.250">  2  9  1 -1</clus>
<clus scale="   89.065">  5  6 -1 -1</clus>
<clus scale="  113.725">  7  8 -1 -1</clus>
<clus scale="  122.445">  2  5  1 -1</clus>
<clus scale="  141.399">  1  5  2 -1</clus>
</clustering>
</event>
<event>
 9    1  0.2951046E-005  0.3616666E+03  0.7546771E-02  0.1057926E+00
         -2   -1    0    0    0  501 -0.00000000000E+00  0.00000000000E+00  0.72816606479E+03  0.72816606479E+03  0.00000000000E+00 0.  1.
          1   -1    0    0  502    0  0.00000000000E+00 -0.00000000000E+00 -0.32321013810E+03  0.32321013810E+03  0.00000000000E+00 0. -1.
        -24    2    1    2    0    0 -0.10649101696E+03 -0.20878711774E+03 -0.14429781085E+03  0.28676092270E+03  0.80483360665E+02 0.  0.
         23    2    1    2    0    0 -0.17463222329E+02 -0.60376254365E+02 -0.29432331804E+02  0.11446826513E+03  0.91030024397E+02 0.  0.
         11    1    3    3    0    0 -0.53826055945E+02 -0.30416710661E+02 -0.35525169659E+02  0.71305387352E+02  0.00000000000E+00 0. -1.
        -12    1    3    3    0    0 -0.52664961011E+02 -0.17837040708E+03 -0.10877264120E+03  0.21545553535E+03  0.00000000000E+00 0.  1.
        -11    1    4    4    0    0  0.22353839570E+02 -0.64539995986E+02 -0.29585217595E+02  0.74433798275E+02  0.00000000000E+00 0. -1.
         11    1    4    4    0    0 -0.39817061899E+02  0.41637416215E+01  0.15288579095E+00  0.40034466858E+02  0.00000000000E+00 0.  1.
         21    1    1    2  502  501  0.12395423929E+03  0.26916337210E+03  0.57868606935E+03  0.65014701505E+03  0.00000000000E+00 0.  1.
<scales pt_clust_5="13000.00000" pt_clust_6="13000.00000" pt_clust_7="13000.00000" pt_clust_8="13000.00000" pt_clust_9="296.33355"></scales>
<clustering>
<clus scale="   80.483">  5  6 -1 -1</clus>
<clus scale="   91.030">  7  8 -1 -1</clus>
<clus scale="   91.878">  5  7 -1 -1</clus>
<clus scale="  296.334">  1  9  2 -1</clus>
<clus scale="  361.667">  2  5  1 -1</clus>
</clustering>
</event>
<event>
 9    1  0.2951046E-005  0.1386439E+03  0.7546771E-02  0.1217452E+00
         -2   -1    0    0    0  501 -0.00000000000E+00  0.00000000000E+00  0.48117849970E+03  0.48117849970E+03  0.00000000000E+00 0.  1.
          1   -1    0    0  502    0  0.00000000000E+00 -0.00000000000E+00 -0.16439995176E+03  0.16439995176E+03  0.00000000000E+00 0. -1.
        -24    2    1    2    0    0  0.10650044934E+03  0.24449634625E+02  0.39838955683E+03  0.42086394527E+03  0.80449307623E+02 0.  0.
         23    2    1    2    0    0 -0.53665595905E+02  0.64966603614E+01 -0.11400616847E+03  0.15544228033E+03  0.90789279584E+02 0.  0.
         13    1    3    3    0    0  0.14275374115E+02 -0.20432472476E+02  0.33021506538E+02  0.41372601219E+02  0.00000000000E+00 0. -1.
        -14    1    3    3    0    0  0.92225075227E+02  0.44882107101E+02  0.36536805029E+03  0.37949134405E+03  0.00000000000E+00 0.  1.
        -13    1    4    4    0    0 -0.25825006487E+02  0.19645571675E+02 -0.11979639522E+03  0.12411307649E+03  0.00000000000E+00 0. -1.
         13    1    4    4    0    0 -0.27840589418E+02 -0.13148911313E+02  0.57902267563E+01  0.31329203848E+02  0.00000000000E+00 0.  1.
         21    1    1    2  502  501 -0.52834853437E+02 -0.30946294987E+02  0.32395159583E+02  0.69272225859E+02  0.00000000000E+00 0.  1.
<scales pt_clust_5="13000.00000" pt_clust_6="13000.00000" pt_clust_7="13000.00000" pt_clust_8="13000.00000" pt_clust_9="61.23067"></scales>
<clustering>
<clus scale="   61.231">  2  9  1 -1</clus>
<clus scale="   80.449">  5  6 -1 -1</clus>
<clus scale="   90.789">  7  8 -1 -1</clus>
<clus scale="  132.104">  1  5  2 -1</clus>
<clus scale="   61.231">  2  5  1 -1</clus>
</clustering>
</event>
<event>
 9    1  0.2951046E-005  0.1116437E+03  0.7546771E-02  0.1260628E+00
         -2   -1    0    0    0  501 -0.00000000000E+00  0.00000000000E+00  0.69268823091E+02  0.69268823091E+02  0.00000000000E+00 0.  1.
          1   -1    0    0  502    0  0.00000000000E+00 -0.00000000000E+00 -0.46140340064E+03  0.46140340064E+03  0.00000000000E+00 0. -1.
         23    2    1    2    0    0 -0.20432377505E+02  0.69497117516E+02 -0.78086868144E+01  0.11580750422E+03  0.90017059776E+02 0.  0.
        -24    2    1    2    0    0 -0.20547863207E+02 -0.38778351115E+02 -0.31683430498E+03  0.33014083335E+03  0.81749726832E+02 0.  0.
         13    1    4    4    0    0  0.13985004733E+02 -0.41154667535E+02 -0.25990247205E+03  0.26351201490E+03  0.00000000000E+00 0. -1.
        -14    1    4    4    0    0 -0.34532867940E+02  0.23763164205E+01 -0.56931832923E+02  0.66628818449E+02  0.00000000000E+00 0.  1.
        -11    1    3    3    0    0 -0.42221223331E+02 -0.50866081816E+00 -0.25767250509E+01  0.42302836162E+02  0.00000000000E+00 0. -1.
         11    1    3    3    0    0  0.21788845826E+02  0.70005778334E+02 -0.52319617636E+01  0.73504668059E+02  0.00000000000E+00 0.  1.
         21    1    1    2  502  501  0.40980240712E+02 -0.30718766401E+02 -0.67491585758E+02  0.84723886161E+02  0.00000000000E+00 0.  1.
<scales pt_clust_5="13000.00000" pt_clust_6="13000.00000" pt_clust_7="13000.00000" pt_clust_8="13000.00000" pt_clust_9="51.21545"></scales>
<clustering>
<clus scale="   51.215">  2  9  1 -1</clus>
<clus scale="   81.750">  5  6 -1 -1</clus>
<clus scale="   90.017">  7  8 -1 -1</clus>
<clus scale="  105.092">  2  5  1 -1</clus>
<clus scale="   51.215">  2  5  1 -1</clus>
</clustering>
</event>
<event>
 9    1  0.2951046E-005  0.1012267E+03  0.7546771E-02  0.1283425E+00
         -2   -1    0    0    0  501 -0.00000000000E+00  0.00000000000E+00  0.34074616939E+02  0.34074616939E+02  0.00000000000E+00 0.  1.
          1   -1    0    0  502    0  0.00000000000E+00 -0.00000000000E+00 -0.58910753473E+03  0.58910753473E+03  0.00000000000E+00 0. -1.
        -24    2    1    2    0    0  0.43786473145E+02 -0.15235257142E+02 -0.59047646197E+02  0.10881706069E+03  0.78772837227E+02 0.  0.
         23    2    1    2    0    0 -0.28154177987E+02  0.38734127438E+02 -0.31613326072E+03  0.33231204549E+03  0.90543175762E+02 0.  0.
         13    1    3    3    0    0  0.29956177831E+02 -0.40297089412E+02 -0.62291547990E+02  0.80009155454E+02  0.00000000000E+00 0. -1.
        -14    1    3    3    0    0  0.13830295314E+02  0.25061832270E+02  0.32439017930E+01  0.28807905235E+02  0.00000000000E+00 0.  1.
        -11    1    4    4    0    0  0.31046626421E+02  0.22534757488E+02 -0.86647299119E+02  0.94760027183E+02  0.00000000000E+00 0.  1.
         11    1    4    4    0    0 -0.59200804407E+02  0.16199369950E+02 -0.22948596160E+03  0.23755201831E+03  0.00000000000E+00 0. -1.
         21    1    1    2  502  501 -0.15632295159E+02 -0.23498870296E+02 -0.17985201087E+03  0.18205304549E+03  0.00000000000E+00 0.  1.
<scales pt_clust_5="13000.00000" pt_clust_6="13000.00000" pt_clust_7="13000.00000" pt_clust_8="13000.00000" pt_clust_9="28.22349"></scales>
<clustering>
<clus scale="   28.223">  2  9  1 -1</clus>
<clus scale="   78.773">  5  6 -1 -1</clus>
<clus scale="   90.543">  7  8 -1 -1</clus>
<clus scale="   90.851">  1  5  2 -1</clus>
<clus scale="   28.223">  2  5  1 -1</clus>
</clustering>
</event>
<event>
 9    1  0.2951046E-005  0.1150009E+03  0.7546771E-02  0.1256858E+00
         -2   -1    0    0    0  501 -0.00000000000E+00  0.00000000000E+00  0.11391877405E+03  0.11391877405E+03  0.00000000000E+00 0.  1.
          1   -1    0    0  502    0  0.00000000000E+00 -0.00000000000E+00 -0.26408097436E+03  0.26408097436E+03  0.00000000000E+00 0. -1.
        -24    2    1    2    0    0  0.24945818120E+02  0.73715614245E+02  0.56740658579E+02  0.12390588597E+03  0.77954349565E+02 0.  0.
         23    2    1    2    0    0 -0.67625355220E+01 -0.27417868888E+02 -0.12270705526E+03  0.15630303291E+03  0.92607479538E+02 0.  0.
         13    1    3    3    0    0 -0.22141580839E+02  0.75095971312E+01 -0.22740899260E+01  0.23490745755E+02  0.00000000000E+00 0. -1.
        -14    1    3    3    0    0  0.47087398959E+02  0.66206017114E+02  0.59014748505E+02  0.10041514021E+03  0.00000000000E+00 0.  1.
        -11    1    4    4    0    0 -0.43126010788E+02 -0.35955058903E+02 -0.92752171647E+02  0.10842317286E+03  0.00000000000E+00 0. -1.
         11    1    4    4    0    0  0.36363475266E+02  0.85371900149E+01 -0.29954883614E+02  0.47879860057E+02  0.00000000000E+00 0.  1.
         21    1    1    2  502  501 -0.18183282598E+02 -0.46297745357E+02 -0.84195803629E+02  0.97790829529E+02  0.00000000000E+00 0. -1.
<scales pt_clust_5="13000.00000" pt_clust_6="13000.00000" pt_clust_7="13000.00000" pt_clust_8="13000.00000" pt_clust_9="49.74046"></scales>
<clustering>
<clus scale="   49.740">  2  9  1 -1</clus>
<clus scale="   77.954">  5  6 -1 -1</clus>
<clus scale="   92.607">  7  8 -1 -1</clus>
<clus scale="  103.566">  1  5  2 -1</clus>
<clus scale="   49.740">  2  5  1 -1</clus>
</clustering>
</event>
<event>
 9    1  0.2951046E-005  0.1226267E+03  0.7546771E-02  0.1241597E+00
         -2   -1    0    0    0  501 -0.00000000000E+00  0.00000000000E+00  0.11810356095E+03  0.11810356095E+03  0.00000000000E+00 0.  1.
          1   -1    0    0  502    0  0.00000000000E+00 -0.00000000000E+00 -0.33211564927E+03  0.33211564927E+03  0.00000000000E+00 0. -1.
        -24    2    1    2    0    0  0.77880285003E+02 -0.48831993058E+01  0.47787753491E+02  0.12219668762E+03  0.80988743994E+02 0.  0.
         23    2    1    2    0    0 -0.11039045634E+03  0.40781340991E+02 -0.20990869919E+03  0.25704169069E+03  0.90330493940E+02 0.  0.
         11    1    3    3    0    0  0.70770701328E+02  0.76846095495E+01 -0.11266013218E+01  0.71195608158E+02  0.00000000000E+00 0. -1.
        -12    1    3    3    0    0  0.71095836742E+01 -0.12567808855E+02  0.48914354812E+02  0.51001079461E+02  0.00000000000E+00 0.  1.
        -11    1    4    4    0    0 -0.88645492058E+02 -0.98438451936E+00 -0.18164392495E+03  0.20212250678E+03  0.00000000000E+00 0. -1.
         11    1    4    4    0    0 -0.21744964283E+02  0.41765725510E+02 -0.28264774235E+02  0.54919183913E+02  0.00000000000E+00 0.  1.
         21    1    1    2  502  501  0.32510171338E+02 -0.35898141685E+02 -0.51891142626E+02  0.70980831919E+02  0.00000000000E+00 0. -1.
<scales pt_clust_5="13000.00000" pt_clust_6="13000.00000" pt_clust_7="13000.00000" pt_clust_8="13000.00000" pt_clust_9="48.43127"></scales>
<clustering>
<clus scale="   48.431">  2  9  1 -1</clus>
<clus scale="   80.989">  5  6 -1 -1</clus>
<clus scale="   90.330">  7  8 -1 -1</clus>
<clus scale="  115.918">  1  5  2 -1</clus>
<clus scale="   48.431">  2  5  1 -1</clus>
</clustering>
</event>
<event>
 9    1  0.2951046E-005  0.1127438E+03  0.7546771E-02  0.1261298E+00
          3   -1    0    0  502    0  0.00000000000E+00  0.00000000000E+00  0.20769727251E+03  0.20769727251E+03  0.00000000000E+00 0. -1.
         -4   -1    0    0    0  501 -0.00000000000E+00 -0.00000000000E+00 -0.12320575003E+03  0.12320575003E+03  0.00000000000E+00 0.  1.
         23    2    1    2    0    0  0.57663440686E+02  0.23520753163E+02 -0.44962475634E+02  0.12117206740E+03  0.93716313844E+02 0.  0.
        -24    2    1    2    0    0 -0.43464586160E+02 -0.53476699226E+02  0.36246222792E+02  0.11080342837E+03  0.78833263671E+02 0.  0.
         13    1    4    4    0    0  0.87244470836E+01 -0.37957719305E+02  0.40501778357E+02  0.56189843227E+02  0.00000000000E+00 0. -1.
        -14    1    4    4    0    0 -0.52189033244E+02 -0.15518979921E+02 -0.42555555650E+01  0.54613585140E+02  0.00000000000E+00 0.  1.
        -11    1    3    3    0    0  0.57251100462E+02 -0.17379499897E+02  0.74496635719E+00  0.59835528707E+02  0.00000000000E+00 0. -1.
         11    1    3    3    0    0  0.41234022396E+00  0.40900253060E+02 -0.45707441991E+02  0.61336538688E+02  0.00000000000E+00 0.  1.
         21    1    1    2  502  501 -0.14198854526E+02  0.29955946063E+02  0.93207775324E+02  0.98927526782E+02  0.00000000000E+00 0. -1.
<scales pt_clust_5="13000.00000" pt_clust_6="13000.00000" pt_clust_7="13000.00000" pt_clust_8="13000.00000" pt_clust_9="33.15066"></scales>
<clustering>
<clus scale="   33.151">  1  9  2 -1</clus>
<clus scale="   78.833">  5  6 -1 -1</clus>
<clus scale="   93.716">  7  8 -1 -1</clus>
<clus scale="  100.713">  1  5  2 -1</clus>
<clus scale="   33.151">  1  5  2 -1</clus>
</clustering>
</event>
<event>
 9    1  0.2951046E-005  0.1023060E+03  0.7546771E-02  0.1284128E+00
         -2   -1    0    0    0  501 -0.00000000000E+00  0.00000000000E+00  0.10476596123E+03  0.10476596123E+03  0.00000000000E+00 0.  1.
          1   -1    0    0  502    0  0.00000000000E+00 -0.00000000000E+00 -0.19643254630E+03  0.19643254630E+03  0.00000000000E+00 0. -1.
         23    2    1    2    0    0  0.78181935176E+01  0.34660619839E+02  0.55227614733E+02  0.11731285004E+03  0.97209735300E+02 0.  0.
        -24    2    1    2    0    0  0.97319122862E+01 -0.21165828546E+02 -0.91638007620E+02  0.12435950878E+03  0.80777847017E+02 0.  0.
         13    1    4    4    0    0  0.75865725554E+01 -0.50495511896E+02 -0.39722581518E+02  0.64693402192E+02  0.00000000000E+00 0. -1.
        -14    1    4    4    0    0  0.21453397308E+01  0.29329683350E+02 -0.51915426102E+02  0.59666106587E+02  0.00000000000E+00 0.  1.
        -11    1    3    3    0    0  0.33771258793E+02  0.97751545011E+00 -0.13591446705E+02  0.36416766475E+02  0.00000000000E+00 0. -1.
         11    1    3    3    0    0 -0.25953065276E+02  0.33683104389E+02  0.68819061438E+02  0.80896083562E+02  0.00000000000E+00 0.  1.
         21    1    1    2  502  501 -0.17550105804E+02 -0.13494791293E+02 -0.55256192181E+02  0.59526148709E+02  0.00000000000E+00 0. -1.
<scales pt_clust_5="13000.00000" pt_clust_6="13000.00000" pt_clust_7="13000.00000" pt_clust_8="13000.00000" pt_clust_9="22.13855"></scales>
<clustering>
<clus scale="   22.139">  2  9  1 -1</clus>
<clus scale="   80.778">  5  6 -1 -1</clus>
<clus scale="   86.844">  2  5  1 -1</clus>
<clus scale="   97.210">  7  8 -1 -1</clus>
<clus scale="   22.139">  2  5  1 -1</clus>
</clustering>
</event>
<event>
 9    1  0.2951046E-005  0.1136506E+03  0.7546771E-02  0.1256650E+00
          1   -1    0    0  502    0  0.00000000000E+00  0.00000000000E+00  0.16148087878E+03  0.16148087878E+03  0.00000000000E+00 0. -1.
         -2   -1    0    0    0  501 -0.00000000000E+00 -0.00000000000E+00 -0.18856486191E+03  0.18856486191E+03  0.00000000000E+00 0.  1.
        -24    2    1    2    0    0  0.29527122813E+02 -0.69335647333E+02 -0.13556989442E+03  0.17469781728E+03  0.80379401069E+02 0.  0.
         23    2    1    2    0    0 -0.14157696250E+02  0.54364473777E+02  0.55848410834E+02  0.11850549414E+03  0.88139496121E+02 0.  0.
         13    1    3    3    0    0  0.40444624039E+02 -0.59416758450E+02 -0.49258452096E+02  0.87135032571E+02  0.00000000000E+00 0. -1.
        -14    1    3    3    0    0 -0.10917501225E+02 -0.99188888836E+01 -0.86311442325E+02  0.87562784709E+02  0.00000000000E+00 0.  1.
        -11    1    4    4    0    0 -0.37269292982E+02 -0.89069870930E+00  0.10020402607E+01  0.37293399258E+02  0.00000000000E+00 0.  1.
         11    1    4    4    0    0  0.23111596732E+02  0.55255172486E+02  0.54846370573E+02  0.81212094881E+02  0.00000000000E+00 0. -1.
         21    1    1    2  502  501 -0.15369426563E+02  0.14971173557E+02  0.52637500455E+02  0.56842429264E+02  0.00000000000E+00 0.  1.
<scales pt_clust_5="13000.00000" pt_clust_6="13000.00000" pt_clust_7="13000.00000" pt_clust_8="13000.00000" pt_clust_9="21.45589"></scales>
<clustering>
<clus scale="   21.456">  1  9  2 -1</clus>
<clus scale="   80.379">  5  6 -1 -1</clus>
<clus scale="   88.139">  7  8 -1 -1</clus>
<clus scale="  107.744">  2  5  1 -1</clus>
<clus scale="   21.456">  1  5  2 -1</clus>
</clustering>
</event>
<event>
 9    1  0.2951046E-005  0.9189050E+02  0.7546771E-02  0.1303958E+00
          3   -1    0    0  502    0  0.00000000000E+00  0.00000000000E+00  0.94974019712E+02  0.94974019712E+02  0.00000000000E+00 0. -1.
         -4   -1    0    0    0  501 -0.00000000000E+00 -0.00000000000E+00 -0.29671735207E+03  0.29671735207E+03  0.00000000000E+00 0.  1.
         23    2    1    2    0    0 -0.22343124213E+02 -0.68863143009E+02 -0.14538498123E+03  0.18573759627E+03  0.90112786184E+02 0.  0.
        -24    2    1    2    0    0 -0.10162746778E+02  0.88032296504E+01  0.37267896047E+02  0.90067197341E+02  0.80885262482E+02 0.  0.
         13    1    4    4    0    0 -0.75381665289E+01  0.33777329214E+02  0.50856154875E+02  0.61514879599E+02  0.00000000000E+00 0. -1.
        -14    1    4    4    0    0 -0.26245802489E+01 -0.24974099564E+02 -0.13588258828E+02  0.28552317742E+02  0.00000000000E+00 0.  1.
        -13    1    3    3    0    0 -0.54977891548E+02 -0.28788380614E+02 -0.62624916780E+02  0.88165864251E+02  0.00000000000E+00 0. -1.
         13    1    3    3    0    0  0.32634767335E+02 -0.40074762395E+02 -0.82760064455E+02  0.97571732016E+02  0.00000000000E+00 0.  1.
         21    1    1    2  502  501  0.32505870990E+02  0.60059913359E+02 -0.93626247171E+02  0.11588657817E+03  0.00000000000E+00 0.  1.
<scales pt_clust_5="13000.00000" pt_clust_6="13000.00000" pt_clust_7="13000.00000" pt_clust_8="13000.00000" pt_clust_9="68.29220"></scales>
<clustering>
<clus scale="   68.292">  2  9  1 -1</clus>
<clus scale="   80.885">  5  6 -1 -1</clus>
<clus scale="   82.861">  1  5  2 -1</clus>
<clus scale="   90.113">  7  8 -1 -1</clus>
<clus scale="   82.861">  1  5  2 -1</clus>
</clustering>
</event>
<event>
 9    1  0.2951046E-005  0.1088574E+03  0.7546771E-02  0.1273365E+00
          1   -1    0    0  502    0  0.00000000000E+00  0.00000000000E+00  0.55381159784E+03  0.55381159784E+03  0.00000000000E+00 0. -1.
         -2   -1    0    0    0  501 -0.00000000000E+00 -0.00000000000E+00 -0.26825758188E+02  0.26825758188E+02  0.00000000000E+00 0.  1.
        -24    2    1    2    0    0 -0.15266861914E+02 -0.27476604940E+02  0.15350171792E+03  0.17665544212E+03  0.81586315835E+02 0.  0.
         23    2    1    2    0    0 -0.22372712801E+02  0.39825787127E+02  0.29889944259E+03  0.31953006818E+03  0.10330516005E+03 0.  0.
         13    1    3    3    0    0 -0.34718535547E+02 -0.17782169241E+02  0.14956519979E+03  0.15456820902E+03  0.00000000000E+00 0. -1.
        -14    1    3    3    0    0  0.19451673633E+02 -0.96944356989E+01  0.39365181388E+01  0.22087233093E+02  0.00000000000E+00 0.  1.
        -13    1    4    4    0    0  0.24850077959E+02  0.23632768022E+02  0.28585310430E+02  0.44644754130E+02  0.00000000000E+00 0.  1.
         13    1    4    4    0    0 -0.47222790760E+02  0.16193019105E+02  0.27031413216E+03  0.27488531405E+03  0.00000000000E+00 0. -1.
         21    1    1    2  502  501  0.37639574716E+02 -0.12349182187E+02  0.74584679132E+02  0.84451845727E+02  0.00000000000E+00 0. -1.
<scales pt_clust_5="13000.00000" pt_clust_6="13000.00000" pt_clust_7="13000.00000" pt_clust_8="13000.00000" pt_clust_9="39.61363"></scales>
<clustering>
<clus scale="   39.614">  2  9  1 -1</clus>
<clus scale="   81.586">  5  6 -1 -1</clus>
<clus scale="   88.512">  2  5  1 -1</clus>
<clus scale="  103.305">  7  8 -1 -1</clus>
<clus scale="  108.857">  1  5  2 -1</clus>
</clustering>
</event>
<event>
 9    1  0.2951046E-005  0.9827709E+02  0.7546771E-02  0.1290178E+00
         -2   -1    0    0    0  501 -0.00000000000E+00  0.00000000000E+00  0.16196594831E+03  0.16196594831E+03  0.00000000000E+00 0.  1.
          1   -1    0    0  502    0  0.00000000000E+00 -0.00000000000E+00 -0.21742475905E+03  0.21742475905E+03  0.00000000000E+00 0. -1.
        -24    2    1    2    0    0 -0.34277448538E+02 -0.23105032179E+01  0.13153334959E+03  0.15807410849E+03  0.80660522036E+02 0.  0.
         23    2    1    2    0    0  0.23816872406E+02  0.20075216064E+02 -0.16041350601E+03  0.18767981036E+03  0.92309049367E+02 0.  0.
         13    1    3    3    0    0 -0.58710128867E+01  0.35862191754E+02  0.35013574430E+02  0.50463016003E+02  0.00000000000E+00 0. -1.
        -14    1    3    3    0    0 -0.28406435651E+02 -0.38172694972E+02  0.96519775164E+02  0.10761109248E+03  0.00000000000E+00 0.  1.
        -11    1    4    4    0    0  0.46137810514E+02  0.13977163172E+02 -0.33575293902E+02  0.58748268145E+02  0.00000000000E+00 0. -1.
         11    1    4    4    0    0 -0.22320938109E+02  0.60980528922E+01 -0.12683821211E+03  0.12893154222E+03  0.00000000000E+00 0.  1.
         21    1    1    2  502  501  0.10460576132E+02 -0.17764712846E+02 -0.26578654318E+02  0.33636788505E+02  0.00000000000E+00 0.  1.
<scales pt_clust_5="13000.00000" pt_clust_6="13000.00000" pt_clust_7="13000.00000" pt_clust_8="13000.00000" pt_clust_9="20.61574"></scales>
<clustering>
<clus scale="   20.616">  2  9  1 -1</clus>
<clus scale="   80.661">  5  6 -1 -1</clus>
<clus scale="   87.427">  1  5  2 -1</clus>
<clus scale="   92.309">  7  8 -1 -1</clus>
<clus scale="   20.616">  2  5  1 -1</clus>
</clustering>
</event>
<event>
 9    1  0.2951046E-005  0.8575035E+02  0.7546771E-02  0.1317863E+00
         -4   -1    0    0    0  501 -0.00000000000E+00  0.00000000000E+00  0.19223502938E+03  0.19223502938E+03  0.00000000000E+00 0.  1.
          3   -1    0    0  502    0  0.00000000000E+00 -0.00000000000E+00 -0.69990524172E+02  0.69990524172E+02  0.00000000000E+00 0. -1.
         23    2    1    2    0    0  0.15176692816E+02 -0.12520327916E+02  0.79640852647E+02  0.11028229261E+03  0.73705006867E+02 0.  0.
        -24    2    1    2    0    0 -0.58458117841E+02 -0.31534620814E+01  0.32402615138E+02  0.10479444749E+03  0.80651415935E+02 0.  0.
         11    1    4    4    0    0 -0.33762708200E+02  0.16063361327E+01 -0.25054524640E+02  0.42074101128E+02  0.00000000000E+00 0. -1.
        -12    1    4    4    0    0 -0.24695409640E+02 -0.47597982141E+01  0.57457139778E+02  0.62720346362E+02  0.00000000000E+00 0.  1.
        -11    1    3    3    0    0  0.11032215084E+02  0.19879468735E+02 -0.15289001467E+01  0.22786851088E+02  0.00000000000E+00 0.  1.
         11    1    3    3    0    0  0.41444777325E+01 -0.32399796652E+02  0.81169752793E+02  0.87495441523E+02  0.00000000000E+00 0. -1.
         21    1    1    2  502  501  0.43281425025E+02  0.15673789998E+02  0.10201037421E+02  0.47148813448E+02  0.00000000000E+00 0.  1.
<scales pt_clust_5="13000.00000" pt_clust_6="13000.00000" pt_clust_7="13000.00000" pt_clust_8="13000.00000" pt_clust_9="46.03205"></scales>
<clustering>
<clus scale="   46.032">  2  9  1 -1</clus>
<clus scale="   73.705">  7  8 -1 -1</clus>
<clus scale="   79.252">  1  7  2 -1</clus>
<clus scale="   80.651">  5  6 -1 -1</clus>
<clus scale="   46.032">  2  5  1 -1</clus>
</clustering>
</event>
<event>
 9    1  0.2951046E-005  0.1268116E+03  0.7546771E-02  0.1234928E+00
         -4   -1    0    0    0  501 -0.00000000000E+00  0.00000000000E+00  0.18172003250E+03  0.18172003250E+03  0.00000000000E+00 0.  1.
          3   -1    0    0  502    0  0.00000000000E+00 -0.00000000000E+00 -0.12904200537E+03  0.12904200537E+03  0.00000000000E+00 0. -1.
         23    2    1    2    0    0 -0.46500227534E+02  0.80672832491E+02  0.10145306634E+03  0.16454625673E+03  0.90068689735E+02 0.  0.
        -24    2    1    2    0    0  0.55299955493E+02 -0.58807266848E+02 -0.44596198590E+02  0.12227834431E+03  0.80291922673E+02 0.  0.
         13    1    4    4    0    0 -0.12295227766E+02 -0.42449299660E+02 -0.20022471286E+02  0.48518192710E+02  0.00000000000E+00 0. -1.
        -14    1    4    4    0    0  0.67595183258E+02 -0.16357967188E+02 -0.24573727304E+02  0.73760151599E+02  0.00000000000E+00 0.  1.
        -13    1    3    3    0    0 -0.28370598081E+02  0.39277275359E+02  0.10848278037E+03  0.11881123193E+03  0.00000000000E+00 0.  1.
         13    1    3    3    0    0 -0.18129629453E+02  0.41395557132E+02 -0.70297140283E+01  0.45735024803E+02  0.00000000000E+00 0. -1.
         21    1    1    2  502  501 -0.87997279584E+01 -0.21865565643E+02 -0.41788406275E+01  0.23937436831E+02  0.00000000000E+00 0.  1.
<scales pt_clust_5="13000.00000" pt_clust_6="13000.00000" pt_clust_7="13000.00000" pt_clust_8="13000.00000" pt_clust_9="23.56986"></scales>
<clustering>
<clus scale="   23.570">  2  9  1 -1</clus>
<clus scale="   80.292">  5  6 -1 -1</clus>
<clus scale="   90.069">  7  8 -1 -1</clus>
<clus scale="  120.065">  2  5  1 -1</clus>
<clus scale="   23.570">  2  5  1 -1</clus>
</clustering>
</event>
<event>
 9    1  0.2951046E-005  0.9830023E+02  0.7546771E-02  0.1292239E+00
         -4   -1    0    0    0  501 -0.00000000000E+00  0.00000000000E+00  0.34998675408E+03  0.34998675408E+03  0.00000000000E+00 0.  1.
          3   -1    0    0  502    0  0.00000000000E+00 -0.00000000000E+00 -0.96688916610E+02  0.96688916610E+02  0.00000000000E+00 0. -1.
        -24    2    1    2    0    0 -0.39099145722E+02 -0.12624967516E+02  0.28487944517E+03  0.29899931278E+03  0.80970104102E+02 0.  0.
         23    2    1    2    0    0  0.19268483903E+02  0.79580082605E+01 -0.58393300329E+02  0.11400288886E+03  0.95667532511E+02 0.  0.
         13    1    3    3    0    0 -0.32958093762E+02  0.30050518244E+02  0.18330578668E+03  0.18865386564E+03  0.00000000000E+00 0. -1.
        -14    1    3    3    0    0 -0.61410519597E+01 -0.42675485760E+02  0.10157365850E+03  0.11034544714E+03  0.00000000000E+00 0.  1.
        -13    1    4    4    0    0  0.44486739054E+02 -0.11566361480E+02 -0.66738412513E+02  0.81036204096E+02  0.00000000000E+00 0. -1.
         13    1    4    4    0    0 -0.25218255152E+02  0.19524369740E+02  0.83451121842E+01  0.32966684759E+02  0.00000000000E+00 0.  1.
         21    1    1    2  502  501  0.19830661819E+02  0.46669592553E+01  0.26811692626E+02  0.33673469057E+02  0.00000000000E+00 0. -1.
<scales pt_clust_5="13000.00000" pt_clust_6="13000.00000" pt_clust_7="13000.00000" pt_clust_8="13000.00000" pt_clust_9="20.37242"></scales>
<clustering>
<clus scale="   20.372">  1  9  2 -1</clus>
<clus scale="   80.970">  5  6 -1 -1</clus>
<clus scale="   84.064">  1  5  2 -1</clus>
<clus scale="   95.668">  7  8 -1 -1</clus>
<clus scale="   98.300">  2  5  1 -1</clus>
</clustering>
</event>
<event>
 9    1  0.1468153E-004  0.1077509E+03  0.7546771E-02  0.1268731E+00
          1   -1    0    0  502    0  0.00000000000E+00  0.00000000000E+00  0.50470184265E+03  0.50470184265E+03  0.00000000000E+00 0. -1.
         -2   -1    0    0    0  501 -0.00000000000E+00 -0.00000000000E+00 -0.40328124698E+03  0.40328124698E+03  0.00000000000E+00 0.  1.
         23    2    1    2    0    0 -0.20348612126E+02 -0.55578225633E+02 -0.38279188320E+03  0.39770635661E+03  0.90209284799E+02 0.  0.
        -24    2    1    2    0    0 -0.18835999951E+02  0.53010798252E+02  0.44131122311E+03  0.45211709707E+03  0.80556403833E+02 0.  0.
         13    1    4    4    0    0 -0.19627025582E+02  0.73385915263E+02  0.30655794260E+03  0.31582983529E+03  0.00000000000E+00 0. -1.
        -14    1    4    4    0    0  0.79102563053E+00 -0.20375117010E+02  0.13475328051E+03  0.13628726178E+03  0.00000000000E+00 0.  1.
        -13    1    3    3    0    0  0.32891013831E+02 -0.44275012180E+01 -0.96475954944E+02  0.10202466094E+03  0.00000000000E+00 0. -1.
         13    1    3    3    0    0 -0.53239625957E+02 -0.51150724415E+02 -0.28631592825E+03  0.29568169567E+03  0.00000000000E+00 0.  1.
         21    1    1    2  502  501  0.39184612078E+02  0.25674273805E+01  0.42901255762E+02  0.58159635943E+02  0.00000000000E+00 0.  1.
<scales pt_clust_5="13000.00000" pt_clust_6="13000.00000" pt_clust_7="13000.00000" pt_clust_8="13000.00000" pt_clust_9="39.26863"></scales>
<clustering>
<clus scale="   39.269">  1  9  2 -1</clus>
<clus scale="   80.556">  5  6 -1 -1</clus>
<clus scale="   90.209">  7  8 -1 -1</clus>
<clus scale="   99.809">  1  5  2 -1</clus>
<clus scale="   39.269">  1  5  2 -1</clus>
</clustering>
</event>
<event>
 9    1  0.2951046E-005  0.3341604E+03  0.7546771E-02  0.1111288E+00
          1   -1    0    0  502    0  0.00000000000E+00  0.00000000000E+00  0.18630454792E+04  0.18630454792E+04  0.00000000000E+00 0. -1.
         -2   -1    0    0    0  501 -0.00000000000E+00 -0.00000000000E+00 -0.15036449112E+03  0.15036449112E+03  0.00000000000E+00 0.  1.
        -24    2    1    2    0    0  0.72303873830E+02 -0.27874985683E+02  0.10897901148E+01  0.11018804207E+03  0.78328487630E+02 0.  0.
         23    2    1    2    0    0  0.47151303297E+02 -0.28068127792E+03  0.20962152484E+03  0.36523967668E+03  0.91943529218E+02 0.  0.
         11    1    3    3    0    0  0.39109487055E+02 -0.12429568512E+02 -0.38496022441E+02  0.56267129791E+02  0.00000000000E+00 0. -1.
        -12    1    3    3    0    0  0.33194386775E+02 -0.15445417171E+02  0.39585812556E+02  0.53920912276E+02  0.00000000000E+00 0.  1.
        -11    1    4    4    0    0 -0.44402016701E+01 -0.17776261731E+03  0.16236038452E+03  0.24079069327E+03  0.00000000000E+00 0. -1.
         11    1    4    4    0    0  0.51591504968E+02 -0.10291866061E+03  0.47261140319E+02  0.12444898341E+03  0.00000000000E+00 0.  1.
         21    1    1    2  502  501 -0.11945517713E+03  0.30855626361E+03  0.15019696731E+04  0.15379822515E+04  0.00000000000E+00 0. -1.
<scales pt_clust_5="13000.00000" pt_clust_6="13000.00000" pt_clust_7="13000.00000" pt_clust_8="13000.00000" pt_clust_9="321.26248"></scales>
<clustering>
<clus scale="   78.328">  5  6 -1 -1</clus>
<clus scale="   91.944">  7  8 -1 -1</clus>
<clus scale="  110.183">  2  5  1 -1</clus>
<clus scale="  321.262">  1  9  2 -1</clus>
<clus scale="  321.262">  1  5  2 -1</clus>
</clustering>
</event>
<event>
 9    1  0.2951046E-005  0.1083738E+03  0.7546771E-02  0.1266414E+00
         -2   -1    0    0    0  501 -0.00000000000E+00  0.00000000000E+00  0.40261439217E+03  0.40261439217E+03  0.00000000000E+00 0.  1.
          1   -1    0    0  502    0  0.00000000000E+00 -0.00000000000E+00 -0.67456960551E+02  0.67456960551E+02  0.00000000000E+00 0. -1.
         23    2    1    2    0    0  0.67183265457E+02 -0.12957570848E+02  0.31614853085E+03  0.33538073973E+03  0.88593776411E+02 0.  0.
        -24    2    1    2    0    0 -0.33832447539E+02  0.30612088140E+02  0.24608149612E+02  0.96542079279E+02  0.81443708152E+02 0.  0.
         13    1    4    4    0    0 -0.52389068451E+02  0.19143450174E+02 -0.89762137247E+01  0.56494766046E+02  0.00000000000E+00 0. -1.
        -14    1    4    4    0    0  0.18556620912E+02  0.11468637966E+02  0.33584363337E+02  0.40047313233E+02  0.00000000000E+00 0.  1.
        -13    1    3    3    0    0  0.45754721859E+02  0.26318460332E+02  0.85869053317E+02  0.10079509038E+03  0.00000000000E+00 0. -1.
         13    1    3    3    0    0  0.21428543598E+02 -0.39276031180E+02  0.23027947754E+03  0.23458564935E+03  0.00000000000E+00 0.  1.
         21    1    1    2  502  501 -0.33350817918E+02 -0.17654517292E+02 -0.55992488510E+01  0.38148533711E+02  0.00000000000E+00 0. -1.
<scales pt_clust_5="13000.00000" pt_clust_6="13000.00000" pt_clust_7="13000.00000" pt_clust_8="13000.00000" pt_clust_9="37.73538"></scales>
<clustering>
<clus scale="   37.735">  2  9  1 -1</clus>
<clus scale="   81.444">  5  6 -1 -1</clus>
<clus scale="   88.594">  7  8 -1 -1</clus>
<clus scale="  102.611">  2  5  1 -1</clus>
<clus scale="   37.735">  2  5  1 -1</clus>
</clustering>
</event>
<event>
 9    1  0.2951046E-005  0.1236199E+03  0.7546771E-02  0.1238506E+00
         -2   -1    0    0    0  501 -0.00000000000E+00  0.00000000000E+00  0.11412769446E+04  0.11412769446E+04  0.00000000000E+00 0.  1.
          1   -1    0    0  502    0  0.00000000000E+00 -0.00000000000E+00 -0.35456946026E+02  0.35456946026E+02  0.00000000000E+00 0. -1.
         23    2    1    2    0    0 -0.72112870823E+02  0.48560033399E+01  0.60867808265E+03  0.61917466434E+03  0.87546614773E+02 0.  0.
        -24    2    1    2    0    0  0.14781320548E+03  0.24099838795E+02  0.32885700777E+03  0.37077380990E+03  0.83046617062E+02 0.  0.
         11    1    4    4    0    0  0.13163907972E+03 -0.11108415579E+02  0.24329239964E+03  0.27684550914E+03  0.00000000000E+00 0. -1.
        -12    1    4    4    0    0  0.16174125757E+02  0.35208254374E+02  0.85564608136E+02  0.93928300770E+02  0.00000000000E+00 0.  1.
        -11    1    3    3    0    0 -0.84394010347E+02  0.26631009880E+02  0.48049171124E+03  0.48857327418E+03  0.00000000000E+00 0.  1.
         11    1    3    3    0    0  0.12281139525E+02 -0.21775006540E+02  0.12818637141E+03  0.13060139017E+03  0.00000000000E+00 0. -1.
         21    1    1    2  502  501 -0.75700334654E+02 -0.28955842135E+02  0.16828490814E+03  0.18678541637E+03  0.00000000000E+00 0.  1.
<scales pt_clust_5="13000.00000" pt_clust_6="13000.00000" pt_clust_7="13000.00000" pt_clust_8="13000.00000" pt_clust_9="81.04925"></scales>
<clustering>
<clus scale="   81.049">  2  9  1 -1</clus>
<clus scale="   83.047">  5  6 -1 -1</clus>
<clus scale="   87.547">  7  8 -1 -1</clus>
<clus scale="  120.475">  2  5  1 -1</clus>
<clus scale="   81.049">  2  5  1 -1</clus>
</clustering>
</event>
<event>
 9    1  0.2951046E-005  0.2328215E+03  0.7546771E-02  0.1125292E+00
         -4   -1    0    0    0  501 -0.00000000000E+00  0.00000000000E+00  0.51798854728E+03  0.51798854728E+03  0.00000000000E+00 0.  1.
          3   -1    0    0  502    0  0.00000000000E+00 -0.00000000000E+00 -0.19887532752E+03  0.19887532752E+03  0.00000000000E+00 0. -1.
        -24    2    1    2    0    0  0.17426325849E+03  0.86910469047E+02  0.15922793078E+03  0.26413604779E+03  0.80580425128E+02 0.  0.
         23    2    1    2    0    0 -0.22377645517E+03 -0.74649318487E+02  0.24604526963E+03  0.35260073415E+03  0.90225164872E+02 0.  0.
         13    1    3    3    0    0  0.27592431501E+02 -0.10713097577E+02  0.46000910257E+02  0.54700973303E+02  0.00000000000E+00 0. -1.
        -14    1    3    3    0    0  0.14667082699E+03  0.97623566624E+02  0.11322702052E+03  0.20943507449E+03  0.00000000000E+00 0.  1.
        -13    1    4    4    0    0 -0.47557173013E+02  0.42076518412E+01  0.99030913109E+02  0.10993866831E+03  0.00000000000E+00 0.  1.
         13    1    4    4    0    0 -0.17621928215E+03 -0.78856970328E+02  0.14701435652E+03  0.24266206584E+03  0.00000000000E+00 0. -1.
         21    1    1    2  502  501  0.49513196677E+02 -0.12261150560E+02 -0.86159980656E+02  0.10012709286E+03  0.00000000000E+00 0. -1.
<scales pt_clust_5="13000.00000" pt_clust_6="13000.00000" pt_clust_7="13000.00000" pt_clust_8="13000.00000" pt_clust_9="51.00875"></scales>
<clustering>
<clus scale="   51.009">  2  9  1 -1</clus>
<clus scale="   80.580">  5  6 -1 -1</clus>
<clus scale="   90.225">  7  8 -1 -1</clus>
<clus scale="  229.256">  1  5  2 -1</clus>
<clus scale="   51.009">  2  5  1 -1</clus>
</clustering>
</event>
<event>
 9    1  0.3772553E-005  0.2923806E+03  0.7546771E-02  0.1089560E+00
          3   -1    0    0  502    0  0.00000000000E+00  0.00000000000E+00  0.51464438639E+03  0.51464438639E+03  0.00000000000E+00 0. -1.
         -4   -1    0    0    0  501 -0.00000000000E+00 -0.00000000000E+00 -0.96088439746E+03  0.96088439746E+03  0.00000000000E+00 0.  1.
        -24    2    1    2    0    0  0.22686826685E+03 -0.16310625469E+03 -0.89008623132E+03  0.93635641986E+03  0.80230823347E+02 0.  0.
         23    2    1    2    0    0 -0.20308495604E+03  0.13101306106E+03  0.41831157110E+03  0.49176311111E+03  0.91861120179E+02 0.  0.
         13    1    3    3    0    0  0.38321122523E+02 -0.24589951020E+02 -0.26577644976E+03  0.26964846629E+03  0.00000000000E+00 0. -1.
        -14    1    3    3    0    0  0.18854714432E+03 -0.13851630367E+03 -0.62430978156E+03  0.66670795358E+03  0.00000000000E+00 0.  1.
        -11    1    4    4    0    0 -0.17835190787E+02  0.16554011829E+02  0.53633544184E+01  0.24917762915E+02  0.00000000000E+00 0.  1.
         11    1    4    4    0    0 -0.18524976525E+03  0.11445904923E+03  0.41294821668E+03  0.46684534820E+03  0.00000000000E+00 0. -1.
         21    1    1    2  502  501 -0.23783310807E+02  0.32093193634E+02  0.25534649155E+02  0.47409252874E+02  0.00000000000E+00 0.  1.
<scales pt_clust_5="13000.00000" pt_clust_6="13000.00000" pt_clust_7="13000.00000" pt_clust_8="13000.00000" pt_clust_9="39.94520"></scales>
<clustering>
<clus scale="   39.945">  1  9  2 -1</clus>
<clus scale="   80.231">  5  6 -1 -1</clus>
<clus scale="   91.861">  7  8 -1 -1</clus>
<clus scale="  288.938">  2  5  1 -1</clus>
<clus scale="   39.945">  1  5  2 -1</clus>
</clustering>
</event>
<event>
 9    1  0.2951046E-005  0.9885957E+02  0.7546771E-02  0.1297732E+00
          3   -1    0    0  502    0  0.00000000000E+00  0.00000000000E+00  0.71036777981E+02  0.71036777981E+02  0.00000000000E+00 0. -1.
         -4   -1    0    0    0  501 -0.00000000000E+00 -0.00000000000E+00 -0.15421915409E+03  0.15421915409E+03  0.00000000000E+00 0.  1.
        -24    2    1    2    0    0  0.33868572178E+02 -0.11141667540E+02 -0.64974617734E+02  0.97448371884E+02  0.63271378176E+02 0.  0.
         23    2    1    2    0    0 -0.52437667155E+02 -0.21143275942E+00 -0.13558382254E+02  0.10555175481E+03  0.90595748096E+02 0.  0.
         11    1    3    3    0    0  0.26252861284E+02  0.20439162685E+02 -0.12123101398E+02  0.35411039018E+02  0.00000000000E+00 0. -1.
        -12    1    3    3    0    0  0.76157108940E+01 -0.31580830225E+02 -0.52851516336E+02  0.62037332866E+02  0.00000000000E+00 0.  1.
        -13    1    4    4    0    0 -0.33774597479E+02  0.10595964836E+02 -0.51155462353E+02  0.62208353412E+02  0.00000000000E+00 0.  1.
         13    1    4    4    0    0 -0.18663069676E+02 -0.10807397595E+02  0.37597080099E+02  0.43343401395E+02  0.00000000000E+00 0. -1.
         21    1    1    2  502  501  0.18569094977E+02  0.11353100299E+02 -0.46493761163E+01  0.22255805376E+02  0.00000000000E+00 0. -1.
<scales pt_clust_5="13000.00000" pt_clust_6="13000.00000" pt_clust_7="13000.00000" pt_clust_8="13000.00000" pt_clust_9="21.76475"></scales>
<clustering>
<clus scale="   21.765">  1  9  2 -1</clus>
<clus scale="   63.271">  5  6 -1 -1</clus>
<clus scale="   74.625">  2  5  1 -1</clus>
<clus scale="   90.596">  7  8 -1 -1</clus>
<clus scale="   21.765">  1  5  2 -1</clus>
</clustering>
</event>
<event>
 9    1  0.2951046E-005  0.1193142E+03  0.7546771E-02  0.1247924E+00
          3   -1    0    0  502    0  0.00000000000E+00  0.00000000000E+00  0.12863780439E+03  0.12863780439E+03  0.00000000000E+00 0. -1.
         -4   -1    0    0    0  501 -0.00000000000E+00 -0.00000000000E+00 -0.13926257871E+03  0.13926257871E+03  0.00000000000E+00 0.  1.
        -24    2    1    2    0    0 -0.69753126358E+02  0.94659797675E+01 -0.23334198143E+02  0.10850082599E+03  0.79201269109E+02 0.  0.
         23    2    1    2    0    0  0.87756677160E+02  0.44162577739E+01 -0.10691323134E+02  0.12677381086E+03  0.90755479227E+02 0.  0.
         11    1    3    3    0    0 -0.75080118494E+02 -0.83725961099E+01  0.37462582785E+01  0.75638343516E+02  0.00000000000E+00 0. -1.
        -12    1    3    3    0    0  0.53269921361E+01  0.17838575877E+02 -0.27080456421E+02  0.32862482477E+02  0.00000000000E+00 0.  1.
        -13    1    4    4    0    0  0.29400069957E+02  0.30632122001E+02 -0.38220859329E+02  0.57127271067E+02  0.00000000000E+00 0. -1.
         13    1    4    4    0    0  0.58356607203E+02 -0.26215864227E+02  0.27529536195E+02  0.69646539789E+02  0.00000000000E+00 0.  1.
         21    1    1    2  502  501 -0.18003550802E+02 -0.13882237541E+02  0.23400746954E+02  0.32625746254E+02  0.00000000000E+00 0. -1.
<scales pt_clust_5="13000.00000" pt_clust_6="13000.00000" pt_clust_7="13000.00000" pt_clust_8="13000.00000" pt_clust_9="22.73421"></scales>
<clustering>
<clus scale="   22.734">  1  9  2 -1</clus>
<clus scale="   79.201">  5  6 -1 -1</clus>
<clus scale="   90.755">  7  8 -1 -1</clus>
<clus scale="  110.780">  2  5  1 -1</clus>
<clus scale="   22.734">  1  5  2 -1</clus>
</clustering>
</event>
<event>
 9    1  0.2951046E-005  0.1026332E+03  0.7546771E-02  0.1280321E+00
          3   -1    0    0  502    0  0.00000000000E+00  0.00000000000E+00  0.16432193534E+03  0.16432193534E+03  0.00000000000E+00 0. -1.
         -4   -1    0    0    0  501 -0.00000000000E+00 -0.00000000000E+00 -0.12631915814E+03  0.12631915814E+03  0.00000000000E+00 0.  1.
        -24    2    1    2    0    0 -0.38666939025E+02 -0.14340177369E+02 -0.70428824962E+02  0.11757613944E+03  0.84635431818E+02 0.  0.
         23    2    1    2    0    0  0.25932300098E+02 -0.46192065880E+01  0.51623555719E+02  0.11183764469E+03  0.95649600141E+02 0.  0.
         11    1    3    3    0    0  0.73893653413E+01  0.28471920618E+02 -0.33788391854E+02  0.44798531314E+02  0.00000000000E+00 0. -1.
        -12    1    3    3    0    0 -0.46056304366E+02 -0.42812097987E+02 -0.36640433108E+02  0.72777608124E+02  0.00000000000E+00 0.  1.
        -13    1    4    4    0    0 -0.34843304792E+02 -0.14163396741E+02  0.21745622653E+02  0.43445710958E+02  0.00000000000E+00 0.  1.
         13    1    4    4    0    0  0.60775604890E+02  0.95441901530E+01  0.29877933066E+02  0.68391933733E+02  0.00000000000E+00 0. -1.
         21    1    1    2  502  501  0.12734638927E+02  0.18959383957E+02  0.56808046444E+02  0.61227309343E+02  0.00000000000E+00 0. -1.
<scales pt_clust_5="13000.00000" pt_clust_6="13000.00000" pt_clust_7="13000.00000" pt_clust_8="13000.00000" pt_clust_9="22.83920"></scales>
<clustering>
<clus scale="   22.839">  1  9  2 -1</clus>
<clus scale="   84.635">  5  6 -1 -1</clus>
<clus scale="   92.455">  2  5  1 -1</clus>
<clus scale="   95.650">  7  8 -1 -1</clus>
<clus scale="   22.839">  1  5  2 -1</clus>
</clustering>
</event>
<event>
 9    1  0.2951046E-005  0.1006227E+03  0.7546771E-02  0.1283722E+00
          1   -1    0    0  502    0  0.00000000000E+00  0.00000000000E+00  0.59043773176E+03  0.59043773176E+03  0.00000000000E+00 0. -1.
         -2   -1    0    0    0  501 -0.00000000000E+00 -0.00000000000E+00 -0.51154611532E+02  0.51154611532E+02  0.00000000000E+00 0.  1.
         23    2    1    2    0    0 -0.39420765317E+02 -0.24654884697E+01  0.20004936068E+02  0.10023577342E+03  0.89927400914E+02 0.  0.
        -24    2    1    2    0    0  0.74242246960E+02  0.11630699252E+02  0.30741592165E+03  0.32645623262E+03  0.80136998543E+02 0.  0.
         11    1    4    4    0    0  0.64281735541E+02 -0.26791934680E+02  0.21074906635E+03  0.22195746947E+03  0.00000000000E+00 0. -1.
        -12    1    4    4    0    0  0.99605114188E+01  0.38422633932E+02  0.96666855303E+02  0.10449876315E+03  0.00000000000E+00 0.  1.
        -11    1    3    3    0    0 -0.10509166804E+02 -0.33819182211E+02  0.39750237169E+02  0.53237778197E+02  0.00000000000E+00 0. -1.
         11    1    3    3    0    0 -0.28911598513E+02  0.31353693741E+02 -0.19745301101E+02  0.46997995227E+02  0.00000000000E+00 0.  1.
         21    1    1    2  502  501 -0.34821481642E+02 -0.91652107821E+01  0.21186226251E+03  0.21490033724E+03  0.00000000000E+00 0.  1.
<scales pt_clust_5="13000.00000" pt_clust_6="13000.00000" pt_clust_7="13000.00000" pt_clust_8="13000.00000" pt_clust_9="36.00745"></scales>
<clustering>
<clus scale="   36.007">  1  9  2 -1</clus>
<clus scale="   80.137">  5  6 -1 -1</clus>
<clus scale="   89.927">  7  8 -1 -1</clus>
<clus scale="   91.978">  1  5  2 -1</clus>
<clus scale="   36.007">  1  5  2 -1</clus>
</clustering>
</event>
<event>
 9    1  0.2951046E-005  0.1140632E+03  0.7546771E-02  0.1257466E+00
          1   -1    0    0  502    0  0.00000000000E+00  0.00000000000E+00  0.29688218629E+02  0.29688218629E+02  0.00000000000E+00 0. -1.
         -2   -1    0    0    0  501 -0.00000000000E+00 -0.00000000000E+00 -0.78977477040E+03  0.78977477040E+03  0.00000000000E+00 0.  1.
         23    2    1    2    0    0  0.47680931225E+02 -0.43922435697E+02 -0.49200085986E+03  0.50463267961E+03  0.91578620111E+02 0.  0.
        -24    2    1    2    0    0 -0.66963598194E+02  0.33849223197E+02 -0.27153149651E+03  0.29280386112E+03  0.79842683428E+02 0.  0.
         11    1    4    4    0    0 -0.32455262038E+02 -0.24276254966E+02 -0.79750992173E+02  0.89458936623E+02  0.00000000000E+00 0. -1.
        -12    1    4    4    0    0 -0.34508336156E+02  0.58125478163E+02 -0.19178050433E+03  0.20334492449E+03  0.00000000000E+00 0.  1.
        -13    1    3    3    0    0  0.20274377199E+02  0.27438751770E+02 -0.19439551778E+03  0.19736654428E+03  0.00000000000E+00 0.  1.
         13    1    3    3    0    0  0.27406554026E+02 -0.71361187467E+02 -0.29760534209E+03  0.30726613533E+03  0.00000000000E+00 0. -1.
         21    1    1    2  502  501  0.19282666969E+02  0.10073212500E+02  0.34458045989E+01  0.22026448303E+02  0.00000000000E+00 0. -1.
<scales pt_clust_5="13000.00000" pt_clust_6="13000.00000" pt_clust_7="13000.00000" pt_clust_8="13000.00000" pt_clust_9="21.75525"></scales>
<clustering>
<clus scale="   21.755">  1  9  2 -1</clus>
<clus scale="   79.843">  5  6 -1 -1</clus>
<clus scale="   91.579">  7  8 -1 -1</clus>
<clus scale="  104.874">  1  5  2 -1</clus>
<clus scale="   21.755">  1  5  2 -1</clus>
</clustering>
</event>
<event>
 9    1  0.2951046E-005  0.1092221E+03  0.7546771E-02  0.1266700E+00
         -2   -1    0    0    0  501 -0.00000000000E+00  0.00000000000E+00  0.24534827857E+03  0.24534827857E+03  0.00000000000E+00 0.  1.
          1   -1    0    0  502    0  0.00000000000E+00 -0.00000000000E+00 -0.22056909433E+03  0.22056909433E+03  0.00000000000E+00 0. -1.
         23    2    1    2    0    0 -0.36622838827E+02  0.49987771222E+02  0.21659661204E+03  0.24302552065E+03  0.91144400519E+02 0.  0.
        -24    2    1    2    0    0  0.20089803837E+02 -0.31280590603E+02 -0.15971822107E+03  0.18222664692E+03  0.79464238121E+02 0.  0.
         11    1    4    4    0    0  0.44892252570E+02 -0.35063171712E+02 -0.13703899252E+03  0.14840628633E+03  0.00000000000E+00 0. -1.
        -12    1    4    4    0    0 -0.24802448733E+02  0.37825811090E+01 -0.22679228548E+02  0.33820360591E+02  0.00000000000E+00 0.  1.
        -11    1    3    3    0    0  0.20406233756E+02  0.23592090091E+02  0.21054202735E+02  0.37633502943E+02  0.00000000000E+00 0. -1.
         11    1    3    3    0    0 -0.57029072583E+02  0.26395681131E+02  0.19554240930E+03  0.20539201771E+03  0.00000000000E+00 0.  1.
         21    1    1    2  502  501  0.16533034990E+02 -0.18707180620E+02 -0.32099206730E+02  0.40665205341E+02  0.00000000000E+00 0.  1.
<scales pt_clust_5="13000.00000" pt_clust_6="13000.00000" pt_clust_7="13000.00000" pt_clust_8="13000.00000" pt_clust_9="24.96597"></scales>
<clustering>
<clus scale="   24.966">  2  9  1 -1</clus>
<clus scale="   79.464">  5  6 -1 -1</clus>
<clus scale="   91.144">  7  8 -1 -1</clus>
<clus scale="   99.683">  2  5  1 -1</clus>
<clus scale="   24.966">  2  5  1 -1</clus>
</clustering>
</event>
<event>
 9    1  0.2951046E-005  0.1131718E+03  0.7546771E-02  0.1259180E+00
          3   -1    0    0  502    0  0.00000000000E+00  0.00000000000E+00  0.20648985803E+03  0.20648985803E+03  0.00000000000E+00 0. -1.
         -4   -1    0    0    0  501 -0.00000000000E+00 -0.00000000000E+00 -0.13809745539E+03  0.13809745539E+03  0.00000000000E+00 0.  1.
         23    2    1    2    0    0 -0.37991175357E+02  0.63068103172E+02 -0.87737096129E+02  0.14590001383E+03  0.90377546750E+02 0.  0.
        -24    2    1    2    0    0  0.12216205995E+02 -0.42904020197E+02  0.11581130219E+03  0.14675950102E+03  0.78333280203E+02 0.  0.
         13    1    4    4    0    0 -0.15650096672E+02 -0.18459586463E+02  0.10556160549E+03  0.10830020504E+03  0.00000000000E+00 0. -1.
        -14    1    4    4    0    0  0.27866302667E+02 -0.24444433733E+02  0.10249696698E+02  0.38459295980E+02  0.00000000000E+00 0.  1.
        -13    1    3    3    0    0 -0.27355483551E+02  0.15145411774E+02 -0.91472724438E+02  0.96669360680E+02  0.00000000000E+00 0.  1.
         13    1    3    3    0    0 -0.10635691807E+02  0.47922691397E+02  0.37356283093E+01  0.49230653153E+02  0.00000000000E+00 0. -1.
         21    1    1    2  502  501  0.25774969362E+02 -0.20164082975E+02  0.40318196584E+02  0.51927798564E+02  0.00000000000E+00 0. -1.
<scales pt_clust_5="13000.00000" pt_clust_6="13000.00000" pt_clust_7="13000.00000" pt_clust_8="13000.00000" pt_clust_9="32.72521"></scales>
<clustering>
<clus scale="   32.725">  1  9  2 -1</clus>
<clus scale="   78.333">  5  6 -1 -1</clus>
<clus scale="   90.378">  7  8 -1 -1</clus>
<clus scale="  103.807">  1  5  2 -1</clus>
<clus scale="   32.725">  1  5  2 -1</clus>
</clustering>
</event>
<event>
 9    1  0.2951046E-005  0.1326173E+03  0.7546771E-02  0.1226139E+00
         -2   -1    0    0    0  501 -0.00000000000E+00  0.00000000000E+00  0.68988749062E+02  0.68988749062E+02  0.00000000000E+00 0.  1.
          1   -1    0    0  502    0  0.00000000000E+00 -0.00000000000E+00 -0.52427068757E+03  0.52427068757E+03  0.00000000000E+00 0. -1.
        -24    2    1    2    0    0 -0.21986156565E+02  0.98453781689E+02 -0.29262000643E+02  0.13200680533E+03  0.79956199026E+02 0.  0.
         23    2    1    2    0    0 -0.13718157953E+01 -0.88211785310E+02 -0.21972223499E+03  0.25338431824E+03  0.90236086107E+02 0.  0.
         13    1    3    3    0    0 -0.22962227801E+02  0.26037215524E+02 -0.46043731136E+02  0.57664769788E+02  0.00000000000E+00 0. -1.
        -14    1    3    3    0    0  0.97607123592E+00  0.72416566165E+02  0.16781730493E+02  0.74342035542E+02  0.00000000000E+00 0.  1.
        -11    1    4    4    0    0 -0.30225350180E+02 -0.66885652474E+01 -0.23228517316E+02  0.38702360590E+02  0.00000000000E+00 0.  1.
         11    1    4    4    0    0  0.28853534385E+02 -0.81523220063E+02 -0.19649371768E+03  0.21468195765E+03  0.00000000000E+00 0. -1.
         21    1    1    2  502  501  0.23357972360E+02 -0.10241996379E+02 -0.20629770287E+03  0.20786831306E+03  0.00000000000E+00 0. -1.
<scales pt_clust_5="13000.00000" pt_clust_6="13000.00000" pt_clust_7="13000.00000" pt_clust_8="13000.00000" pt_clust_9="25.50477"></scales>
<clustering>
<clus scale="   25.505">  2  9  1 -1</clus>
<clus scale="   79.956">  5  6 -1 -1</clus>
<clus scale="   90.236">  7  8 -1 -1</clus>
<clus scale="  125.848">  1  5  2 -1</clus>
<clus scale="   25.505">  2  5  1 -1</clus>
</clustering>
</event>
<event>
 9    1  0.2951046E-005  0.9804374E+02  0.7546771E-02  0.1288452E+00
          1   -1    0    0  502    0  0.00000000000E+00  0.00000000000E+00  0.30224835087E+03  0.30224835087E+03  0.00000000000E+00 0. -1.
         -2   -1    0    0    0  501 -0.00000000000E+00 -0.00000000000E+00 -0.15962969366E+03  0.15962969366E+03  0.00000000000E+00 0.  1.
         23    2    1    2    0    0 -0.10117060639E+02  0.28882217079E+02 -0.12849848680E+03  0.16187481112E+03  0.93568456155E+02 0.  0.
        -24    2    1    2    0    0 -0.10097973240E+02 -0.21758424617E+02  0.13307772026E+03  0.16030971700E+03  0.86105328698E+02 0.  0.
         11    1    4    4    0    0 -0.41055701831E+02 -0.13303710815E+02  0.11640034079E+03  0.12414346020E+03  0.00000000000E+00 0. -1.
        -12    1    4    4    0    0  0.30957728591E+02 -0.84547138021E+01  0.16677379466E+02  0.36166256799E+02  0.00000000000E+00 0.  1.
        -11    1    3    3    0    0  0.19617717887E+02  0.38289124021E+02 -0.12286922692E+03  0.13018355809E+03  0.00000000000E+00 0.  1.
         11    1    3    3    0    0 -0.29734778526E+02 -0.94069069417E+01 -0.56292598841E+01  0.31691253037E+02  0.00000000000E+00 0. -1.
         21    1    1    2  502  501  0.20215033878E+02 -0.71237924625E+01  0.13803942376E+03  0.13969351641E+03  0.00000000000E+00 0. -1.
<scales pt_clust_5="13000.00000" pt_clust_6="13000.00000" pt_clust_7="13000.00000" pt_clust_8="13000.00000" pt_clust_9="21.43353"></scales>
<clustering>
<clus scale="   21.434">  1  9  2 -1</clus>
<clus scale="   86.105">  5  6 -1 -1</clus>
<clus scale="   90.949">  1  5  2 -1</clus>
<clus scale="   93.568">  7  8 -1 -1</clus>
<clus scale="   21.434">  1  5  2 -1</clus>
</clustering>
</event>
<event>
 9    1  0.2951046E-005  0.9693750E+02  0.7546771E-02  0.1292079E+00
          1   -1    0    0  502    0  0.00000000000E+00  0.00000000000E+00  0.91649830966E+02  0.91649830966E+02  0.00000000000E+00 0. -1.
         -2   -1    0    0    0  501 -0.00000000000E+00 -0.00000000000E+00 -0.29259166566E+03  0.29259166566E+03  0.00000000000E+00 0.  1.
         23    2    1    2    0    0 -0.16225831711E+01  0.88990540637E+01 -0.19262213691E+03  0.21292860295E+03  0.90296602310E+02 0.  0.
        -24    2    1    2    0    0 -0.33332402764E+02 -0.21007760579E+02  0.49691906051E+02  0.10251014667E+03  0.80539863206E+02 0.  0.
         11    1    4    4    0    0 -0.48546719589E+02  0.14777359436E+02  0.26825176878E+02  0.57399864541E+02  0.00000000000E+00 0. -1.
        -12    1    4    4    0    0  0.15214316825E+02 -0.35785120015E+02  0.22866729172E+02  0.45110282131E+02  0.00000000000E+00 0.  1.
        -11    1    3    3    0    0  0.60349559382E+01 -0.36610046944E+02 -0.45347206296E+02  0.58592536634E+02  0.00000000000E+00 0. -1.
         11    1    3    3    0    0 -0.76575391093E+01  0.45509101007E+02 -0.14727493061E+03  0.15433606632E+03  0.00000000000E+00 0.  1.
         21    1    1    2  502  501  0.34954985936E+02  0.12108706515E+02 -0.58011603840E+02  0.68802747004E+02  0.00000000000E+00 0.  1.
<scales pt_clust_5="13000.00000" pt_clust_6="13000.00000" pt_clust_7="13000.00000" pt_clust_8="13000.00000" pt_clust_9="36.99286"></scales>
<clustering>
<clus scale="   36.993">  2  9  1 -1</clus>
<clus scale="   80.540">  5  6 -1 -1</clus>
<clus scale="   87.921">  1  5  2 -1</clus>
<clus scale="   90.297">  7  8 -1 -1</clus>
<clus scale="   87.921">  1  5  2 -1</clus>
</clustering>
</event>
<event>
 9    1  0.2951046E-005  0.9581960E+02  0.7546771E-02  0.1294809E+00
          1   -1    0    0  502    0  0.00000000000E+00  0.00000000000E+00  0.88537491771E+02  0.88537491771E+02  0.00000000000E+00 0. -1.
         -2   -1    0    0    0  501 -0.00000000000E+00 -0.00000000000E+00 -0.25058874016E+03  0.25058874016E+03  0.00000000000E+00 0.  1.
         23    2    1    2    0    0 -0.27470897975E+02 -0.10993125457E+02 -0.19607582947E+03  0.21803145386E+03  0.90644828451E+02 0.  0.
        -24    2    1    2    0    0  0.26575987583E+02  0.34540216077E+02  0.20859547203E+02  0.94102474379E+02  0.80751751262E+02 0.  0.
         11    1    4    4    0    0  0.29367712961E+02  0.34266248010E+02  0.48541316429E+02  0.66278938720E+02  0.00000000000E+00 0. -1.
        -12    1    4    4    0    0 -0.27917253779E+01  0.27396806714E+00 -0.27681769225E+02  0.27823535658E+02  0.00000000000E+00 0.  1.
        -13    1    3    3    0    0  0.11182825601E+02 -0.41295784857E+02 -0.62755362902E+02  0.75951517485E+02  0.00000000000E+00 0. -1.
         13    1    3    3    0    0 -0.38653723576E+02  0.30302659400E+02 -0.13332046657E+03  0.14207993637E+03  0.00000000000E+00 0.  1.
         21    1    1    2  502  501  0.89491039178E+00 -0.23547090620E+02  0.13165033885E+02  0.26992303690E+02  0.00000000000E+00 0. -1.
<scales pt_clust_5="13000.00000" pt_clust_6="13000.00000" pt_clust_7="13000.00000" pt_clust_8="13000.00000" pt_clust_9="23.56409"></scales>
<clustering>
<clus scale="   23.564">  1  9  2 -1</clus>
<clus scale="   80.752">  5  6 -1 -1</clus>
<clus scale="   86.520">  1  5  2 -1</clus>
<clus scale="   90.645">  7  8 -1 -1</clus>
<clus scale="   23.564">  1  5  2 -1</clus>
</clustering>
</event>
<event>
 9    1  0.2951046E-005  0.3603218E+03  0.7546771E-02  0.1058644E+00
          1   -1    0    0  502    0  0.00000000000E+00  0.00000000000E+00  0.65284012488E+03  0.65284012488E+03  0.00000000000E+00 0. -1.
         -2   -1    0    0    0  501 -0.00000000000E+00 -0.00000000000E+00 -0.46523762372E+03  0.46523762372E+03  0.00000000000E+00 0.  1.
        -24    2    1    2    0    0  0.33598604992E+03  0.15574811090E+03 -0.28069249009E+03  0.47179639098E+03  0.81605519190E+02 0.  0.
         23    2    1    2    0    0 -0.25498953824E+03 -0.37971701532E+02  0.40863983799E+03  0.49139283377E+03  0.89548228150E+02 0.  0.
         11    1    3    3    0    0  0.21317207308E+03  0.76681244962E+02 -0.12677334219E+03  0.25960320946E+03  0.00000000000E+00 0. -1.
        -12    1    3    3    0    0  0.12281397684E+03  0.79066865939E+02 -0.15391914790E+03  0.21219318153E+03  0.00000000000E+00 0.  1.
        -13    1    4    4    0    0 -0.23187909314E+03 -0.13686183223E+02  0.31108502965E+03  0.38823848485E+03  0.00000000000E+00 0. -1.
         13    1    4    4    0    0 -0.23110445101E+02 -0.24285518309E+02  0.97554808334E+02  0.10315434892E+03  0.00000000000E+00 0.  1.
         21    1    1    2  502  501 -0.80996511687E+02 -0.11777640937E+03  0.59655153252E+02  0.15488852384E+03  0.00000000000E+00 0. -1.
<scales pt_clust_5="13000.00000" pt_clust_6="13000.00000" pt_clust_7="13000.00000" pt_clust_8="13000.00000" pt_clust_9="142.93956"></scales>
<clustering>
<clus scale="   81.606">  5  6 -1 -1</clus>
<clus scale="   89.548">  7  8 -1 -1</clus>
<clus scale="  142.940">  1  9  2 -1</clus>
<clus scale="  358.430">  2  5  1 -1</clus>
<clus scale="  142.940">  1  5  2 -1</clus>
</clustering>
</event>
<event>
 9    1  0.2951046E-005  0.1028866E+03  0.7546771E-02  0.1278369E+00
          1   -1    0    0  502    0  0.00000000000E+00  0.00000000000E+00  0.50264205257E+03  0.50264205257E+03  0.00000000000E+00 0. -1.
         -2   -1    0    0    0  501 -0.00000000000E+00 -0.00000000000E+00 -0.57039656638E+02  0.57039656638E+02  0.00000000000E+00 0.  1.
        -24    2    1    2    0    0 -0.32557158373E+02  0.40399864864E+02  0.69251752806E+01  0.97659083061E+02  0.82445259471E+02 0.  0.
         23    2    1    2    0    0  0.35241683033E+02 -0.80102810947E+01  0.21898734639E+03  0.23994171147E+03  0.91161539036E+02 0.  0.
         11    1    3    3    0    0 -0.51508334236E+02  0.12074935038E+02  0.25627013401E+02  0.58784831103E+02  0.00000000000E+00 0. -1.
        -12    1    3    3    0    0  0.18951175863E+02  0.28324929826E+02 -0.18701838120E+02  0.38874251958E+02  0.00000000000E+00 0.  1.
        -11    1    4    4    0    0  0.65099929495E+02 -0.14988999192E+02  0.16189691178E+03  0.17513789127E+03  0.00000000000E+00 0.  1.
         11    1    4    4    0    0 -0.29858246462E+02  0.69787180973E+01  0.57090434612E+02  0.64803820198E+02  0.00000000000E+00 0. -1.
         21    1    1    2  502  501 -0.26845246598E+01 -0.32389583769E+02  0.21968987426E+03  0.22208091467E+03  0.00000000000E+00 0. -1.
<scales pt_clust_5="13000.00000" pt_clust_6="13000.00000" pt_clust_7="13000.00000" pt_clust_8="13000.00000" pt_clust_9="32.50064"></scales>
<clustering>
<clus scale="   32.501">  1  9  2 -1</clus>
<clus scale="   82.445">  5  6 -1 -1</clus>
<clus scale="   91.162">  7  8 -1 -1</clus>
<clus scale="   95.249">  2  5  1 -1</clus>
<clus scale="   32.501">  1  5  2 -1</clus>
</clustering>
</event>
<event>
 9    1  0.2951046E-005  0.2634743E+03  0.7546771E-02  0.1106129E+00
          3   -1    0    0  502    0  0.00000000000E+00  0.00000000000E+00  0.96551802816E+03  0.96551802816E+03  0.00000000000E+00 0. -1.
         -4   -1    0    0    0  501 -0.00000000000E+00 -0.00000000000E+00 -0.11665663180E+03  0.11665663180E+03  0.00000000000E+00 0.  1.
        -24    2    1    2    0    0  0.17550258026E+03 -0.12574452458E+03  0.20634632388E+03  0.30924976505E+03  0.80273100501E+02 0.  0.
         23    2    1    2    0    0 -0.28254139886E+03  0.11761635278E+03  0.49087899164E+03  0.58713771323E+03  0.10052492901E+03 0.  0.
         11    1    3    3    0    0  0.68472323080E+02 -0.79883624390E+02  0.14034268355E+03  0.17540217017E+03  0.00000000000E+00 0. -1.
        -12    1    3    3    0    0  0.10703025718E+03 -0.45860900186E+02  0.66003640329E+02  0.13384759488E+03  0.00000000000E+00 0.  1.
        -11    1    4    4    0    0 -0.52550336797E+02  0.64320613768E+02  0.16502650892E+03  0.18474963573E+03  0.00000000000E+00 0.  1.
         11    1    4    4    0    0 -0.22999106207E+03  0.53295739011E+02  0.32585248271E+03  0.40238807751E+03  0.00000000000E+00 0. -1.
         21    1    1    2  502  501  0.10703881860E+03  0.81281717965E+01  0.15163608084E+03  0.18578718169E+03  0.00000000000E+00 0.  1.
<scales pt_clust_5="13000.00000" pt_clust_6="13000.00000" pt_clust_7="13000.00000" pt_clust_8="13000.00000" pt_clust_9="107.34699"></scales>
<clustering>
<clus scale="   80.273">  5  6 -1 -1</clus>
<clus scale="  100.525">  7  8 -1 -1</clus>
<clus scale="  107.347">  1  9  2 -1</clus>
<clus scale="  256.432">  2  5  1 -1</clus>
<clus scale="  107.347">  1  5  2 -1</clus>
</clustering>
</event>
<event>
 9    1  0.2951046E-005  0.1612975E+03  0.7546771E-02  0.1188297E+00
          1   -1    0    0  502    0  0.00000000000E+00  0.00000000000E+00  0.39959115816E+03  0.39959115816E+03  0.00000000000E+00 0. -1.
         -2   -1    0    0    0  501 -0.00000000000E+00 -0.00000000000E+00 -0.23298533535E+03  0.23298533535E+03  0.00000000000E+00 0.  1.
         23    2    1    2    0    0 -0.15782502576E+03  0.89921576818E+01 -0.15828672539E+03  0.24023970464E+03  0.87583278060E+02 0.  0.
        -24    2    1    2    0    0  0.63558829326E+02  0.32748718388E+02  0.10959904238E+03  0.15363255729E+03  0.80491050610E+02 0.  0.
         11    1    4    4    0    0 -0.18195806666E+01  0.32807264806E+02  0.97321519649E+01  0.34268677823E+02  0.00000000000E+00 0. -1.
        -12    1    4    4    0    0  0.65378409993E+02 -0.58546417969E-01  0.99866890413E+02  0.11936387947E+03  0.00000000000E+00 0.  1.
        -11    1    3    3    0    0 -0.14297104922E+03  0.24402718351E+02 -0.94875397080E+02  0.17331345749E+03  0.00000000000E+00 0.  1.
         11    1    3    3    0    0 -0.14853976541E+02 -0.15410560669E+02 -0.63411328310E+02  0.66926247147E+02  0.00000000000E+00 0. -1.
         21    1    1    2  502  501  0.94266196432E+02 -0.41740876070E+02  0.21529350582E+03  0.23870423158E+03  0.00000000000E+00 0. -1.
<scales pt_clust_5="13000.00000" pt_clust_6="13000.00000" pt_clust_7="13000.00000" pt_clust_8="13000.00000" pt_clust_9="103.09421"></scales>
<clustering>
<clus scale="   80.491">  5  6 -1 -1</clus>
<clus scale="   87.583">  7  8 -1 -1</clus>
<clus scale="  103.094">  1  9  2 -1</clus>
<clus scale="  157.559">  1  5  2 -1</clus>
<clus scale="  103.094">  1  5  2 -1</clus>
</clustering>
</event>
<event>
 9    1  0.2951046E-005  0.1206379E+03  0.7546771E-02  0.1244877E+00
          1   -1    0    0  502    0  0.00000000000E+00  0.00000000000E+00  0.44462822254E+03  0.44462822254E+03  0.00000000000E+00 0. -1.
         -2   -1    0    0    0  501 -0.00000000000E+00 -0.00000000000E+00 -0.43037761040E+02  0.43037761040E+02  0.00000000000E+00 0.  1.
         23    2    1    2    0    0 -0.34356832929E+02 -0.65325286050E+02  0.10993583041E+03  0.15989908481E+03  0.89632837455E+02 0.  0.
        -24    2    1    2    0    0  0.32793416994E+02  0.89345696681E+02  0.25657783382E+03  0.28522508283E+03  0.80393416116E+02 0.  0.
         13    1    4    4    0    0  0.48113120008E+02  0.96189292603E+02  0.22780443063E+03  0.25191687308E+03  0.00000000000E+00 0. -1.
        -14    1    4    4    0    0 -0.15319703014E+02 -0.68435959226E+01  0.28773403191E+02  0.33308209751E+02  0.00000000000E+00 0.  1.
        -11    1    3    3    0    0 -0.58464808805E+02 -0.45387809485E+02  0.41987545960E+02  0.85094894877E+02  0.00000000000E+00 0.  1.
         11    1    3    3    0    0  0.24107975876E+02 -0.19937476565E+02  0.67948284446E+02  0.74804189935E+02  0.00000000000E+00 0. -1.
         21    1    1    2  502  501  0.15634159353E+01 -0.24020410631E+02  0.35076797272E+02  0.42541815936E+02  0.00000000000E+00 0. -1.
<scales pt_clust_5="13000.00000" pt_clust_6="13000.00000" pt_clust_7="13000.00000" pt_clust_8="13000.00000" pt_clust_9="24.07124"></scales>
<clustering>
<clus scale="   24.071">  1  9  2 -1</clus>
<clus scale="   80.393">  5  6 -1 -1</clus>
<clus scale="   89.633">  7  8 -1 -1</clus>
<clus scale="  113.941">  1  5  2 -1</clus>
<clus scale="   24.071">  1  5  2 -1</clus>
</clustering>
</event>
<event>
 9    1  0.2951046E-005  0.1043928E+03  0.7546771E-02  0.1276416E+00
         -2   -1    0    0    0  501 -0.00000000000E+00  0.00000000000E+00  0.65566533684E+03  0.65566533684E+03  0.00000000000E+00 0.  1.
          1   -1    0    0  502    0  0.00000000000E+00 -0.00000000000E+00 -0.13631954914E+03  0.13631954914E+03  0.00000000000E+00 0. -1.
        -24    2    1    2    0    0  0.43596674008E+02  0.19856253190E+02  0.54756747903E+03  0.55545778386E+03  0.80051638289E+02 0.  0.
         23    2    1    2    0    0 -0.11948930862E+03 -0.21319904149E+02 -0.45683343537E+02  0.15863779887E+03  0.91360550377E+02 0.  0.
         11    1    3    3    0    0  0.29528994483E+02  0.47358571308E+02  0.24294978659E+03  0.24927774589E+03  0.00000000000E+00 0. -1.
        -12    1    3    3    0    0  0.14067679525E+02 -0.27502318118E+02  0.30461769243E+03  0.30618003797E+03  0.00000000000E+00 0.  1.
        -13    1    4    4    0    0 -0.11287658518E+03  0.85881876205E+01 -0.56026045222E+02  0.12630834569E+03  0.00000000000E+00 0. -1.
         13    1    4    4    0    0 -0.66127234458E+01 -0.29908091769E+02  0.10342701685E+02  0.32329453178E+02  0.00000000000E+00 0.  1.
         21    1    1    2  502  501  0.75892634617E+02  0.14636509585E+01  0.17461652213E+02  0.77889303253E+02  0.00000000000E+00 0. -1.
<scales pt_clust_5="13000.00000" pt_clust_6="13000.00000" pt_clust_7="13000.00000" pt_clust_8="13000.00000" pt_clust_9="75.90675"></scales>
<clustering>
<clus scale="   75.907">  2  9  1 -1</clus>
<clus scale="   80.052">  5  6 -1 -1</clus>
<clus scale="   91.361">  7  8 -1 -1</clus>
<clus scale="   94.654">  1  5  2 -1</clus>
<clus scale="   75.907">  2  5  1 -1</clus>
</clustering>
</event>
<event>
 9    1  0.2951046E-005  0.1299382E+03  0.7546771E-02  0.1230672E+00
          1   -1    0    0  502    0  0.00000000000E+00  0.00000000000E+00  0.19247760700E+03  0.19247760700E+03  0.00000000000E+00 0. -1.
         -2   -1    0    0    0  501 -0.00000000000E+00 -0.00000000000E+00 -0.17635154980E+03  0.17635154980E+03  0.00000000000E+00 0.  1.
        -24    2    1    2    0    0  0.84483915888E+02 -0.33189234590E+02 -0.11097533686E+03  0.16412620250E+03  0.79892600547E+02 0.  0.
         23    2    1    2    0    0 -0.82470780228E+02  0.57427778721E+02  0.10897930290E+03  0.17437194830E+03  0.91813444177E+02 0.  0.
         11    1    3    3    0    0  0.78072430898E+01 -0.31708450891E+02 -0.45848388641E+01  0.32975743358E+02  0.00000000000E+00 0. -1.
        -12    1    3    3    0    0  0.76676672798E+02 -0.14807836992E+01 -0.10639049799E+03  0.13115045915E+03  0.00000000000E+00 0.  1.
        -11    1    4    4    0    0 -0.42164838948E+02  0.43465062854E+02  0.35730651313E+01  0.60661784732E+02  0.00000000000E+00 0.  1.
         11    1    4    4    0    0 -0.40305941280E+02  0.13962715867E+02  0.10540623777E+03  0.11371016357E+03  0.00000000000E+00 0. -1.
         21    1    1    2  502  501 -0.20131356596E+01 -0.24238544131E+02  0.18122091156E+02  0.30331005994E+02  0.00000000000E+00 0. -1.
<scales pt_clust_5="13000.00000" pt_clust_6="13000.00000" pt_clust_7="13000.00000" pt_clust_8="13000.00000" pt_clust_9="24.32200"></scales>
<clustering>
<clus scale="   24.322">  1  9  2 -1</clus>
<clus scale="   79.893">  5  6 -1 -1</clus>
<clus scale="   91.813">  7  8 -1 -1</clus>
<clus scale="  121.807">  2  5  1 -1</clus>
<clus scale="   24.322">  1  5  2 -1</clus>
</clustering>
</event>
<event>
 9    1  0.2951046E-005  0.1033698E+03  0.7546771E-02  0.1279678E+00
          1   -1    0    0  502    0  0.00000000000E+00  0.00000000000E+00  0.97327403973E+02  0.97327403973E+02  0.00000000000E+00 0. -1.
         -2   -1    0    0    0  501 -0.00000000000E+00 -0.00000000000E+00 -0.24953111562E+03  0.24953111562E+03  0.00000000000E+00 0.  1.
         23    2    1    2    0    0  0.47671432909E+02  0.32879970172E+00 -0.19343720527E+03  0.22002904241E+03  0.93392470228E+02 0.  0.
        -24    2    1    2    0    0 -0.26702878721E+02  0.23063474662E+02  0.37151968009E+02  0.95150815341E+02  0.80177561310E+02 0.  0.
         11    1    4    4    0    0 -0.28717609174E+02  0.51564292039E+02  0.24595040677E+02  0.63941327137E+02  0.00000000000E+00 0. -1.
        -12    1    4    4    0    0  0.20147304530E+01 -0.28500817377E+02  0.12556927332E+02  0.31209488204E+02  0.00000000000E+00 0.  1.
        -11    1    3    3    0    0  0.42696318000E+02 -0.33564931955E+02 -0.17014758414E+03  0.17860509684E+03  0.00000000000E+00 0.  1.
         11    1    3    3    0    0  0.49751149089E+01  0.33893731657E+02 -0.23289621125E+02  0.41423945565E+02  0.00000000000E+00 0. -1.
         21    1    1    2  502  501 -0.20968554189E+02 -0.23392274364E+02  0.40815256177E+01  0.31678661841E+02  0.00000000000E+00 0.  1.
<scales pt_clust_5="13000.00000" pt_clust_6="13000.00000" pt_clust_7="13000.00000" pt_clust_8="13000.00000" pt_clust_9="31.41463"></scales>
<clustering>
<clus scale="   31.415">  1  9  2 -1</clus>
<clus scale="   80.178">  5  6 -1 -1</clus>
<clus scale="   91.606">  1  5  2 -1</clus>
<clus scale="   93.392">  7  8 -1 -1</clus>
<clus scale="   31.415">  1  5  2 -1</clus>
</clustering>
</event>
<event>
 9    1  0.2951046E-005  0.1372020E+03  0.7546771E-02  0.1218571E+00
         -2   -1    0    0    0  501 -0.00000000000E+00  0.00000000000E+00  0.31550732069E+02  0.31550732069E+02  0.00000000000E+00 0.  1.
          1   -1    0    0  502    0  0.00000000000E+00 -0.00000000000E+00 -0.11180359624E+04  0.11180359624E+04  0.00000000000E+00 0. -1.
         23    2    1    2    0    0  0.66590480784E+02 -0.13428612585E+03 -0.55373911621E+03  0.58016122107E+03  0.86561988708E+02 0.  0.
        -24    2    1    2    0    0 -0.83786082958E+01  0.81727683101E+02 -0.39061099395E+03  0.40708815672E+03  0.79963763536E+02 0.  0.
         13    1    4    4    0    0 -0.31810532167E+02  0.84820719584E+02 -0.32310535257E+03  0.33556449944E+03  0.00000000000E+00 0. -1.
        -14    1    4    4    0    0  0.23431923871E+02 -0.30930364828E+01 -0.67505641387E+02  0.71523657275E+02  0.00000000000E+00 0.  1.
        -13    1    3    3    0    0  0.71560519184E+02 -0.53275166182E+02 -0.23844920401E+03  0.25459217217E+03  0.00000000000E+00 0.  1.
         13    1    3    3    0    0 -0.49700383996E+01 -0.81010959669E+02 -0.31528991220E+03  0.32556904890E+03  0.00000000000E+00 0. -1.
         21    1    1    2  502  501 -0.58211872488E+02  0.52558442750E+02 -0.14213512019E+03  0.16233731671E+03  0.00000000000E+00 0. -1.
<scales pt_clust_5="13000.00000" pt_clust_6="13000.00000" pt_clust_7="13000.00000" pt_clust_8="13000.00000" pt_clust_9="78.42839"></scales>
<clustering>
<clus scale="   78.428">  1  9  2 -1</clus>
<clus scale="   79.964">  5  6 -1 -1</clus>
<clus scale="   86.562">  7  8 -1 -1</clus>
<clus scale="  133.138">  2  5  1 -1</clus>
<clus scale="  133.138">  2  5  1 -1</clus>
</clustering>
</event>
<event>
 9    1  0.2951046E-005  0.2349428E+03  0.7546771E-02  0.1124132E+00
          1   -1    0    0  502    0  0.00000000000E+00  0.00000000000E+00  0.99760333564E+02  0.99760333564E+02  0.00000000000E+00 0. -1.
         -2   -1    0    0    0  501 -0.00000000000E+00 -0.00000000000E+00 -0.19522105571E+04  0.19522105571E+04  0.00000000000E+00 0.  1.
        -24    2    1    2    0    0  0.20057169677E+03  0.89059776365E+02 -0.15599779031E+04  0.15773786421E+04  0.80197712814E+02 0.  0.
         23    2    1    2    0    0 -0.18934082163E+03 -0.64183070697E+02 -0.34824733656E+03  0.41249687460E+03  0.94382471012E+02 0.  0.
         13    1    3    3    0    0  0.59354033984E+02  0.35947884884E+02 -0.27697590987E+03  0.28553599847E+03  0.00000000000E+00 0. -1.
        -14    1    3    3    0    0  0.14121766278E+03  0.53111891481E+02 -0.12830019932E+04  0.12918426436E+04  0.00000000000E+00 0.  1.
        -11    1    4    4    0    0 -0.17829294167E+03 -0.45351087144E+02 -0.34421591103E+03  0.39029436015E+03  0.00000000000E+00 0. -1.
         11    1    4    4    0    0 -0.11047879953E+02 -0.18831983552E+02 -0.40314255222E+01  0.22202514446E+02  0.00000000000E+00 0.  1.
         21    1    1    2  502  501 -0.11230875140E+02 -0.24876705668E+02  0.55775016127E+02  0.62095373944E+02  0.00000000000E+00 0. -1.
<scales pt_clust_5="13000.00000" pt_clust_6="13000.00000" pt_clust_7="13000.00000" pt_clust_8="13000.00000" pt_clust_9="27.29438"></scales>
<clustering>
<clus scale="   27.294">  1  9  2 -1</clus>
<clus scale="   80.198">  5  6 -1 -1</clus>
<clus scale="   94.382">  7  8 -1 -1</clus>
<clus scale="  229.612">  2  5  1 -1</clus>
<clus scale="   27.294">  1  5  2 -1</clus>
</clustering>
</event>
<event>
 9    1  0.2951046E-005  0.1821380E+03  0.7546771E-02  0.1171259E+00
         -2   -1    0    0    0  501 -0.00000000000E+00  0.00000000000E+00  0.12290741079E+03  0.12290741079E+03  0.00000000000E+00 0.  1.
          1   -1    0    0  502    0  0.00000000000E+00 -0.00000000000E+00 -0.41744160604E+03  0.41744160604E+03  0.00000000000E+00 0. -1.
         23    2    1    2    0    0  0.12380773874E+03  0.69300209181E+02 -0.40611432678E+02  0.18863028959E+03  0.11747860453E+03 0.  0.
        -24    2    1    2    0    0 -0.99153276773E+02 -0.96859090363E+02 -0.89831166413E+02  0.18351234698E+03  0.79963037420E+02 0.  0.
         11    1    4    4    0    0 -0.58581390820E+02 -0.10230809660E+03 -0.76161330820E+02  0.14035410322E+03  0.00000000000E+00 0. -1.
        -12    1    4    4    0    0 -0.40571885953E+02  0.54490062335E+01 -0.13669835592E+02  0.43158243753E+02  0.00000000000E+00 0.  1.
        -11    1    3    3    0    0  0.10270895315E+03  0.57707371210E+01  0.11890937183E+02  0.10355590206E+03  0.00000000000E+00 0. -1.
         11    1    3    3    0    0  0.21098785595E+02  0.63529472060E+02 -0.52502369861E+02  0.85074387537E+02  0.00000000000E+00 0.  1.
         21    1    1    2  502  501 -0.24654461970E+02  0.27558881182E+02 -0.16409159616E+03  0.16820638025E+03  0.00000000000E+00 0.  1.
<scales pt_clust_5="13000.00000" pt_clust_6="13000.00000" pt_clust_7="13000.00000" pt_clust_8="13000.00000" pt_clust_9="36.97749"></scales>
<clustering>
<clus scale="   36.977">  2  9  1 -1</clus>
<clus scale="   79.963">  5  6 -1 -1</clus>
<clus scale="  117.479">  7  8 -1 -1</clus>
<clus scale="  160.521">  2  5  1 -1</clus>
<clus scale="   36.977">  2  5  1 -1</clus>
</clustering>
</event>
<event>
 9    1  0.2951046E-005  0.9680827E+02  0.7546771E-02  0.1291623E+00
          1   -1    0    0  502    0  0.00000000000E+00  0.00000000000E+00  0.29826708490E+03  0.29826708490E+03  0.00000000000E+00 0. -1.
         -2   -1    0    0    0  501 -0.00000000000E+00 -0.00000000000E+00 -0.60470301470E+02  0.60470301470E+02  0.00000000000E+00 0.  1.
        -24    2    1    2    0    0  0.28620184526E+02 -0.28574727409E+02  0.57959085090E+01  0.92188558090E+02  0.82640835417E+02 0.  0.
         23    2    1    2    0    0  0.50260506714E+00  0.53300980890E+01  0.18777373450E+03  0.20871726582E+03  0.90968451283E+02 0.  0.
         13    1    3    3    0    0 -0.56649821171E+01  0.24338710368E+02  0.13940417684E+02  0.28614683119E+02  0.00000000000E+00 0. -1.
        -14    1    3    3    0    0  0.34285166643E+02 -0.52913437777E+02 -0.81445091750E+01  0.63573874971E+02  0.00000000000E+00 0.  1.
        -11    1    4    4    0    0 -0.25809258943E+01 -0.36736639112E+02  0.14101732600E+03  0.14574679435E+03  0.00000000000E+00 0.  1.
         11    1    4    4    0    0  0.30835309615E+01  0.42066737201E+02  0.46756408497E+02  0.62970471473E+02  0.00000000000E+00 0. -1.
         21    1    1    2  502  501 -0.29122789593E+02  0.23244629320E+02  0.44227140423E+02  0.57831562454E+02  0.00000000000E+00 0.  1.
<scales pt_clust_5="13000.00000" pt_clust_6="13000.00000" pt_clust_7="13000.00000" pt_clust_8="13000.00000" pt_clust_9="37.26191"></scales>
<clustering>
<clus scale="   37.262">  1  9  2 -1</clus>
<clus scale="   82.641">  5  6 -1 -1</clus>
<clus scale="   89.029">  2  5  1 -1</clus>
<clus scale="   90.968">  7  8 -1 -1</clus>
<clus scale="   37.262">  1  5  2 -1</clus>
</clustering>
</event>
<event>
 9    1  0.2951046E-005  0.1207209E+03  0.7546771E-02  0.1250737E+00
          1   -1    0    0  502    0  0.00000000000E+00  0.00000000000E+00  0.44676504902E+03  0.44676504902E+03  0.00000000000E+00 0. -1.
         -2   -1    0    0    0  501 -0.00000000000E+00 -0.00000000000E+00 -0.40902772468E+02  0.40902772468E+02  0.00000000000E+00 0.  1.
        -24    2    1    2    0    0 -0.41359198079E+01  0.69445668364E+02  0.70482045437E+02  0.12608578104E+03  0.78039084844E+02 0.  0.
         23    2    1    2    0    0 -0.20073386476E+01 -0.48415720152E+02  0.28663410576E+03  0.30813877069E+03  0.10218747501E+03 0.  0.
         13    1    3    3    0    0 -0.38343716571E+02  0.32872076766E+02  0.52571918935E+02  0.72901445061E+02  0.00000000000E+00 0. -1.
        -14    1    3    3    0    0  0.34207796764E+02  0.36573591598E+02  0.17910126502E+02  0.53184335975E+02  0.00000000000E+00 0.  1.
        -13    1    4    4    0    0  0.31888598121E+02  0.73777074056E+01  0.18118131540E+03  0.18411404701E+03  0.00000000000E+00 0. -1.
         13    1    4    4    0    0 -0.33895936769E+02 -0.55793427558E+02  0.10545279036E+03  0.12402472368E+03  0.00000000000E+00 0.  1.
         21    1    1    2  502  501  0.61432584556E+01 -0.21029948212E+02  0.48746125357E+02  0.53443269769E+02  0.00000000000E+00 0.  1.
<scales pt_clust_5="13000.00000" pt_clust_6="13000.00000" pt_clust_7="13000.00000" pt_clust_8="13000.00000" pt_clust_9="21.90886"></scales>
<clustering>
<clus scale="   21.909">  1  9  2 -1</clus>
<clus scale="   78.039">  5  6 -1 -1</clus>
<clus scale="  101.101">  2  5  1 -1</clus>
<clus scale="  102.187">  7  8 -1 -1</clus>
<clus scale="   21.909">  1  5  2 -1</clus>
</clustering>
</event>
<event>
 9    1  0.2951046E-005  0.1062021E+03  0.7546771E-02  0.1272626E+00
          1   -1    0    0  502    0  0.00000000000E+00  0.00000000000E+00  0.27612955317E+03  0.27612955317E+03  0.00000000000E+00 0. -1.
         -2   -1    0    0    0  501 -0.00000000000E+00 -0.00000000000E+00 -0.10230045511E+03  0.10230045511E+03  0.00000000000E+00 0.  1.
         23    2    1    2    0    0 -0.55991898996E+02  0.69564455967E+01 -0.44159849918E+02  0.11678665521E+03  0.92225514919E+02 0.  0.
        -24    2    1    2    0    0  0.40034341087E+02  0.34139375651E+02  0.11920022104E+03  0.15346422962E+03  0.81082252316E+02 0.  0.
         11    1    4    4    0    0  0.51255098148E+02  0.52071202061E+02  0.10525027589E+03  0.12812539071E+03  0.00000000000E+00 0. -1.
        -12    1    4    4    0    0 -0.11220757061E+02 -0.17931826410E+02  0.13949945146E+02  0.25338838904E+02  0.00000000000E+00 0.  1.
        -11    1    3    3    0    0 -0.27887292978E+02  0.49297160863E+02 -0.16837563942E+02  0.59088194576E+02  0.00000000000E+00 0.  1.
         11    1    3    3    0    0 -0.28104606018E+02 -0.42340715266E+02 -0.27322285977E+02  0.57698460635E+02  0.00000000000E+00 0. -1.
         21    1    1    2  502  501  0.15957557909E+02 -0.41095821247E+02  0.98788726942E+02  0.10817912344E+03  0.00000000000E+00 0. -1.
<scales pt_clust_5="13000.00000" pt_clust_6="13000.00000" pt_clust_7="13000.00000" pt_clust_8="13000.00000" pt_clust_9="44.08526"></scales>
<clustering>
<clus scale="   44.085">  1  9  2 -1</clus>
<clus scale="   81.082">  5  6 -1 -1</clus>
<clus scale="   92.226">  7  8 -1 -1</clus>
<clus scale="   96.683">  1  5  2 -1</clus>
<clus scale="   44.085">  1  5  2 -1</clus>
</clustering>
</event>
<event>
 9    1  0.2951046E-005  0.1044834E+03  0.7546771E-02  0.1273299E+00
          1   -1    0    0  502    0  0.00000000000E+00  0.00000000000E+00  0.38843179344E+03  0.38843179344E+03  0.00000000000E+00 0. -1.
         -2   -1    0    0    0  501 -0.00000000000E+00 -0.00000000000E+00 -0.45609682503E+02  0.45609682503E+02  0.00000000000E+00 0.  1.
        -24    2    1    2    0    0  0.42968709621E+02 -0.23517136358E+02  0.68590874106E+02  0.12041002032E+03  0.85991274400E+02 0.  0.
         23    2    1    2    0    0 -0.65364645197E+02 -0.89273020486E+01  0.21302984751E+03  0.24083152727E+03  0.90916857809E+02 0.  0.
         13    1    3    3    0    0 -0.14688702555E+02 -0.29108903701E+02  0.49774259114E+02  0.59502631268E+02  0.00000000000E+00 0. -1.
        -14    1    3    3    0    0  0.57657412176E+02  0.55917673434E+01  0.18816614992E+02  0.60907389048E+02  0.00000000000E+00 0.  1.
        -13    1    4    4    0    0 -0.23945778161E+02  0.37791175188E+02  0.54891154581E+02  0.70813925644E+02  0.00000000000E+00 0.  1.
         13    1    4    4    0    0 -0.41418867036E+02 -0.46718477237E+02  0.15813869293E+03  0.17001760163E+03  0.00000000000E+00 0. -1.
         21    1    1    2  502  501  0.22395935576E+02  0.32444438406E+02  0.61201389320E+02  0.72799928355E+02  0.00000000000E+00 0.  1.
<scales pt_clust_5="13000.00000" pt_clust_6="13000.00000" pt_clust_7="13000.00000" pt_clust_8="13000.00000" pt_clust_9="39.42359"></scales>
<clustering>
<clus scale="   39.424">  1  9  2 -1</clus>
<clus scale="   85.991">  5  6 -1 -1</clus>
<clus scale="   90.917">  7  8 -1 -1</clus>
<clus scale="  100.227">  2  5  1 -1</clus>
<clus scale="   39.424">  1  5  2 -1</clus>
</clustering>
</event>
<event>
 9    1  0.2951046E-005  0.1509417E+03  0.7546771E-02  0.1201454E+00
          1   -1    0    0  502    0  0.00000000000E+00  0.00000000000E+00  0.11791575741E+04  0.11791575741E+04  0.00000000000E+00 0. -1.
         -2   -1    0    0    0  501 -0.00000000000E+00 -0.00000000000E+00 -0.45350282930E+02  0.45350282930E+02  0.00000000000E+00 0.  1.
        -24    2    1    2    0    0  0.12144728121E+03  0.84707361877E+02  0.22082145275E+03  0.27785998438E+03  0.80742043912E+02 0.  0.
         23    2    1    2    0    0 -0.83288112262E+01 -0.95814820246E+02  0.41701636851E+03  0.43782090897E+03  0.92383157851E+02 0.  0.
         13    1    3    3    0    0  0.62505277349E+02  0.28632349373E+02  0.16623028309E+03  0.17988670919E+03  0.00000000000E+00 0. -1.
        -14    1    3    3    0    0  0.58942003860E+02  0.56075012505E+02  0.54591169662E+02  0.97973275190E+02  0.00000000000E+00 0.  1.
        -11    1    4    4    0    0  0.39645219434E+02 -0.39939910847E+02  0.23102061247E+03  0.23777607805E+03  0.00000000000E+00 0.  1.
         11    1    4    4    0    0 -0.47974030660E+02 -0.55874909399E+02  0.18599575603E+03  0.20004483093E+03  0.00000000000E+00 0. -1.
         21    1    1    2  502  501 -0.11311846998E+03  0.11107458368E+02  0.49596946992E+03  0.50882696369E+03  0.00000000000E+00 0. -1.
<scales pt_clust_5="13000.00000" pt_clust_6="13000.00000" pt_clust_7="13000.00000" pt_clust_8="13000.00000" pt_clust_9="113.66250"></scales>
<clustering>
<clus scale="   80.742">  5  6 -1 -1</clus>
<clus scale="   92.383">  7  8 -1 -1</clus>
<clus scale="  113.662">  1  9  2 -1</clus>
<clus scale="  144.111">  2  5  1 -1</clus>
<clus scale="  113.662">  1  5  2 -1</clus>
</clustering>
</event>
<event>
 9    1  0.2951046E-005  0.1420280E+03  0.7546771E-02  0.1213173E+00
         -2   -1    0    0    0  501 -0.00000000000E+00  0.00000000000E+00  0.37275996831E+03  0.37275996831E+03  0.00000000000E+00 0.  1.
          1   -1    0    0  502    0  0.00000000000E+00 -0.00000000000E+00 -0.13814426383E+03  0.13814426383E+03  0.00000000000E+00 0. -1.
         23    2    1    2    0    0  0.26645815234E+02 -0.11229072421E+03  0.30429025590E+03  0.33818565719E+03  0.91966149630E+02 0.  0.
        -24    2    1    2    0    0 -0.16337211911E+02  0.65431605695E+02 -0.67966351089E+02  0.12470855268E+03  0.79903683982E+02 0.  0.
         11    1    4    4    0    0 -0.34729310378E+02  0.69472432376E+02 -0.71477010596E+02  0.10555333677E+03  0.00000000000E+00 0. -1.
        -12    1    4    4    0    0  0.18392098467E+02 -0.40408266812E+01  0.35106595074E+01  0.19155215908E+02  0.00000000000E+00 0.  1.
        -13    1    3    3    0    0  0.32559001845E+02 -0.61580367405E+01  0.32786457363E+02  0.46615038390E+02  0.00000000000E+00 0. -1.
         13    1    3    3    0    0 -0.59131866111E+01 -0.10613268747E+03  0.27150379854E+03  0.29157061880E+03  0.00000000000E+00 0.  1.
         21    1    1    2  502  501 -0.10308603323E+02  0.46859118516E+02 -0.17082003360E+01  0.48010022276E+02  0.00000000000E+00 0.  1.
<scales pt_clust_5="13000.00000" pt_clust_6="13000.00000" pt_clust_7="13000.00000" pt_clust_8="13000.00000" pt_clust_9="47.97962"></scales>
<clustering>
<clus scale="   47.980">  2  9  1 -1</clus>
<clus scale="   79.904">  5  6 -1 -1</clus>
<clus scale="   91.966">  7  8 -1 -1</clus>
<clus scale="  134.532">  2  5  1 -1</clus>
<clus scale="   47.980">  2  5  1 -1</clus>
</clustering>
</event>
<event>
 9    1  0.2951046E-005  0.8116261E+02  0.7546771E-02  0.1326732E+00
         -2   -1    0    0    0  501 -0.00000000000E+00  0.00000000000E+00  0.77888071381E+02  0.77888071381E+02  0.00000000000E+00 0.  1.
          1   -1    0    0  502    0  0.00000000000E+00 -0.00000000000E+00 -0.19499224258E+03  0.19499224258E+03  0.00000000000E+00 0. -1.
        -24    2    1    2    0    0  0.50058629667E+01  0.57679693026E+01  0.15702702708E+02  0.81248054435E+02  0.79349501216E+02 0.  0.
         23    2    1    2    0    0 -0.14631319812E+02  0.17785483187E+02 -0.35628217355E+02  0.91177763197E+02  0.80706974284E+02 0.  0.
         11    1    3    3    0    0 -0.71862989562E+01 -0.32194012734E+02 -0.91914427561E+01  0.34242955021E+02  0.00000000000E+00 0. -1.
        -12    1    3    3    0    0  0.12192161923E+02  0.37961982037E+02  0.24894145464E+02  0.47005099414E+02  0.00000000000E+00 0.  1.
        -13    1    4    4    0    0 -0.36443373445E+02  0.32338619552E+02 -0.23080593669E+01  0.48777381240E+02  0.00000000000E+00 0.  1.
         13    1    4    4    0    0  0.21812053632E+02 -0.14553136365E+02 -0.33320157988E+02  0.42400381957E+02  0.00000000000E+00 0. -1.
         21    1    1    2  502  501  0.96254568456E+01 -0.23553452489E+02 -0.97178656553E+02  0.10045449633E+03  0.00000000000E+00 0. -1.
<scales pt_clust_5="13000.00000" pt_clust_6="13000.00000" pt_clust_7="13000.00000" pt_clust_8="13000.00000" pt_clust_9="25.44434"></scales>
<clustering>
<clus scale="   25.444">  2  9  1 -1</clus>
<clus scale="   79.350">  5  6 -1 -1</clus>
<clus scale="   79.813">  1  5  2 -1</clus>
<clus scale="   80.707">  7  8 -1 -1</clus>
<clus scale="   25.444">  2  5  1 -1</clus>
</clustering>
</event>
<event>
 9    1  0.2951046E-005  0.9057002E+02  0.7546771E-02  0.1306800E+00
          1   -1    0    0  502    0  0.00000000000E+00  0.00000000000E+00  0.12546556053E+03  0.12546556053E+03  0.00000000000E+00 0. -1.
         -2   -1    0    0    0  501 -0.00000000000E+00 -0.00000000000E+00 -0.18549444790E+03  0.18549444790E+03  0.00000000000E+00 0.  1.
         23    2    1    2    0    0 -0.10269687229E+02  0.33416470150E+01 -0.14494002408E+03  0.17077910447E+03  0.89673066544E+02 0.  0.
        -24    2    1    2    0    0  0.15170308246E+02 -0.27111108555E+02  0.61571697790E+02  0.10650995510E+03  0.81167395592E+02 0.  0.
         11    1    4    4    0    0  0.82094359913E+01  0.26322840381E+02  0.39742196733E+02  0.48370744941E+02  0.00000000000E+00 0. -1.
        -12    1    4    4    0    0  0.69608722545E+01 -0.53433948936E+02  0.21829501057E+02  0.58139210158E+02  0.00000000000E+00 0.  1.
        -13    1    3    3    0    0  0.16625990894E+02  0.23782131109E+02 -0.85254387676E+01  0.30243948807E+02  0.00000000000E+00 0. -1.
         13    1    3    3    0    0 -0.26895678123E+02 -0.20440484094E+02 -0.13641458531E+03  0.14053515567E+03  0.00000000000E+00 0.  1.
         21    1    1    2  502  501 -0.49006210163E+01  0.23769461540E+02  0.23339438919E+02  0.33670948863E+02  0.00000000000E+00 0. -1.
<scales pt_clust_5="13000.00000" pt_clust_6="13000.00000" pt_clust_7="13000.00000" pt_clust_8="13000.00000" pt_clust_9="24.26939"></scales>
<clustering>
<clus scale="   24.269">  1  9  2 -1</clus>
<clus scale="   81.167">  5  6 -1 -1</clus>
<clus scale="   82.157">  1  5  2 -1</clus>
<clus scale="   89.673">  7  8 -1 -1</clus>
<clus scale="   24.269">  1  5  2 -1</clus>
</clustering>
</event>
<event>
 9    1  0.2951046E-005  0.1125685E+03  0.7546771E-02  0.1259764E+00
          3   -1    0    0  502    0  0.00000000000E+00  0.00000000000E+00  0.39247197465E+03  0.39247197465E+03  0.00000000000E+00 0. -1.
         -4   -1    0    0    0  501 -0.00000000000E+00 -0.00000000000E+00 -0.38637487508E+02  0.38637487508E+02  0.00000000000E+00 0.  1.
         23    2    1    2    0    0 -0.40658426785E+02 -0.61001175203E+02  0.12586852551E+03  0.17199377458E+03  0.91458852679E+02 0.  0.
        -24    2    1    2    0    0  0.46221299603E+02  0.41756176927E+02  0.20130500990E+03  0.22576719646E+03  0.81037850048E+02 0.  0.
         11    1    4    4    0    0  0.22066795559E+02  0.50907261882E+02  0.18933727813E+03  0.19729951259E+03  0.00000000000E+00 0. -1.
        -12    1    4    4    0    0  0.24154504044E+02 -0.91510849547E+01  0.11967731768E+02  0.28467683874E+02  0.00000000000E+00 0.  1.
        -11    1    3    3    0    0  0.11336333737E+02 -0.60840829729E+02  0.47813663423E+02  0.78206556212E+02  0.00000000000E+00 0.  1.
         11    1    3    3    0    0 -0.51994760523E+02 -0.16034547391E+00  0.78054862092E+02  0.93787218365E+02  0.00000000000E+00 0. -1.
         21    1    1    2  502  501 -0.55628728177E+01  0.19244998275E+02  0.26660951728E+02  0.33348491115E+02  0.00000000000E+00 0. -1.
<scales pt_clust_5="13000.00000" pt_clust_6="13000.00000" pt_clust_7="13000.00000" pt_clust_8="13000.00000" pt_clust_9="20.03286"></scales>
<clustering>
<clus scale="   20.033">  2  9  1 -1</clus>
<clus scale="   81.038">  5  6 -1 -1</clus>
<clus scale="   91.459">  7  8 -1 -1</clus>
<clus scale="  104.279">  1  5  2 -1</clus>
<clus scale="  104.279">  1  5  2 -1</clus>
</clustering>
</event>
<event>
 9    1  0.2951046E-005  0.9262048E+02  0.7546771E-02  0.1303093E+00
         -2   -1    0    0    0  501 -0.00000000000E+00  0.00000000000E+00  0.31541740559E+03  0.31541740559E+03  0.00000000000E+00 0.  1.
          1   -1    0    0  502    0  0.00000000000E+00 -0.00000000000E+00 -0.63642398676E+02  0.63642398676E+02  0.00000000000E+00 0. -1.
         23    2    1    2    0    0 -0.17680619131E+02  0.23619856766E+02  0.24909111185E+03  0.26629438462E+03  0.89419323121E+02 0.  0.
        -24    2    1    2    0    0  0.60812705739E+01 -0.21386535701E+01  0.21744620760E+02  0.81792879524E+02  0.78585564310E+02 0.  0.
         13    1    4    4    0    0  0.37550897466E+02 -0.18861065761E+02  0.46806452331E+01  0.42281416035E+02  0.00000000000E+00 0. -1.
        -14    1    4    4    0    0 -0.31469626892E+02  0.16722412191E+02  0.17063975526E+02  0.39511463488E+02  0.00000000000E+00 0.  1.
        -13    1    3    3    0    0 -0.27360859140E+02 -0.18692693426E+02  0.36418959461E+02  0.49237932619E+02  0.00000000000E+00 0.  1.
         13    1    3    3    0    0  0.96802400092E+01  0.42312550192E+02  0.21267215239E+03  0.21705645200E+03  0.00000000000E+00 0. -1.
         21    1    1    2  502  501  0.11599348557E+02 -0.21481203196E+02 -0.19060725699E+02  0.30972540126E+02  0.00000000000E+00 0. -1.
<scales pt_clust_5="13000.00000" pt_clust_6="13000.00000" pt_clust_7="13000.00000" pt_clust_8="13000.00000" pt_clust_9="24.41284"></scales>
<clustering>
<clus scale="   24.413">  2  9  1 -1</clus>
<clus scale="   78.586">  5  6 -1 -1</clus>
<clus scale="   82.210">  2  5  1 -1</clus>
<clus scale="   89.419">  7  8 -1 -1</clus>
<clus scale="   24.413">  2  5  1 -1</clus>
</clustering>
</event>
<event>
 9    1  0.2951046E-005  0.1990383E+03  0.7546771E-02  0.1151051E+00
         -2   -1    0    0    0  501 -0.00000000000E+00  0.00000000000E+00  0.61326475569E+02  0.61326475569E+02  0.00000000000E+00 0.  1.
          1   -1    0    0  502    0  0.00000000000E+00 -0.00000000000E+00 -0.74249464920E+03  0.74249464920E+03  0.00000000000E+00 0. -1.
        -24    2    1    2    0    0 -0.17235011140E+03 -0.58711420016E+02 -0.23585599726E+03  0.31016308631E+03  0.86148110423E+02 0.  0.
         23    2    1    2    0    0  0.15461369065E+03  0.68902150493E+02 -0.39487888289E+03  0.43923425046E+03  0.91348207115E+02 0.  0.
         13    1    3    3    0    0 -0.60090339488E+02 -0.48972188144E+02 -0.14875814593E+03  0.16774418050E+03  0.00000000000E+00 0. -1.
        -14    1    3    3    0    0 -0.11225977191E+03 -0.97392318715E+01 -0.87097851329E+02  0.14241890581E+03  0.00000000000E+00 0.  1.
        -13    1    4    4    0    0  0.76685968627E+02  0.36590757714E+02 -0.30216514483E+03  0.31388436738E+03  0.00000000000E+00 0.  1.
         13    1    4    4    0    0  0.77927722020E+02  0.32311392779E+02 -0.92713738060E+02  0.12534988308E+03  0.00000000000E+00 0. -1.
         21    1    1    2  502  501  0.17736420752E+02 -0.10190730477E+02 -0.50433293485E+02  0.54423788002E+02  0.00000000000E+00 0. -1.
<scales pt_clust_5="13000.00000" pt_clust_6="13000.00000" pt_clust_7="13000.00000" pt_clust_8="13000.00000" pt_clust_9="20.45560"></scales>
<clustering>
<clus scale="   20.456">  2  9  1 -1</clus>
<clus scale="   86.148">  5  6 -1 -1</clus>
<clus scale="   91.348">  7  8 -1 -1</clus>
<clus scale="  196.706">  1  5  2 -1</clus>
<clus scale="   20.456">  2  5  1 -1</clus>
</clustering>
</event>
<event>
 9    1  0.2951046E-005  0.1047350E+03  0.7546771E-02  0.1275796E+00
         -2   -1    0    0    0  501 -0.00000000000E+00  0.00000000000E+00  0.62271948115E+02  0.62271948115E+02  0.00000000000E+00 0.  1.
          1   -1    0    0  502    0  0.00000000000E+00 -0.00000000000E+00 -0.48353969749E+03  0.48353969749E+03  0.00000000000E+00 0. -1.
        -24    2    1    2    0    0  0.38323087011E+02  0.22588393089E+02 -0.71308830673E+00  0.92037098461E+02  0.80569376923E+02 0.  0.
         23    2    1    2    0    0 -0.64397078355E+02 -0.52314898476E+02 -0.25416329357E+03  0.28274938723E+03  0.92002194945E+02 0.  0.
         11    1    3    3    0    0  0.21490479602E+02  0.41165313422E+02 -0.28600742036E+02  0.54538300190E+02  0.00000000000E+00 0. -1.
        -12    1    3    3    0    0  0.16832607410E+02 -0.18576920333E+02  0.27887653729E+02  0.37498798271E+02  0.00000000000E+00 0.  1.
        -13    1    4    4    0    0 -0.83683317282E+02 -0.39797943815E+02 -0.15190296023E+03  0.17793617746E+03  0.00000000000E+00 0. -1.
         13    1    4    4    0    0  0.19286238927E+02 -0.12516954661E+02 -0.10226033334E+03  0.10481320977E+03  0.00000000000E+00 0.  1.
         21    1    1    2  502  501  0.26073991343E+02  0.29726505387E+02 -0.16639136750E+03  0.17102515992E+03  0.00000000000E+00 0.  1.
<scales pt_clust_5="13000.00000" pt_clust_6="13000.00000" pt_clust_7="13000.00000" pt_clust_8="13000.00000" pt_clust_9="39.54135"></scales>
<clustering>
<clus scale="   39.541">  2  9  1 -1</clus>
<clus scale="   80.569">  5  6 -1 -1</clus>
<clus scale="   92.002">  7  8 -1 -1</clus>
<clus scale="   94.850">  1  5  2 -1</clus>
<clus scale="   39.541">  2  5  1 -1</clus>
</clustering>
</event>
<event>
 9    1  0.2951046E-005  0.1271662E+03  0.7546771E-02  0.1234785E+00
         -2   -1    0    0    0  501 -0.00000000000E+00  0.00000000000E+00  0.82541508950E+03  0.82541508950E+03  0.00000000000E+00 0.  1.
          1   -1    0    0  502    0  0.00000000000E+00 -0.00000000000E+00 -0.29165215205E+02  0.29165215205E+02  0.00000000000E+00 0. -1.
         23    2    1    2    0    0  0.71889873293E+02 -0.41779589074E+02  0.41076960904E+03  0.42890901831E+03  0.91200802252E+02 0.  0.
        -24    2    1    2    0    0 -0.94578514608E+02  0.21700955166E+02  0.37166442734E+03  0.39237258730E+03  0.80036078318E+02 0.  0.
         13    1    4    4    0    0 -0.13426328687E+02 -0.17575352315E+02  0.21711224821E+02  0.30992524812E+02  0.00000000000E+00 0. -1.
        -14    1    4    4    0    0 -0.81152185922E+02  0.39276307481E+02  0.34995320252E+03  0.36138006249E+03  0.00000000000E+00 0.  1.
        -13    1    3    3    0    0 -0.18472673222E+02 -0.23160991128E+02  0.13143456890E+03  0.13473201946E+03  0.00000000000E+00 0.  1.
         13    1    3    3    0    0  0.90362546514E+02 -0.18618597946E+02  0.27933504014E+03  0.29417699885E+03  0.00000000000E+00 0. -1.
         21    1    1    2  502  501  0.22688641316E+02  0.20078633909E+02  0.13815837918E+02  0.33298699100E+02  0.00000000000E+00 0.  1.
<scales pt_clust_5="13000.00000" pt_clust_6="13000.00000" pt_clust_7="13000.00000" pt_clust_8="13000.00000" pt_clust_9="30.29729"></scales>
<clustering>
<clus scale="   30.297">  2  9  1 -1</clus>
<clus scale="   80.036">  5  6 -1 -1</clus>
<clus scale="   91.201">  7  8 -1 -1</clus>
<clus scale="  119.413">  2  5  1 -1</clus>
<clus scale="   30.297">  2  5  1 -1</clus>
</clustering>
</event>
<event>
 9    1  0.2951046E-005  0.1022764E+03  0.7546771E-02  0.1283372E+00
         -2   -1    0    0    0  501 -0.00000000000E+00  0.00000000000E+00  0.19569502726E+03  0.19569502726E+03  0.00000000000E+00 0.  1.
          1   -1    0    0  502    0  0.00000000000E+00 -0.00000000000E+00 -0.28763857890E+03  0.28763857890E+03  0.00000000000E+00 0. -1.
        -24    2    1    2    0    0 -0.20325400924E+02 -0.31600548371E+02  0.16775201784E+03  0.18980184908E+03  0.80450517980E+02 0.  0.
         23    2    1    2    0    0  0.14653282929E+02 -0.35420662568E+01 -0.21895104608E+03  0.23942729819E+03  0.95700603987E+02 0.  0.
         11    1    3    3    0    0 -0.34180589451E+02 -0.10436304614E+02  0.22209093008E+02  0.42076988503E+02  0.00000000000E+00 0. -1.
        -12    1    3    3    0    0  0.13855188526E+02 -0.21164243757E+02  0.14554292483E+03  0.14772486058E+03  0.00000000000E+00 0.  1.
        -11    1    4    4    0    0  0.17999662755E+02 -0.45611590467E+02 -0.76584326455E+02  0.90937143692E+02  0.00000000000E+00 0.  1.
         11    1    4    4    0    0 -0.33463798265E+01  0.42069524210E+02 -0.14236671963E+03  0.14849015450E+03  0.00000000000E+00 0. -1.
         21    1    1    2  502  501  0.56721179955E+01  0.35142614628E+02 -0.40744523398E+02  0.54104458895E+02  0.00000000000E+00 0.  1.
<scales pt_clust_5="13000.00000" pt_clust_6="13000.00000" pt_clust_7="13000.00000" pt_clust_8="13000.00000" pt_clust_9="35.59742"></scales>
<clustering>
<clus scale="   35.597">  2  9  1 -1</clus>
<clus scale="   80.451">  5  6 -1 -1</clus>
<clus scale="   88.171">  1  5  2 -1</clus>
<clus scale="   95.701">  7  8 -1 -1</clus>
<clus scale="   35.597">  2  5  1 -1</clus>
</clustering>
</event>
<event>
 9    1  0.2951046E-005  0.1221965E+03  0.7546771E-02  0.1248073E+00
          1   -1    0    0  502    0  0.00000000000E+00  0.00000000000E+00  0.31554577813E+03  0.31554577813E+03  0.00000000000E+00 0. -1.
         -2   -1    0    0    0  501 -0.00000000000E+00 -0.00000000000E+00 -0.17807882123E+03  0.17807882123E+03  0.00000000000E+00 0.  1.
         23    2    1    2    0    0 -0.33946554393E+02 -0.66032145388E+02 -0.11489843890E+03  0.17215329474E+03  0.10451073077E+03 0.  0.
        -24    2    1    2    0    0  0.13899030569E+01  0.42224531201E+02  0.31019831462E+02  0.96481089523E+02  0.81003258120E+02 0.  0.
         13    1    4    4    0    0 -0.21876464881E+02  0.56869461110E+02  0.32291693431E+02  0.68959907100E+02  0.00000000000E+00 0. -1.
        -14    1    4    4    0    0  0.23266367938E+02 -0.14644929909E+02 -0.12718619696E+01  0.27521182423E+02  0.00000000000E+00 0.  1.
        -13    1    3    3    0    0  0.25552122265E+02 -0.63463579640E+02 -0.66564470876E+02  0.95453473881E+02  0.00000000000E+00 0.  1.
         13    1    3    3    0    0 -0.59498676659E+02 -0.25685657480E+01 -0.48333968029E+02  0.76699820857E+02  0.00000000000E+00 0. -1.
         21    1    1    2  502  501  0.32556651336E+02  0.23807614187E+02  0.22134556434E+03  0.22499021511E+03  0.00000000000E+00 0. -1.
<scales pt_clust_5="13000.00000" pt_clust_6="13000.00000" pt_clust_7="13000.00000" pt_clust_8="13000.00000" pt_clust_9="40.33284"></scales>
<clustering>
<clus scale="   40.333">  1  9  2 -1</clus>
<clus scale="   81.003">  5  6 -1 -1</clus>
<clus scale="  102.816">  1  5  2 -1</clus>
<clus scale="  104.511">  7  8 -1 -1</clus>
<clus scale="   40.333">  1  5  2 -1</clus>
</clustering>
</event>
<event>
 9    1  0.2951046E-005  0.9658760E+02  0.7546771E-02  0.1299298E+00
         -2   -1    0    0    0  501 -0.00000000000E+00  0.00000000000E+00  0.11631659009E+03  0.11631659009E+03  0.00000000000E+00 0.  1.
          1   -1    0    0  502    0  0.00000000000E+00 -0.00000000000E+00 -0.20876918767E+03  0.20876918767E+03  0.00000000000E+00 0. -1.
         23    2    1    2    0    0 -0.39199473810E+02 -0.33875907058E+02  0.67474230101E+02  0.12559504757E+03  0.92396798760E+02 0.  0.
        -24    2    1    2    0    0  0.22167798610E+02  0.13535928438E+02 -0.15420789814E+03  0.17235221797E+03  0.72460875898E+02 0.  0.
         13    1    4    4    0    0 -0.53622159858E+01  0.38477181032E+02 -0.65093050020E+02  0.75804696301E+02  0.00000000000E+00 0. -1.
        -14    1    4    4    0    0  0.27530014596E+02 -0.24941252594E+02 -0.89114848121E+02  0.96547521668E+02  0.00000000000E+00 0.  1.
        -13    1    3    3    0    0  0.25228645992E+02 -0.32262668574E+02  0.32392123254E+02  0.52216989678E+02  0.00000000000E+00 0. -1.
         13    1    3    3    0    0 -0.64428119802E+02 -0.16132384841E+01  0.35082106848E+02  0.73378057895E+02  0.00000000000E+00 0.  1.
         21    1    1    2  502  501  0.17031675200E+02  0.20339978620E+02 -0.57189295313E+01  0.27138512218E+02  0.00000000000E+00 0.  1.
<scales pt_clust_5="13000.00000" pt_clust_6="13000.00000" pt_clust_7="13000.00000" pt_clust_8="13000.00000" pt_clust_9="26.52909"></scales>
<clustering>
<clus scale="   26.529">  1  9  2 -1</clus>
<clus scale="   72.461">  5  6 -1 -1</clus>
<clus scale="   77.734">  2  5  1 -1</clus>
<clus scale="   92.397">  7  8 -1 -1</clus>
<clus scale="   77.734">  2  5  1 -1</clus>
</clustering>
</event>
<event>
 9    1  0.2951046E-005  0.9550624E+02  0.7546771E-02  0.1295183E+00
         -2   -1    0    0    0  501 -0.00000000000E+00  0.00000000000E+00  0.83324346496E+02  0.83324346496E+02  0.00000000000E+00 0.  1.
          1   -1    0    0  502    0  0.00000000000E+00 -0.00000000000E+00 -0.37999897078E+03  0.37999897078E+03  0.00000000000E+00 0. -1.
        -24    2    1    2    0    0  0.32691604442E+02  0.55024536320E+02  0.47325033999E+01  0.10289647247E+03  0.80429141861E+02 0.  0.
         23    2    1    2    0    0 -0.27973247471E+02 -0.10377888265E+02 -0.30101100417E+03  0.31552981830E+03  0.89784399902E+02 0.  0.
         13    1    3    3    0    0  0.11114379243E+02  0.38933489781E+02 -0.35930016155E+02  0.54132357361E+02  0.00000000000E+00 0. -1.
        -14    1    3    3    0    0  0.21577225199E+02  0.16091046538E+02  0.40662519555E+02  0.48764115111E+02  0.00000000000E+00 0.  1.
        -11    1    4    4    0    0 -0.55385411159E+02 -0.25969214603E+02 -0.22661126903E+03  0.23472241292E+03  0.00000000000E+00 0. -1.
         11    1    4    4    0    0  0.27412163689E+02  0.15591326337E+02 -0.74399735148E+02  0.80807405385E+02  0.00000000000E+00 0.  1.
         21    1    1    2  502  501 -0.47183569719E+01 -0.44646648054E+02 -0.39612351291E+00  0.44897026503E+02  0.00000000000E+00 0.  1.
<scales pt_clust_5="13000.00000" pt_clust_6="13000.00000" pt_clust_7="13000.00000" pt_clust_8="13000.00000" pt_clust_9="44.89528"></scales>
<clustering>
<clus scale="   44.895">  1  9  2 -1</clus>
<clus scale="   80.429">  5  6 -1 -1</clus>
<clus scale="   86.770">  1  5  2 -1</clus>
<clus scale="   89.784">  7  8 -1 -1</clus>
<clus scale="   95.506">  2  5  1 -1</clus>
</clustering>
</event>
<event>
 9    1  0.2951046E-005  0.1200141E+03  0.7546771E-02  0.1245737E+00
          1   -1    0    0  502    0  0.00000000000E+00  0.00000000000E+00  0.25711492769E+03  0.25711492769E+03  0.00000000000E+00 0. -1.
         -2   -1    0    0    0  501 -0.00000000000E+00 -0.00000000000E+00 -0.70700035055E+02  0.70700035055E+02  0.00000000000E+00 0.  1.
        -24    2    1    2    0    0  0.94490687828E+02 -0.11597049787E+02  0.70813385209E+02  0.14400803109E+03  0.81613698879E+02 0.  0.
         23    2    1    2    0    0 -0.61259514138E+02  0.75768281543E+01  0.92219498323E+02  0.14297567602E+03  0.90152491174E+02 0.  0.
         13    1    3    3    0    0  0.91908110074E+02 -0.21383351231E+02  0.84715952594E+02  0.12681143888E+03  0.00000000000E+00 0. -1.
        -14    1    3    3    0    0  0.25825777543E+01  0.97863014438E+01 -0.13902567385E+02  0.17196592212E+02  0.00000000000E+00 0.  1.
        -13    1    4    4    0    0 -0.64174339528E+02  0.37504844651E+02  0.83233655874E+02  0.11159211754E+03  0.00000000000E+00 0. -1.
         13    1    4    4    0    0  0.29148253901E+01 -0.29928016497E+02  0.89858424491E+01  0.31383558482E+02  0.00000000000E+00 0.  1.
         21    1    1    2  502  501 -0.33231173690E+02  0.40202216328E+01  0.23382009101E+02  0.40831255631E+02  0.00000000000E+00 0.  1.
<scales pt_clust_5="13000.00000" pt_clust_6="13000.00000" pt_clust_7="13000.00000" pt_clust_8="13000.00000" pt_clust_9="33.47347"></scales>
<clustering>
<clus scale="   33.473">  1  9  2 -1</clus>
<clus scale="   81.614">  5  6 -1 -1</clus>
<clus scale="   90.152">  7  8 -1 -1</clus>
<clus scale="  113.740">  2  5  1 -1</clus>
<clus scale="   33.473">  1  5  2 -1</clus>
</clustering>
</event>
<event>
 9    1  0.2951046E-005  0.2173720E+03  0.7546771E-02  0.1149673E+00
          1   -1    0    0  502    0  0.00000000000E+00  0.00000000000E+00  0.96499782961E+03  0.96499782961E+03  0.00000000000E+00 0. -1.
         -2   -1    0    0    0  501 -0.00000000000E+00 -0.00000000000E+00 -0.12838705941E+03  0.12838705941E+03  0.00000000000E+00 0.  1.
        -24    2    1    2    0    0  0.13950431416E+03 -0.77647099616E+02  0.13331297414E+03  0.22273047738E+03  0.79661726897E+02 0.  0.
         23    2    1    2    0    0  0.12651137256E+03  0.33680062692E+02  0.52430099143E+03  0.54702298240E+03  0.84871312300E+02 0.  0.
         13    1    3    3    0    0  0.19147212638E+02 -0.49309171729E+02  0.25688556968E+02  0.58804014552E+02  0.00000000000E+00 0. -1.
        -14    1    3    3    0    0  0.12035710152E+03 -0.28337927887E+02  0.10762441717E+03  0.16392646283E+03  0.00000000000E+00 0.  1.
        -11    1    4    4    0    0  0.50442671220E+02 -0.28050894590E+02  0.21207143366E+03  0.21978536971E+03  0.00000000000E+00 0.  1.
         11    1    4    4    0    0  0.76068701337E+02  0.61730957282E+02  0.31222955777E+03  0.32723761269E+03  0.00000000000E+00 0. -1.
         21    1    1    2  502  501 -0.26601568672E+03  0.43967036924E+02  0.17899680463E+03  0.32363142923E+03  0.00000000000E+00 0.  1.
<scales pt_clust_5="13000.00000" pt_clust_6="13000.00000" pt_clust_7="13000.00000" pt_clust_8="13000.00000" pt_clust_9="202.24890"></scales>
<clustering>
<clus scale="   79.662">  5  6 -1 -1</clus>
<clus scale="   84.871">  7  8 -1 -1</clus>
<clus scale="  156.021">  1  7  2 -1</clus>
<clus scale="  202.249">  1  9  2 -1</clus>
<clus scale="  156.021">  1  5  2 -1</clus>
</clustering>
</event>
<event>
 9    1  0.2951046E-005  0.1253419E+03  0.7546771E-02  0.1238587E+00
          3   -1    0    0  502    0  0.00000000000E+00  0.00000000000E+00  0.22807305886E+03  0.22807305886E+03  0.00000000000E+00 0. -1.
         -4   -1    0    0    0  501 -0.00000000000E+00 -0.00000000000E+00 -0.11633131212E+03  0.11633131212E+03  0.00000000000E+00 0.  1.
        -24    2    1    2    0    0 -0.30923530692E+01  0.76045018987E+02 -0.36399953419E+02  0.11686501434E+03  0.80870683244E+02 0.  0.
         23    2    1    2    0    0  0.88662054279E+01 -0.10593731789E+03  0.12270508059E+03  0.18786684072E+03  0.94530884456E+02 0.  0.
         13    1    3    3    0    0 -0.31376160233E+01  0.29852514198E+02  0.25667653772E+02  0.39494881800E+02  0.00000000000E+00 0. -1.
        -14    1    3    3    0    0  0.45262954073E-01  0.46192504789E+02 -0.62067607190E+02  0.77370132543E+02  0.00000000000E+00 0.  1.
        -13    1    4    4    0    0  0.31930635209E+02 -0.51044408318E+02  0.11230120913E+03  0.12742314804E+03  0.00000000000E+00 0. -1.
         13    1    4    4    0    0 -0.23064429781E+02 -0.54892909574E+02  0.10403871467E+02  0.60443692674E+02  0.00000000000E+00 0.  1.
         21    1    1    2  502  501 -0.57738523587E+01  0.29892298905E+02  0.25436619558E+02  0.39672515920E+02  0.00000000000E+00 0. -1.
<scales pt_clust_5="13000.00000" pt_clust_6="13000.00000" pt_clust_7="13000.00000" pt_clust_8="13000.00000" pt_clust_9="30.44482"></scales>
<clustering>
<clus scale="   30.445">  1  9  2 -1</clus>
<clus scale="   80.871">  5  6 -1 -1</clus>
<clus scale="   94.531">  7  8 -1 -1</clus>
<clus scale="  115.389">  2  5  1 -1</clus>
<clus scale="   30.445">  1  5  2 -1</clus>
</clustering>
</event>
<event>
 9    1  0.2951046E-005  0.1248762E+03  0.7546771E-02  0.1238274E+00
          1   -1    0    0  502    0  0.00000000000E+00  0.00000000000E+00  0.89507083875E+02  0.89507083875E+02  0.00000000000E+00 0. -1.
         -2   -1    0    0    0  501 -0.00000000000E+00 -0.00000000000E+00 -0.43825329853E+03  0.43825329853E+03  0.00000000000E+00 0.  1.
        -24    2    1    2    0    0 -0.82070384303E+02 -0.21990595663E+02 -0.33509902785E+03  0.35489973134E+03  0.80270334238E+02 0.  0.
         23    2    1    2    0    0  0.75824290674E+02  0.60468611476E+02 -0.15899471492E+02  0.13381395886E+03  0.90816333125E+02 0.  0.
         11    1    3    3    0    0 -0.66977493021E+02 -0.50909420671E+02 -0.24899938442E+03  0.26282778987E+03  0.00000000000E+00 0. -1.
        -12    1    3    3    0    0 -0.15092891282E+02  0.28918825009E+02 -0.86099643426E+02  0.92071941465E+02  0.00000000000E+00 0.  1.
        -13    1    4    4    0    0  0.57104922251E+02  0.84755765236E+02 -0.12647175064E+02  0.10297797300E+03  0.00000000000E+00 0. -1.
         13    1    4    4    0    0  0.18719368423E+02 -0.24287153761E+02 -0.32522964281E+01  0.30835985860E+02  0.00000000000E+00 0.  1.
         21    1    1    2  502  501  0.62460936294E+01 -0.38478015813E+02  0.22522846827E+01  0.39046692214E+02  0.00000000000E+00 0. -1.
<scales pt_clust_5="13000.00000" pt_clust_6="13000.00000" pt_clust_7="13000.00000" pt_clust_8="13000.00000" pt_clust_9="38.98168"></scales>
<clustering>
<clus scale="   38.982">  1  9  2 -1</clus>
<clus scale="   80.270">  5  6 -1 -1</clus>
<clus scale="   90.816">  7  8 -1 -1</clus>
<clus scale="  117.430">  2  5  1 -1</clus>
<clus scale="   38.982">  1  5  2 -1</clus>
</clustering>
</event>
<event>
 9    1  0.2951046E-005  0.1095530E+03  0.7546771E-02  0.1264766E+00
          1   -1    0    0  502    0  0.00000000000E+00  0.00000000000E+00  0.44492009630E+03  0.44492009630E+03  0.00000000000E+00 0. -1.
         -2   -1    0    0    0  501 -0.00000000000E+00 -0.00000000000E+00 -0.60205928404E+02  0.60205928404E+02  0.00000000000E+00 0.  1.
        -24    2    1    2    0    0 -0.45998280240E+02  0.18812352419E+02  0.43479207169E+02  0.10446390321E+03  0.80947632640E+02 0.  0.
         23    2    1    2    0    0  0.98917402541E+02  0.27059419493E+01  0.14875283831E+03  0.19988154985E+03  0.89628413006E+02 0.  0.
         11    1    3    3    0    0 -0.50329864646E+02  0.36090920355E+02  0.55346561016E+02  0.83059566720E+02  0.00000000000E+00 0. -1.
        -12    1    3    3    0    0  0.43315844067E+01 -0.17278567936E+02 -0.11867353847E+02  0.21404336493E+02  0.00000000000E+00 0.  1.
        -11    1    4    4    0    0  0.98655974641E+02  0.30576807966E+02  0.13106343067E+03  0.16686990554E+03  0.00000000000E+00 0. -1.
         11    1    4    4    0    0  0.26142790032E+00 -0.27870866016E+02  0.17689407638E+02  0.33011644304E+02  0.00000000000E+00 0.  1.
         21    1    1    2  502  501 -0.52919122301E+02 -0.21518294368E+02  0.19248212242E+03  0.20078057165E+03  0.00000000000E+00 0. -1.
<scales pt_clust_5="13000.00000" pt_clust_6="13000.00000" pt_clust_7="13000.00000" pt_clust_8="13000.00000" pt_clust_9="57.12679"></scales>
<clustering>
<clus scale="   57.127">  1  9  2 -1</clus>
<clus scale="   80.948">  5  6 -1 -1</clus>
<clus scale="   89.628">  7  8 -1 -1</clus>
<clus scale="  102.573">  2  5  1 -1</clus>
<clus scale="   57.127">  1  5  2 -1</clus>
</clustering>
</event>
<event>
 9    1  0.2951046E-005  0.8800823E+02  0.7546771E-02  0.1310974E+00
          1   -1    0    0  502    0  0.00000000000E+00  0.00000000000E+00  0.18205167547E+03  0.18205167547E+03  0.00000000000E+00 0. -1.
         -2   -1    0    0    0  501 -0.00000000000E+00 -0.00000000000E+00 -0.10578695302E+03  0.10578695302E+03  0.00000000000E+00 0.  1.
         23    2    1    2    0    0 -0.67003044017E+01 -0.21053123405E+01 -0.18374121172E+02  0.89074944504E+02  0.86875836631E+02 0.  0.
        -24    2    1    2    0    0 -0.47859480523E+02 -0.42929895195E+02  0.56796015584E+02  0.11853264459E+03  0.81796666615E+02 0.  0.
         13    1    4    4    0    0 -0.76040211752E+01 -0.42235329405E+02  0.64567408183E+02  0.77528023240E+02  0.00000000000E+00 0. -1.
        -14    1    4    4    0    0 -0.40255459348E+02 -0.69456579065E+00 -0.77713925996E+01  0.41004621348E+02  0.00000000000E+00 0.  1.
        -11    1    3    3    0    0  0.33431966339E+02 -0.17636810356E+02  0.79544349130E+01  0.38626758699E+02  0.00000000000E+00 0. -1.
         11    1    3    3    0    0 -0.40132270741E+02  0.15531498015E+02 -0.26328556085E+02  0.50448185804E+02  0.00000000000E+00 0.  1.
         21    1    1    2  502  501  0.54559784924E+02  0.45035207536E+02  0.37842828034E+02  0.80231039395E+02  0.00000000000E+00 0. -1.
<scales pt_clust_5="13000.00000" pt_clust_6="13000.00000" pt_clust_7="13000.00000" pt_clust_8="13000.00000" pt_clust_9="70.74560"></scales>
<clustering>
<clus scale="   70.746">  1  9  2 -1</clus>
<clus scale="   81.797">  5  6 -1 -1</clus>
<clus scale="   82.998">  1  5  2 -1</clus>
<clus scale="   86.876">  7  8 -1 -1</clus>
<clus scale="   70.746">  1  5  2 -1</clus>
</clustering>
</event>
<event>
 9    1  0.2951046E-005  0.1324299E+03  0.7546771E-02  0.1229105E+00
          1   -1    0    0  502    0  0.00000000000E+00  0.00000000000E+00  0.39549610266E+03  0.39549610266E+03  0.00000000000E+00 0. -1.
         -2   -1    0    0    0  501 -0.00000000000E+00 -0.00000000000E+00 -0.11077309226E+03  0.11077309226E+03  0.00000000000E+00 0.  1.
        -24    2    1    2    0    0  0.69626910525E+02 -0.69392525403E+02 -0.27287724214E+02  0.13009093380E+03  0.80720517304E+02 0.  0.
         23    2    1    2    0    0  0.15458846224E+02  0.61531349781E+02  0.22559011581E+03  0.25464675310E+03  0.99644295284E+02 0.  0.
         11    1    3    3    0    0 -0.76370073620E+01 -0.44969596818E+02 -0.40508940518E+01  0.45792993591E+02  0.00000000000E+00 0. -1.
        -12    1    3    3    0    0  0.77263917887E+02 -0.24422928585E+02 -0.23236830162E+02  0.84297940211E+02  0.00000000000E+00 0.  1.
        -13    1    4    4    0    0 -0.28069028306E+02  0.60193657243E+02  0.17874974935E+03  0.19068985189E+03  0.00000000000E+00 0. -1.
         13    1    4    4    0    0  0.43527874531E+02  0.13376925383E+01  0.46840366465E+02  0.63956901216E+02  0.00000000000E+00 0.  1.
         21    1    1    2  502  501 -0.85085756749E+02  0.78611756222E+01  0.86420618812E+02  0.12153150801E+03  0.00000000000E+00 0.  1.
<scales pt_clust_5="13000.00000" pt_clust_6="13000.00000" pt_clust_7="13000.00000" pt_clust_8="13000.00000" pt_clust_9="85.44814"></scales>
<clustering>
<clus scale="   80.721">  5  6 -1 -1</clus>
<clus scale="   85.448">  1  9  2 -1</clus>
<clus scale="   99.644">  7  8 -1 -1</clus>
<clus scale="  118.847">  2  5  1 -1</clus>
<clus scale="   85.448">  1  5  2 -1</clus>
</clustering>
</event>
<event>
 9    1  0.2951046E-005  0.9473766E+02  0.7546771E-02  0.1295700E+00
          1   -1    0    0  502    0  0.00000000000E+00  0.00000000000E+00  0.33263636716E+02  0.33263636716E+02  0.00000000000E+00 0. -1.
         -2   -1    0    0    0  501 -0.00000000000E+00 -0.00000000000E+00 -0.33632189645E+03  0.33632189645E+03  0.00000000000E+00 0.  1.
        -24    2    1    2    0    0  0.41712592963E+01  0.22575785767E+02 -0.15101816367E+03  0.17449208915E+03  0.84344163454E+02 0.  0.
         23    2    1    2    0    0  0.16179113613E+02 -0.27669793201E+02 -0.14200041208E+03  0.17183657743E+03  0.91303401568E+02 0.  0.
         11    1    3    3    0    0  0.35966097923E+02 -0.13248899543E+02 -0.53122965657E+02  0.65506816585E+02  0.00000000000E+00 0. -1.
        -12    1    3    3    0    0 -0.31794838627E+02  0.35824685310E+02 -0.97895198017E+02  0.10898527256E+03  0.00000000000E+00 0.  1.
        -13    1    4    4    0    0  0.33345275391E+02  0.13426113609E+02 -0.11326897559E+03  0.11883614243E+03  0.00000000000E+00 0.  1.
         13    1    4    4    0    0 -0.17166161778E+02 -0.41095906809E+02 -0.28731436491E+02  0.53000434994E+02  0.00000000000E+00 0. -1.
         21    1    1    2  502  501 -0.20350372910E+02  0.50940074338E+01 -0.10039683982E+02  0.23256866594E+02  0.00000000000E+00 0. -1.
<scales pt_clust_5="13000.00000" pt_clust_6="13000.00000" pt_clust_7="13000.00000" pt_clust_8="13000.00000" pt_clust_9="20.97824"></scales>
<clustering>
<clus scale="   20.978">  1  9  2 -1</clus>
<clus scale="   84.344">  5  6 -1 -1</clus>
<clus scale="   88.050">  2  5  1 -1</clus>
<clus scale="   91.303">  7  8 -1 -1</clus>
<clus scale="   20.978">  1  5  2 -1</clus>
</clustering>
</event>
<event>
 9    1  0.2951046E-005  0.9623772E+02  0.7546771E-02  0.1298267E+00
         -2   -1    0    0    0  501 -0.00000000000E+00  0.00000000000E+00  0.10173947570E+03  0.10173947570E+03  0.00000000000E+00 0.  1.
          1   -1    0    0  502    0  0.00000000000E+00 -0.00000000000E+00 -0.62451825976E+03  0.62451825976E+03  0.00000000000E+00 0. -1.
         23    2    1    2    0    0  0.90177485211E+02  0.11957394384E+02  0.30584192332E+02  0.13216956747E+03  0.90875979359E+02 0.  0.
        -24    2    1    2    0    0 -0.18577697905E+02 -0.23917357009E+02 -0.49385641071E+03  0.50022336305E+03  0.73566892776E+02 0.  0.
         13    1    4    4    0    0 -0.25496657921E+02 -0.17330784682E+02 -0.72801050913E+02  0.79059652648E+02  0.00000000000E+00 0. -1.
        -14    1    4    4    0    0  0.69189600156E+01 -0.65865723271E+01 -0.42105535980E+03  0.42116371040E+03  0.00000000000E+00 0.  1.
        -13    1    3    3    0    0  0.10831699242E+03  0.31062144010E+01  0.26929244024E+02  0.11165752817E+03  0.00000000000E+00 0.  1.
         13    1    3    3    0    0 -0.18139507207E+02  0.88511799827E+01  0.36549483082E+01  0.20512039292E+02  0.00000000000E+00 0. -1.
         21    1    1    2  502  501 -0.71599787306E+02  0.11959962626E+02 -0.59506565679E+02  0.93864804944E+02  0.00000000000E+00 0. -1.
<scales pt_clust_5="13000.00000" pt_clust_6="13000.00000" pt_clust_7="13000.00000" pt_clust_8="13000.00000" pt_clust_9="72.59181"></scales>
<clustering>
<clus scale="   72.592">  1  9  2 -1</clus>
<clus scale="   73.567">  5  6 -1 -1</clus>
<clus scale="   80.096">  2  5  1 -1</clus>
<clus scale="   90.876">  7  8 -1 -1</clus>
<clus scale="   80.096">  2  5  1 -1</clus>
</clustering>
</event>
<event>
 9    1  0.2951046E-005  0.9398592E+02  0.7546771E-02  0.1297868E+00
         -2   -1    0    0    0  501 -0.00000000000E+00  0.00000000000E+00  0.99329255715E+02  0.99329255715E+02  0.00000000000E+00 0.  1.
          1   -1    0    0  502    0  0.00000000000E+00 -0.00000000000E+00 -0.44147600496E+03  0.44147600496E+03  0.00000000000E+00 0. -1.
        -24    2    1    2    0    0  0.19920171794E+02 -0.23281387330E+02  0.60026502314E+02  0.10501283234E+03  0.80533705591E+02 0.  0.
         23    2    1    2    0    0 -0.67824355776E+02  0.57987960516E+01 -0.32193891533E+03  0.34072402900E+03  0.88399261666E+02 0.  0.
         13    1    3    3    0    0 -0.30923459396E+02 -0.30293953422E+01  0.17162268045E+02  0.35496211370E+02  0.00000000000E+00 0. -1.
        -14    1    3    3    0    0  0.50843631190E+02 -0.20251991987E+02  0.42864234269E+02  0.69516620973E+02  0.00000000000E+00 0.  1.
        -13    1    4    4    0    0  0.19250208797E+02  0.13314221889E+02 -0.52941469174E+02  0.57884697473E+02  0.00000000000E+00 0.  1.
         13    1    4    4    0    0 -0.87074564573E+02 -0.75154258370E+01 -0.26899744616E+03  0.28283933153E+03  0.00000000000E+00 0. -1.
         21    1    1    2  502  501  0.47904183982E+02  0.17482591278E+02 -0.80234336223E+02  0.95068399323E+02  0.00000000000E+00 0.  1.
<scales pt_clust_5="13000.00000" pt_clust_6="13000.00000" pt_clust_7="13000.00000" pt_clust_8="13000.00000" pt_clust_9="50.99463"></scales>
<clustering>
<clus scale="   50.995">  2  9  1 -1</clus>
<clus scale="   80.534">  5  6 -1 -1</clus>
<clus scale="   86.629">  1  5  2 -1</clus>
<clus scale="   88.399">  7  8 -1 -1</clus>
<clus scale="   50.995">  2  5  1 -1</clus>
</clustering>
</event>
<event>
 9    1  0.2951046E-005  0.2093936E+03  0.7546771E-02  0.1142805E+00
          1   -1    0    0  502    0  0.00000000000E+00  0.00000000000E+00  0.66751660303E+03  0.66751660303E+03  0.00000000000E+00 0. -1.
         -2   -1    0    0    0  501 -0.00000000000E+00 -0.00000000000E+00 -0.19266826647E+03  0.19266826647E+03  0.00000000000E+00 0.  1.
         23    2    1    2    0    0  0.17293729243E+03  0.90939699135E+02 -0.10529852818E+03  0.23962721059E+03  0.90311040431E+02 0.  0.
        -24    2    1    2    0    0 -0.11999264922E+03 -0.79386724565E+02  0.45973782400E+03  0.48851621254E+03  0.81171024338E+02 0.  0.
         13    1    4    4    0    0 -0.54701433321E+02 -0.75020105385E+02  0.19746457653E+03  0.21820293766E+03  0.00000000000E+00 0. -1.
        -14    1    4    4    0    0 -0.65291215901E+02 -0.43666191804E+01  0.26227324748E+03  0.27031327488E+03  0.00000000000E+00 0.  1.
        -11    1    3    3    0    0  0.13729445909E+03  0.75935316447E+02 -0.12075134807E+03  0.19798189019E+03  0.00000000000E+00 0.  1.
         11    1    3    3    0    0  0.35642833342E+02  0.15004382688E+02  0.15452819892E+02  0.41645320399E+02  0.00000000000E+00 0. -1.
         21    1    1    2  502  501 -0.52944643212E+02 -0.11552974570E+02  0.12040904075E+03  0.13204144637E+03  0.00000000000E+00 0.  1.
<scales pt_clust_5="13000.00000" pt_clust_6="13000.00000" pt_clust_7="13000.00000" pt_clust_8="13000.00000" pt_clust_9="54.19046"></scales>
<clustering>
<clus scale="   54.190">  1  9  2 -1</clus>
<clus scale="   81.171">  5  6 -1 -1</clus>
<clus scale="   90.311">  7  8 -1 -1</clus>
<clus scale="  205.617">  1  5  2 -1</clus>
<clus scale="   54.190">  1  5  2 -1</clus>
</clustering>
</event>
<event>
 9    1  0.2951046E-005  0.1180834E+03  0.7546771E-02  0.1259148E+00
         -2   -1    0    0    0  501 -0.00000000000E+00  0.00000000000E+00  0.34295058751E+03  0.34295058751E+03  0.00000000000E+00 0.  1.
          1   -1    0    0  502    0  0.00000000000E+00 -0.00000000000E+00 -0.69737869409E+02  0.69737869409E+02  0.00000000000E+00 0. -1.
         23    2    1    2    0    0  0.10700518912E+02 -0.20282019639E+02  0.16986248435E+03  0.20452563921E+03  0.11158679169E+03 0.  0.
        -24    2    1    2    0    0 -0.45227903043E+02 -0.12756913494E+02  0.10864480013E+01  0.95284151729E+02  0.82882972593E+02 0.  0.
         13    1    4    4    0    0 -0.20710998386E+02 -0.43240684179E+02  0.19857280570E+02  0.51894256079E+02  0.00000000000E+00 0. -1.
        -14    1    4    4    0    0 -0.24516904657E+02  0.30483770685E+02 -0.18770832568E+02  0.43389895649E+02  0.00000000000E+00 0.  1.
        -11    1    3    3    0    0 -0.98908993941E+01  0.44120321106E+02  0.82223790945E+02  0.93835944194E+02  0.00000000000E+00 0.  1.
         11    1    3    3    0    0  0.20591418306E+02 -0.64402340745E+02  0.87638693405E+02  0.11068969502E+03  0.00000000000E+00 0. -1.
         21    1    1    2  502  501  0.34527384131E+02  0.33038933133E+02  0.10226378575E+03  0.11287866598E+03  0.00000000000E+00 0.  1.
<scales pt_clust_5="13000.00000" pt_clust_6="13000.00000" pt_clust_7="13000.00000" pt_clust_8="13000.00000" pt_clust_9="47.78819"></scales>
<clustering>
<clus scale="   47.788">  1  9  2 -1</clus>
<clus scale="   82.883">  5  6 -1 -1</clus>
<clus scale="   91.442">  2  5  1 -1</clus>
<clus scale="  111.587">  7  8 -1 -1</clus>
<clus scale="   91.442">  2  5  1 -1</clus>
</clustering>
</event>
<event>
 9    1  0.2951046E-005  0.9387752E+02  0.7546771E-02  0.1304930E+00
         -2   -1    0    0    0  501 -0.00000000000E+00  0.00000000000E+00  0.85957026864E+02  0.85957026864E+02  0.00000000000E+00 0.  1.
          1   -1    0    0  502    0  0.00000000000E+00 -0.00000000000E+00 -0.24363574716E+03  0.24363574716E+03  0.00000000000E+00 0. -1.
        -24    2    1    2    0    0  0.16345199132E+02 -0.58731780845E+02 -0.12388837048E+02  0.96035444820E+02  0.73162393089E+02 0.  0.
         23    2    1    2    0    0 -0.59009262819E+01 -0.16889818589E+02 -0.12011906306E+03  0.15317524584E+03  0.93348699654E+02 0.  0.
         11    1    3    3    0    0 -0.18412144507E+02 -0.52751001613E+02  0.61189975235E+01  0.56206026076E+02  0.00000000000E+00 0. -1.
        -12    1    3    3    0    0  0.34757343638E+02 -0.59807792317E+01 -0.18507834572E+02  0.39829418745E+02  0.00000000000E+00 0.  1.
        -11    1    4    4    0    0  0.40310910748E+01  0.35520797897E+02 -0.75861132691E+02  0.83862317113E+02  0.00000000000E+00 0.  1.
         11    1    4    4    0    0 -0.99320173566E+01 -0.52410616485E+02 -0.44257930365E+02  0.69312928731E+02  0.00000000000E+00 0. -1.
         21    1    1    2  502  501 -0.10444272850E+02  0.75621599433E+02 -0.25170820195E+02  0.80382083361E+02  0.00000000000E+00 0.  1.
<scales pt_clust_5="13000.00000" pt_clust_6="13000.00000" pt_clust_7="13000.00000" pt_clust_8="13000.00000" pt_clust_9="76.33943"></scales>
<clustering>
<clus scale="   73.162">  5  6 -1 -1</clus>
<clus scale="   76.339">  1  9  2 -1</clus>
<clus scale="   76.339">  1  5  2 -1</clus>
<clus scale="   93.349">  7  8 -1 -1</clus>
<clus scale="   93.878">  2  5  1 -1</clus>
</clustering>
</event>
<event>
 9    1  0.2951046E-005  0.1663107E+03  0.7546771E-02  0.1183380E+00
         -2   -1    0    0    0  501 -0.00000000000E+00  0.00000000000E+00  0.78962329031E+02  0.78962329031E+02  0.00000000000E+00 0.  1.
          1   -1    0    0  502    0  0.00000000000E+00 -0.00000000000E+00 -0.55736493505E+03  0.55736493505E+03  0.00000000000E+00 0. -1.
        -24    2    1    2    0    0 -0.93519875514E+02  0.80211444310E+02 -0.12208692022E+03  0.19012310917E+03  0.77857161757E+02 0.  0.
         23    2    1    2    0    0  0.12195033423E+03 -0.10624193610E+03 -0.15499165599E+03  0.24122307661E+03  0.89481429669E+02 0.  0.
         13    1    3    3    0    0 -0.30647141034E+02  0.60531753239E+02 -0.99593821864E+02  0.12050838044E+03  0.00000000000E+00 0. -1.
        -14    1    3    3    0    0 -0.62872734480E+02  0.19679691070E+02 -0.22493098352E+02  0.69614728722E+02  0.00000000000E+00 0.  1.
        -11    1    4    4    0    0  0.13260361028E+02 -0.28083446046E+02 -0.84283421119E+02  0.89823227463E+02  0.00000000000E+00 0. -1.
         11    1    4    4    0    0  0.10868997320E+03 -0.78158490055E+02 -0.70708234875E+02  0.15139984914E+03  0.00000000000E+00 0.  1.
         21    1    1    2  502  501 -0.28430458712E+02  0.26030491792E+02 -0.20132402981E+03  0.20498107831E+03  0.00000000000E+00 0.  1.
<scales pt_clust_5="13000.00000" pt_clust_6="13000.00000" pt_clust_7="13000.00000" pt_clust_8="13000.00000" pt_clust_9="38.54708"></scales>
<clustering>
<clus scale="   38.547">  2  9  1 -1</clus>
<clus scale="   77.857">  5  6 -1 -1</clus>
<clus scale="   89.481">  7  8 -1 -1</clus>
<clus scale="  160.356">  1  5  2 -1</clus>
<clus scale="   38.547">  2  5  1 -1</clus>
</clustering>
</event>
<event>
 9    1  0.2951046E-005  0.1084299E+03  0.7546771E-02  0.1266151E+00
          1   -1    0    0  502    0  0.00000000000E+00  0.00000000000E+00  0.50165589312E+03  0.50165589312E+03  0.00000000000E+00 0. -1.
         -2   -1    0    0    0  501 -0.00000000000E+00 -0.00000000000E+00 -0.51883653423E+02  0.51883653423E+02  0.00000000000E+00 0.  1.
         23    2    1    2    0    0  0.52935080444E+02 -0.24555426525E+02  0.28467657216E+02  0.11137953091E+03  0.90498070063E+02 0.  0.
        -24    2    1    2    0    0 -0.68239246649E+02  0.78332991228E+01  0.30579109570E+03  0.32444335294E+03  0.83888853229E+02 0.  0.
         11    1    4    4    0    0 -0.72049193690E+02 -0.24224853321E+02  0.20735338663E+03  0.22084690800E+03  0.00000000000E+00 0. -1.
        -12    1    4    4    0    0  0.38099470414E+01  0.32058152444E+02  0.98437709074E+02  0.10359644493E+03  0.00000000000E+00 0.  1.
        -13    1    3    3    0    0  0.78152155671E+02 -0.11928510388E+02  0.25266529127E+02  0.82996664332E+02  0.00000000000E+00 0.  1.
         13    1    3    3    0    0 -0.25217075228E+02 -0.12626916137E+02  0.32011280888E+01  0.28382866578E+02  0.00000000000E+00 0. -1.
         21    1    1    2  502  501  0.15304166205E+02  0.16722127403E+02  0.11551348678E+03  0.11771666269E+03  0.00000000000E+00 0.  1.
<scales pt_clust_5="13000.00000" pt_clust_6="13000.00000" pt_clust_7="13000.00000" pt_clust_8="13000.00000" pt_clust_9="22.66819"></scales>
<clustering>
<clus scale="   22.668">  1  9  2 -1</clus>
<clus scale="   83.889">  5  6 -1 -1</clus>
<clus scale="   90.498">  7  8 -1 -1</clus>
<clus scale="  102.978">  1  5  2 -1</clus>
<clus scale="   22.668">  1  5  2 -1</clus>
</clustering>
</event>
<event>
 9    1  0.2951046E-005  0.3089124E+03  0.7546771E-02  0.1081505E+00
         -2   -1    0    0    0  501 -0.00000000000E+00  0.00000000000E+00  0.11349507101E+03  0.11349507101E+03  0.00000000000E+00 0.  1.
          1   -1    0    0  502    0  0.00000000000E+00 -0.00000000000E+00 -0.12664501323E+04  0.12664501323E+04  0.00000000000E+00 0. -1.
        -24    2    1    2    0    0  0.12683186815E+03  0.22418867615E+03 -0.30672266646E+03  0.40841343260E+03  0.79848935597E+02 0.  0.
         23    2    1    2    0    0 -0.18876857092E+03 -0.30317490677E+03 -0.59297969976E+03  0.69911314554E+03  0.97906427138E+02 0.  0.
         13    1    3    3    0    0  0.10910694880E+03  0.12597396821E+03 -0.16046750277E+03  0.23135165093E+03  0.00000000000E+00 0. -1.
        -14    1    3    3    0    0  0.17724919346E+02  0.98214707937E+02 -0.14625516369E+03  0.17706178167E+03  0.00000000000E+00 0.  1.
        -11    1    4    4    0    0 -0.13000215671E+03 -0.21291810279E+03 -0.49124141932E+03  0.55095626986E+03  0.00000000000E+00 0.  1.
         11    1    4    4    0    0 -0.58766414202E+02 -0.90256803982E+02 -0.10173828045E+03  0.14815687568E+03  0.00000000000E+00 0. -1.
         21    1    1    2  502  501  0.61936702769E+02  0.78986230622E+02 -0.25325269504E+03  0.27241862514E+03  0.00000000000E+00 0. -1.
<scales pt_clust_5="13000.00000" pt_clust_6="13000.00000" pt_clust_7="13000.00000" pt_clust_8="13000.00000" pt_clust_9="100.37420"></scales>
<clustering>
<clus scale="   79.849">  5  6 -1 -1</clus>
<clus scale="   97.906">  7  8 -1 -1</clus>
<clus scale="  100.374">  2  9  1 -1</clus>
<clus scale="  303.673">  1  5  2 -1</clus>
<clus scale="  100.374">  2  5  1 -1</clus>
</clustering>
</event>
<event>
 9    1  0.2951046E-005  0.1482301E+03  0.7546771E-02  0.1205676E+00
          1   -1    0    0  502    0  0.00000000000E+00  0.00000000000E+00  0.45737241865E+02  0.45737241865E+02  0.00000000000E+00 0. -1.
         -2   -1    0    0    0  501 -0.00000000000E+00 -0.00000000000E+00 -0.81899981763E+03  0.81899981763E+03  0.00000000000E+00 0.  1.
         23    2    1    2    0    0  0.80899999899E+02 -0.85000981629E+02 -0.60521149250E+03  0.62313547709E+03  0.90812418125E+02 0.  0.
        -24    2    1    2    0    0 -0.64129757443E+02  0.99214552706E+02 -0.16937519357E+03  0.21957841500E+03  0.74636257128E+02 0.  0.
         13    1    4    4    0    0 -0.33976719238E+02  0.24071628915E+02 -0.13232740744E+02  0.43691717709E+02  0.00000000000E+00 0. -1.
        -14    1    4    4    0    0 -0.30153038205E+02  0.75142923792E+02 -0.15614245282E+03  0.17588669729E+03  0.00000000000E+00 0.  1.
        -11    1    3    3    0    0  0.93409865105E+02 -0.48245232536E+02 -0.50133562497E+03  0.51224058237E+03  0.00000000000E+00 0.  1.
         11    1    3    3    0    0 -0.12509865206E+02 -0.36755749093E+02 -0.10387586753E+03  0.11089489472E+03  0.00000000000E+00 0. -1.
         21    1    1    2  502  501 -0.16770242456E+02 -0.14213571077E+02  0.13241103033E+01  0.22023167413E+02  0.00000000000E+00 0.  1.
<scales pt_clust_5="13000.00000" pt_clust_6="13000.00000" pt_clust_7="13000.00000" pt_clust_8="13000.00000" pt_clust_9="21.98333"></scales>
<clustering>
<clus scale="   21.983">  1  9  2 -1</clus>
<clus scale="   74.636">  5  6 -1 -1</clus>
<clus scale="   90.812">  7  8 -1 -1</clus>
<clus scale="  138.909">  1  5  2 -1</clus>
<clus scale="   21.983">  1  5  2 -1</clus>
</clustering>
</event>
<event>
 9    1  0.2951046E-005  0.9316819E+02  0.7546771E-02  0.1298931E+00
         -2   -1    0    0    0  501 -0.00000000000E+00  0.00000000000E+00  0.25690670839E+02  0.25690670839E+02  0.00000000000E+00 0.  1.
          1   -1    0    0  502    0  0.00000000000E+00 -0.00000000000E+00 -0.47315013321E+03  0.47315013321E+03  0.00000000000E+00 0. -1.
         23    2    1    2    0    0  0.29696962753E+02  0.40968690644E+02 -0.16006904754E+03  0.18883807496E+03  0.86471818310E+02 0.  0.
        -24    2    1    2    0    0 -0.90497939530E+01 -0.14105805055E+02 -0.18819492618E+03  0.20518066477E+03  0.80005640100E+02 0.  0.
         11    1    4    4    0    0 -0.34792494075E+02  0.51066097828E+01 -0.15519266351E+03  0.15912686107E+03  0.00000000000E+00 0. -1.
        -12    1    4    4    0    0  0.25742700122E+02 -0.19212414838E+02 -0.33002262672E+02  0.46053803697E+02  0.00000000000E+00 0.  1.
        -13    1    3    3    0    0  0.20920437086E+02 -0.65177069269E+01 -0.28279033689E+00  0.21914040290E+02  0.00000000000E+00 0.  1.
         13    1    3    3    0    0  0.87765256665E+01  0.47486397570E+02 -0.15978625721E+03  0.16692403467E+03  0.00000000000E+00 0. -1.
         21    1    1    2  502  501 -0.20647168800E+02 -0.26862885589E+02 -0.99195488643E+02  0.10482206432E+03  0.00000000000E+00 0. -1.
<scales pt_clust_5="13000.00000" pt_clust_6="13000.00000" pt_clust_7="13000.00000" pt_clust_8="13000.00000" pt_clust_9="33.88097"></scales>
<clustering>
<clus scale="   33.881">  2  9  1 -1</clus>
<clus scale="   80.006">  5  6 -1 -1</clus>
<clus scale="   86.472">  7  8 -1 -1</clus>
<clus scale="   87.200">  2  5  1 -1</clus>
<clus scale="   33.881">  2  5  1 -1</clus>
</clustering>
</event>
<event>
 9    1  0.2951046E-005  0.1427865E+03  0.7546771E-02  0.1211867E+00
         -2   -1    0    0    0  501 -0.00000000000E+00  0.00000000000E+00  0.12905378616E+03  0.12905378616E+03  0.00000000000E+00 0.  1.
          1   -1    0    0  502    0  0.00000000000E+00 -0.00000000000E+00 -0.37689765902E+03  0.37689765902E+03  0.00000000000E+00 0. -1.
        -24    2    1    2    0    0 -0.11036211391E+03 -0.61729012085E+01  0.57548098464E+02  0.14819459799E+03  0.80199465961E+02 0.  0.
         23    2    1    2    0    0  0.10349116711E+03  0.42756121195E+02 -0.27122561006E+03  0.30723079314E+03  0.91043512309E+02 0.  0.
         11    1    3    3    0    0 -0.65426407509E+02  0.28639765801E+02  0.63642278034E+01  0.71703238283E+02  0.00000000000E+00 0. -1.
        -12    1    3    3    0    0 -0.44935706406E+02 -0.34812667010E+02  0.51183870661E+02  0.76491359710E+02  0.00000000000E+00 0.  1.
        -13    1    4    4    0    0  0.10761410795E+03  0.16802542609E+02 -0.25241944324E+03  0.27491579982E+03  0.00000000000E+00 0. -1.
         13    1    4    4    0    0 -0.41229408462E+01  0.25953578586E+02 -0.18806166825E+02  0.32314993320E+02  0.00000000000E+00 0.  1.
         21    1    1    2  502  501  0.68709468085E+01 -0.36583219986E+02 -0.34166361265E+02  0.50526054038E+02  0.00000000000E+00 0.  1.
<scales pt_clust_5="13000.00000" pt_clust_6="13000.00000" pt_clust_7="13000.00000" pt_clust_8="13000.00000" pt_clust_9="37.22287"></scales>
<clustering>
<clus scale="   37.223">  2  9  1 -1</clus>
<clus scale="   80.199">  5  6 -1 -1</clus>
<clus scale="   91.044">  7  8 -1 -1</clus>
<clus scale="  136.129">  1  5  2 -1</clus>
<clus scale="   37.223">  2  5  1 -1</clus>
</clustering>
</event>
<event>
 9    1  0.2951046E-005  0.1150134E+03  0.7546771E-02  0.1254299E+00
          1   -1    0    0  502    0  0.00000000000E+00  0.00000000000E+00  0.21024379225E+03  0.21024379225E+03  0.00000000000E+00 0. -1.
         -2   -1    0    0    0  501 -0.00000000000E+00 -0.00000000000E+00 -0.27851486627E+03  0.27851486627E+03  0.00000000000E+00 0.  1.
         23    2    1    2    0    0  0.67098133813E+02  0.30337434798E+02 -0.24508125564E+03  0.27149371320E+03  0.90672459591E+02 0.  0.
        -24    2    1    2    0    0 -0.34971676559E+02 -0.17299103321E+02  0.13124396674E+03  0.16000774245E+03  0.82796266229E+02 0.  0.
         13    1    4    4    0    0  0.22412179248E+01  0.30003919253E+02  0.31869708310E+02  0.43828490005E+02  0.00000000000E+00 0. -1.
        -14    1    4    4    0    0 -0.37212894483E+02 -0.47303022574E+02  0.99374258426E+02  0.11617925244E+03  0.00000000000E+00 0.  1.
        -13    1    3    3    0    0  0.10089520600E+02 -0.30690453395E+02 -0.53436869159E+02  0.62443585267E+02  0.00000000000E+00 0.  1.
         13    1    3    3    0    0  0.57008613213E+02  0.61027888193E+02 -0.19164438648E+03  0.20905012793E+03  0.00000000000E+00 0. -1.
         21    1    1    2  502  501 -0.32126457254E+02 -0.13038331477E+02  0.45566214874E+02  0.57257202878E+02  0.00000000000E+00 0. -1.
<scales pt_clust_5="13000.00000" pt_clust_6="13000.00000" pt_clust_7="13000.00000" pt_clust_8="13000.00000" pt_clust_9="34.67142"></scales>
<clustering>
<clus scale="   34.671">  1  9  2 -1</clus>
<clus scale="   82.796">  5  6 -1 -1</clus>
<clus scale="   90.672">  7  8 -1 -1</clus>
<clus scale="  108.912">  1  5  2 -1</clus>
<clus scale="   34.671">  1  5  2 -1</clus>
</clustering>
</event>
<event>
 9    1  0.2951046E-005  0.8766784E+02  0.7546771E-02  0.1308896E+00
         -2   -1    0    0    0  501 -0.00000000000E+00  0.00000000000E+00  0.84088578240E+02  0.84088578240E+02  0.00000000000E+00 0.  1.
          1   -1    0    0  502    0  0.00000000000E+00 -0.00000000000E+00 -0.20264049363E+03  0.20264049363E+03  0.00000000000E+00 0. -1.
        -24    2    1    2    0    0 -0.16116751298E+02 -0.19720208494E+02 -0.10648411947E+02  0.90136566739E+02  0.85805452571E+02 0.  0.
         23    2    1    2    0    0 -0.31935818038E+02 -0.23026685743E+02 -0.89318599064E+02  0.12964666839E+03  0.85324801525E+02 0.  0.
         11    1    3    3    0    0 -0.29929569160E+02 -0.45882732845E+02 -0.21179571128E+02  0.58733112607E+02  0.00000000000E+00 0. -1.
        -12    1    3    3    0    0  0.13812817862E+02  0.26162524351E+02  0.10531159180E+02  0.31403454131E+02  0.00000000000E+00 0.  1.
        -13    1    4    4    0    0 -0.53354147381E+02  0.64792412631E+01 -0.70398550693E+02  0.88569755277E+02  0.00000000000E+00 0. -1.
         13    1    4    4    0    0  0.21418329343E+02 -0.29505927006E+02 -0.18920048371E+02  0.41076913111E+02  0.00000000000E+00 0.  1.
         21    1    1    2  502  501  0.48052569336E+02  0.42746894237E+02 -0.18584904381E+02  0.66945836746E+02  0.00000000000E+00 0.  1.
<scales pt_clust_5="13000.00000" pt_clust_6="13000.00000" pt_clust_7="13000.00000" pt_clust_8="13000.00000" pt_clust_9="64.31443"></scales>
<clustering>
<clus scale="   64.314">  1  9  2 -1</clus>
<clus scale="   85.325">  7  8 -1 -1</clus>
<clus scale="   85.805">  5  6 -1 -1</clus>
<clus scale="   87.197">  2  7  1 -1</clus>
<clus scale="   87.197">  2  5  1 -1</clus>
</clustering>
</event>
<event>
 9    1  0.2951046E-005  0.1068865E+03  0.7546771E-02  0.1268976E+00
         -2   -1    0    0    0  501 -0.00000000000E+00  0.00000000000E+00  0.46392469604E+03  0.46392469604E+03  0.00000000000E+00 0.  1.
          1   -1    0    0  502    0  0.00000000000E+00 -0.00000000000E+00 -0.66616448820E+02  0.66616448820E+02  0.00000000000E+00 0. -1.
         23    2    1    2    0    0 -0.29077209114E+02 -0.67165290236E+02  0.35136593263E+03  0.37025409592E+03  0.90958323569E+02 0.  0.
        -24    2    1    2    0    0  0.38093539556E+02  0.38874301905E+02 -0.53995225654E+01  0.10097719750E+03  0.84881744016E+02 0.  0.
         13    1    4    4    0    0 -0.26973776697E+02  0.54049275205E+01  0.99211054102E+00  0.27527843253E+02  0.00000000000E+00 0. -1.
        -14    1    4    4    0    0  0.65067316254E+02  0.33469374384E+02 -0.63916331064E+01  0.73449354251E+02  0.00000000000E+00 0.  1.
        -13    1    3    3    0    0  0.25918228708E+02 -0.48044801710E+02  0.12277108162E+03  0.13436069378E+03  0.00000000000E+00 0.  1.
         13    1    3    3    0    0 -0.54995437822E+02 -0.19120488525E+02  0.22859485101E+03  0.23589340214E+03  0.00000000000E+00 0. -1.
         21    1    1    2  502  501 -0.90163304423E+01  0.28290988331E+02  0.51341837148E+02  0.59309851434E+02  0.00000000000E+00 0.  1.
<scales pt_clust_5="13000.00000" pt_clust_6="13000.00000" pt_clust_7="13000.00000" pt_clust_8="13000.00000" pt_clust_9="29.69300"></scales>
<clustering>
<clus scale="   29.693">  1  9  2 -1</clus>
<clus scale="   84.882">  5  6 -1 -1</clus>
<clus scale="   90.958">  7  8 -1 -1</clus>
<clus scale="  101.766">  2  5  1 -1</clus>
<clus scale="  101.766">  2  5  1 -1</clus>
</clustering>
</event>
<event>
 9    1  0.2951046E-005  0.1059127E+03  0.7546771E-02  0.1269621E+00
          1   -1    0    0  502    0  0.00000000000E+00  0.00000000000E+00  0.40929718143E+03  0.40929718143E+03  0.00000000000E+00 0. -1.
         -2   -1    0    0    0  501 -0.00000000000E+00 -0.00000000000E+00 -0.82902623219E+02  0.82902623219E+02  0.00000000000E+00 0.  1.
        -24    2    1    2    0    0  0.57112095180E+01  0.58789754047E+02 -0.28278608123E+02  0.10801145848E+03  0.85894949737E+02 0.  0.
         23    2    1    2    0    0 -0.29972985290E+02 -0.45330701229E+02  0.18597819808E+03  0.21322702838E+03  0.89020352444E+02 0.  0.
         11    1    3    3    0    0  0.15201676818E+02  0.78669454501E+02 -0.12926432526E+02  0.81160746100E+02  0.00000000000E+00 0. -1.
        -12    1    3    3    0    0 -0.94904673000E+01 -0.19879700454E+02 -0.15352175597E+02  0.26850712379E+02  0.00000000000E+00 0.  1.
        -11    1    4    4    0    0 -0.46397168410E+02 -0.81964987703E+01  0.15543140286E+03  0.16241551904E+03  0.00000000000E+00 0.  1.
         11    1    4    4    0    0  0.16424183120E+02 -0.37134202458E+02  0.30546795214E+02  0.50811509338E+02  0.00000000000E+00 0. -1.
         21    1    1    2  502  501  0.24261775772E+02 -0.13459052819E+02  0.16869496825E+03  0.17096131779E+03  0.00000000000E+00 0. -1.
<scales pt_clust_5="13000.00000" pt_clust_6="13000.00000" pt_clust_7="13000.00000" pt_clust_8="13000.00000" pt_clust_9="27.74491"></scales>
<clustering>
<clus scale="   27.745">  1  9  2 -1</clus>
<clus scale="   85.895">  5  6 -1 -1</clus>
<clus scale="   89.020">  7  8 -1 -1</clus>
<clus scale="  103.300">  2  5  1 -1</clus>
<clus scale="   27.745">  1  5  2 -1</clus>
</clustering>
</event>
<event>
 9    1  0.2951046E-005  0.1070418E+03  0.7546771E-02  0.1272149E+00
          1   -1    0    0  502    0  0.00000000000E+00  0.00000000000E+00  0.19016622421E+03  0.19016622421E+03  0.00000000000E+00 0. -1.
         -2   -1    0    0    0  501 -0.00000000000E+00 -0.00000000000E+00 -0.10069092441E+03  0.10069092441E+03  0.00000000000E+00 0.  1.
         23    2    1    2    0    0  0.43184229914E+02  0.11221364074E+02 -0.10152175159E+02  0.10413672831E+03  0.93544613948E+02 0.  0.
        -24    2    1    2    0    0 -0.64469769845E+02  0.12320472740E+02  0.26048179852E+02  0.10658799891E+03  0.79839517570E+02 0.  0.
         13    1    4    4    0    0 -0.68336466764E+02 -0.19684903839E+02  0.17554968266E+02  0.73249880817E+02  0.00000000000E+00 0. -1.
        -14    1    4    4    0    0  0.38666969188E+01  0.32005376578E+02  0.84932115865E+01  0.33338118094E+02  0.00000000000E+00 0.  1.
        -11    1    3    3    0    0  0.29663632682E+02 -0.22129801839E+02  0.31849167113E+02  0.48826516148E+02  0.00000000000E+00 0. -1.
         11    1    3    3    0    0  0.13520597233E+02  0.33351165913E+02 -0.42001342272E+02  0.55310212167E+02  0.00000000000E+00 0.  1.
         21    1    1    2  502  501  0.21285539931E+02 -0.23541836813E+02  0.73579295109E+02  0.80132421400E+02  0.00000000000E+00 0. -1.
<scales pt_clust_5="13000.00000" pt_clust_6="13000.00000" pt_clust_7="13000.00000" pt_clust_8="13000.00000" pt_clust_9="31.73787"></scales>
<clustering>
<clus scale="   31.738">  1  9  2 -1</clus>
<clus scale="   79.840">  5  6 -1 -1</clus>
<clus scale="   93.545">  7  8 -1 -1</clus>
<clus scale="   95.298">  1  5  2 -1</clus>
<clus scale="   31.738">  1  5  2 -1</clus>
</clustering>
</event>
<event>
 9    1  0.2951046E-005  0.2063157E+03  0.7546771E-02  0.1145453E+00
         -2   -1    0    0    0  501 -0.00000000000E+00  0.00000000000E+00  0.11983516033E+03  0.11983516033E+03  0.00000000000E+00 0.  1.
          1   -1    0    0  502    0  0.00000000000E+00 -0.00000000000E+00 -0.71279458148E+03  0.71279458148E+03  0.00000000000E+00 0. -1.
         23    2    1    2    0    0 -0.15816772674E+03 -0.99246534046E+02 -0.84233014874E+01  0.20790085591E+03  0.91021478655E+02 0.  0.
        -24    2    1    2    0    0  0.16213440796E+03  0.74928620023E+02 -0.51466297037E+03  0.55063872128E+03  0.80144643997E+02 0.  0.
         13    1    4    4    0    0  0.15499470665E+03  0.77479792884E+02 -0.51466914670E+03  0.54305691042E+03  0.00000000000E+00 0. -1.
        -14    1    4    4    0    0  0.71397013060E+01 -0.25511728608E+01  0.61763303196E-02  0.75818108557E+01  0.00000000000E+00 0.  1.
        -11    1    3    3    0    0 -0.52426563033E+02  0.21402196729E+01 -0.29028667485E+02  0.59964894627E+02  0.00000000000E+00 0. -1.
         11    1    3    3    0    0 -0.10574116371E+03 -0.10138675372E+03  0.20605365998E+02  0.14793596128E+03  0.00000000000E+00 0.  1.
         21    1    1    2  502  501 -0.39666812178E+01  0.24317914022E+02 -0.69873149292E+02  0.74090164625E+02  0.00000000000E+00 0. -1.
<scales pt_clust_5="13000.00000" pt_clust_6="13000.00000" pt_clust_7="13000.00000" pt_clust_8="13000.00000" pt_clust_9="24.63931"></scales>
<clustering>
<clus scale="   24.639">  2  9  1 -1</clus>
<clus scale="   80.145">  5  6 -1 -1</clus>
<clus scale="   91.021">  7  8 -1 -1</clus>
<clus scale="  201.753">  2  5  1 -1</clus>
<clus scale="   24.639">  2  5  1 -1</clus>
</clustering>
</event>
<event>
 9    1  0.2951046E-005  0.1106389E+03  0.7546771E-02  0.1263679E+00
         -2   -1    0    0    0  501 -0.00000000000E+00  0.00000000000E+00  0.12343443236E+03  0.12343443236E+03  0.00000000000E+00 0.  1.
          1   -1    0    0  502    0  0.00000000000E+00 -0.00000000000E+00 -0.16472929384E+03  0.16472929384E+03  0.00000000000E+00 0. -1.
         23    2    1    2    0    0 -0.29863986856E+02 -0.53963897867E+02  0.27299748899E+02  0.11370998351E+03  0.91546294712E+02 0.  0.
        -24    2    1    2    0    0 -0.14451742259E+02  0.73269020067E+02 -0.60652439935E+02  0.12546752359E+03  0.80536816732E+02 0.  0.
         11    1    4    4    0    0  0.32011199015E+02  0.43148353514E+02 -0.37120831832E+02  0.65302782706E+02  0.00000000000E+00 0. -1.
        -12    1    4    4    0    0 -0.46462941274E+02  0.30120666553E+02 -0.23531608104E+02  0.60164740882E+02  0.00000000000E+00 0.  1.
        -13    1    3    3    0    0 -0.14427408607E+02 -0.37471991291E+02 -0.31297101053E+02  0.50909810300E+02  0.00000000000E+00 0. -1.
         13    1    3    3    0    0 -0.15436578248E+02 -0.16491906576E+02  0.58596849953E+02  0.62800173208E+02  0.00000000000E+00 0.  1.
         21    1    1    2  502  501  0.44315729114E+02 -0.19305122200E+02 -0.79421704427E+01  0.48986219097E+02  0.00000000000E+00 0. -1.
<scales pt_clust_5="13000.00000" pt_clust_6="13000.00000" pt_clust_7="13000.00000" pt_clust_8="13000.00000" pt_clust_9="48.33810"></scales>
<clustering>
<clus scale="   48.338">  2  9  1 -1</clus>
<clus scale="   80.537">  5  6 -1 -1</clus>
<clus scale="   91.546">  7  8 -1 -1</clus>
<clus scale="  101.717">  2  5  1 -1</clus>
<clus scale="   48.338">  2  5  1 -1</clus>
</clustering>
</event>
<event>
 9    1  0.2951046E-005  0.1790175E+03  0.7546771E-02  0.1170173E+00
         -2   -1    0    0    0  501 -0.00000000000E+00  0.00000000000E+00  0.12828025149E+03  0.12828025149E+03  0.00000000000E+00 0.  1.
          1   -1    0    0  502    0  0.00000000000E+00 -0.00000000000E+00 -0.48272520972E+03  0.48272520972E+03  0.00000000000E+00 0. -1.
         23    2    1    2    0    0 -0.11706694724E+03  0.10038428266E+03  0.13333062504E+02  0.18063329848E+03  0.93107162025E+02 0.  0.
        -24    2    1    2    0    0  0.79966922309E+02 -0.13141374644E+03 -0.30384634315E+03  0.35020671586E+03  0.81595723992E+02 0.  0.
         11    1    4    4    0    0  0.57624038716E+02 -0.13476263181E+03 -0.28617546213E+03  0.32152432551E+03  0.00000000000E+00 0. -1.
        -12    1    4    4    0    0  0.22342883593E+02  0.33488853624E+01 -0.17670881015E+02  0.28682390352E+02  0.00000000000E+00 0.  1.
        -11    1    3    3    0    0 -0.78689598628E+02  0.79915789951E+01  0.15334413626E+02  0.80567130447E+02  0.00000000000E+00 0. -1.
         11    1    3    3    0    0 -0.38377348612E+02  0.92392703669E+02 -0.20013511220E+01  0.10006616803E+03  0.00000000000E+00 0.  1.
         21    1    1    2  502  501  0.37100024931E+02  0.31029463779E+02 -0.63931677585E+02  0.80165446865E+02  0.00000000000E+00 0. -1.
<scales pt_clust_5="13000.00000" pt_clust_6="13000.00000" pt_clust_7="13000.00000" pt_clust_8="13000.00000" pt_clust_9="48.36568"></scales>
<clustering>
<clus scale="   48.366">  2  9  1 -1</clus>
<clus scale="   81.596">  5  6 -1 -1</clus>
<clus scale="   93.107">  7  8 -1 -1</clus>
<clus scale="  173.310">  2  5  1 -1</clus>
<clus scale="   48.366">  2  5  1 -1</clus>
</clustering>
</event>
<event>
 9    1  0.2951046E-005  0.1065716E+03  0.7546771E-02  0.1280896E+00
         -2   -1    0    0    0  501 -0.00000000000E+00  0.00000000000E+00  0.40900576435E+02  0.40900576435E+02  0.00000000000E+00 0.  1.
          1   -1    0    0  502    0  0.00000000000E+00 -0.00000000000E+00 -0.46549049683E+03  0.46549049683E+03  0.00000000000E+00 0. -1.
        -24    2    1    2    0    0  0.15352761695E+02  0.18836910019E+02 -0.28054851011E+02  0.87471277601E+02  0.79206144138E+02 0.  0.
         23    2    1    2    0    0 -0.31543611918E+01  0.85024157787E+01 -0.31483680108E+03  0.33190918278E+03  0.10468645201E+03 0.  0.
         11    1    3    3    0    0  0.41582642746E+02 -0.48217073373E+00 -0.34774368163E+02  0.54208904688E+02  0.00000000000E+00 0. -1.
        -12    1    3    3    0    0 -0.26229881051E+02  0.19319080752E+02  0.67195171523E+01  0.33262372913E+02  0.00000000000E+00 0.  1.
        -11    1    4    4    0    0 -0.41892657460E+02  0.36770598596E+02 -0.19567895943E+03  0.20346333044E+03  0.00000000000E+00 0.  1.
         11    1    4    4    0    0  0.38738296268E+02 -0.28268182818E+02 -0.11915784164E+03  0.12844585234E+03  0.00000000000E+00 0. -1.
         21    1    1    2  502  501 -0.12198400504E+02 -0.27339325797E+02 -0.81698268312E+02  0.87010612887E+02  0.00000000000E+00 0. -1.
<scales pt_clust_5="13000.00000" pt_clust_6="13000.00000" pt_clust_7="13000.00000" pt_clust_8="13000.00000" pt_clust_9="29.93726"></scales>
<clustering>
<clus scale="   29.937">  2  9  1 -1</clus>
<clus scale="   79.206">  5  6 -1 -1</clus>
<clus scale="   81.682">  1  5  2 -1</clus>
<clus scale="  104.686">  7  8 -1 -1</clus>
<clus scale="   29.937">  2  5  1 -1</clus>
</clustering>
</event>
<event>
 9    1  0.2951046E-005  0.9199459E+02  0.7546771E-02  0.1303331E+00
         -2   -1    0    0    0  501 -0.00000000000E+00  0.00000000000E+00  0.79443996530E+02  0.79443996530E+02  0.00000000000E+00 0.  1.
          1   -1    0    0  502    0  0.00000000000E+00 -0.00000000000E+00 -0.15072708066E+03  0.15072708066E+03  0.00000000000E+00 0. -1.
         23    2    1    2    0    0  0.35909676173E+02  0.21430752505E+02 -0.11677664788E+02  0.99605617786E+02  0.89644460197E+02 0.  0.
        -24    2    1    2    0    0 -0.65488458545E+01 -0.83178318917E+01 -0.54134570323E+02  0.97947408681E+02  0.80938677120E+02 0.  0.
         11    1    4    4    0    0  0.81726970431E+01  0.26543310334E+02 -0.53293400625E+02  0.60095980320E+02  0.00000000000E+00 0. -1.
        -12    1    4    4    0    0 -0.14721542898E+02 -0.34861142225E+02 -0.84116969837E+00  0.37851428362E+02  0.00000000000E+00 0.  1.
        -11    1    3    3    0    0  0.33934731530E+02  0.54326121645E+02  0.16073059832E+01  0.64073995735E+02  0.00000000000E+00 0. -1.
         11    1    3    3    0    0  0.19749446427E+01 -0.32895369140E+02 -0.13284970771E+02  0.35531622051E+02  0.00000000000E+00 0.  1.
         21    1    1    2  502  501 -0.29360830318E+02 -0.13112920613E+02 -0.54708490189E+01  0.32618050723E+02  0.00000000000E+00 0.  1.
<scales pt_clust_5="13000.00000" pt_clust_6="13000.00000" pt_clust_7="13000.00000" pt_clust_8="13000.00000" pt_clust_9="32.15598"></scales>
<clustering>
<clus scale="   32.156">  1  9  2 -1</clus>
<clus scale="   80.939">  5  6 -1 -1</clus>
<clus scale="   83.534">  2  5  1 -1</clus>
<clus scale="   89.644">  7  8 -1 -1</clus>
<clus scale="   83.534">  2  5  1 -1</clus>
</clustering>
</event>
<event>
 9    1  0.2951046E-005  0.1160821E+03  0.7546771E-02  0.1256332E+00
         -2   -1    0    0    0  501 -0.00000000000E+00  0.00000000000E+00  0.20594971198E+03  0.20594971198E+03  0.00000000000E+00 0.  1.
          1   -1    0    0  502    0  0.00000000000E+00 -0.00000000000E+00 -0.28846558208E+03  0.28846558208E+03  0.00000000000E+00 0. -1.
        -24    2    1    2    0    0  0.62133336517E+02  0.23913970967E+01  0.13139002982E+03  0.16618258333E+03  0.80542167705E+02 0.  0.
         23    2    1    2    0    0  0.44905832381E+02 -0.38747691573E+02 -0.18003475041E+03  0.21022246288E+03  0.90901348514E+02 0.  0.
         13    1    3    3    0    0  0.64959478652E+02  0.27800044131E+02  0.11744394092E+03  0.13706077330E+03  0.00000000000E+00 0. -1.
        -14    1    3    3    0    0 -0.28261421349E+01 -0.25408647034E+02  0.13946088904E+02  0.29121810026E+02  0.00000000000E+00 0.  1.
        -13    1    4    4    0    0 -0.18040945965E+02 -0.40458831191E+02 -0.58912819051E+02  0.73709653378E+02  0.00000000000E+00 0.  1.
         13    1    4    4    0    0  0.62946778346E+02  0.17111396175E+01 -0.12112193136E+03  0.13651280950E+03  0.00000000000E+00 0. -1.
         21    1    1    2  502  501 -0.10703916890E+03  0.36356294476E+02 -0.33871149510E+02  0.11801024784E+03  0.00000000000E+00 0.  1.
<scales pt_clust_5="13000.00000" pt_clust_6="13000.00000" pt_clust_7="13000.00000" pt_clust_8="13000.00000" pt_clust_9="72.19424"></scales>
<clustering>
<clus scale="   80.542">  5  6 -1 -1</clus>
<clus scale="   90.901">  7  8 -1 -1</clus>
<clus scale="  101.751">  1  5  2 -1</clus>
<clus scale="   72.194">  1  9  2 -1</clus>
<clus scale="  116.082">  2  5  1 -1</clus>
</clustering>
</event>
<event>
 9    1  0.2951046E-005  0.9681721E+02  0.7546771E-02  0.1293607E+00
          1   -1    0    0  502    0  0.00000000000E+00  0.00000000000E+00  0.30024222583E+02  0.30024222583E+02  0.00000000000E+00 0. -1.
         -2   -1    0    0    0  501 -0.00000000000E+00 -0.00000000000E+00 -0.46893113882E+03  0.46893113882E+03  0.00000000000E+00 0.  1.
        -24    2    1    2    0    0 -0.13125676358E+02 -0.22709040485E+02 -0.14921460515E+03  0.17151298501E+03  0.80397274424E+02 0.  0.
         23    2    1    2    0    0 -0.61238922113E+01  0.35706880347E+02 -0.11719404080E+03  0.15338737652E+03  0.92091045801E+02 0.  0.
         13    1    3    3    0    0 -0.33681913249E+02 -0.35107926045E+02 -0.51312968522E+02  0.70711091703E+02  0.00000000000E+00 0. -1.
        -14    1    3    3    0    0  0.20556236891E+02  0.12398885560E+02 -0.97901636633E+02  0.10080189330E+03  0.00000000000E+00 0.  1.
        -11    1    4    4    0    0 -0.92447469009E+01 -0.25426434553E+02 -0.73101780551E+02  0.77947669876E+02  0.00000000000E+00 0.  1.
         11    1    4    4    0    0  0.31208546895E+01  0.61133314900E+02 -0.44092260247E+02  0.75439706643E+02  0.00000000000E+00 0. -1.
         21    1    1    2  502  501  0.19249568569E+02 -0.12997839861E+02 -0.17249827028E+03  0.17405499987E+03  0.00000000000E+00 0.  1.
<scales pt_clust_5="13000.00000" pt_clust_6="13000.00000" pt_clust_7="13000.00000" pt_clust_8="13000.00000" pt_clust_9="23.22692"></scales>
<clustering>
<clus scale="   23.227">  2  9  1 -1</clus>
<clus scale="   80.397">  5  6 -1 -1</clus>
<clus scale="   85.770">  2  5  1 -1</clus>
<clus scale="   92.091">  7  8 -1 -1</clus>
<clus scale="   96.817">  1  5  2 -1</clus>
</clustering>
</event>
<event>
 9    1  0.2951046E-005  0.1266826E+03  0.7546771E-02  0.1247272E+00
          1   -1    0    0  502    0  0.00000000000E+00  0.00000000000E+00  0.10291684315E+04  0.10291684315E+04  0.00000000000E+00 0. -1.
         -2   -1    0    0    0  501 -0.00000000000E+00 -0.00000000000E+00 -0.29060132909E+02  0.29060132909E+02  0.00000000000E+00 0.  1.
         23    2    1    2    0    0  0.74242563395E+01 -0.14305640289E+02  0.13607233836E+03  0.16525302838E+03  0.92374840717E+02 0.  0.
        -24    2    1    2    0    0  0.61728139119E+02 -0.64897145175E+02  0.43981647547E+03  0.45592026918E+03  0.80017230309E+02 0.  0.
         13    1    4    4    0    0  0.60719905954E+02 -0.27867236108E+02  0.37796525929E+03  0.38382447428E+03  0.00000000000E+00 0. -1.
        -14    1    4    4    0    0  0.10082331648E+01 -0.37029909067E+02  0.61851216184E+02  0.72095794906E+02  0.00000000000E+00 0.  1.
        -11    1    3    3    0    0  0.76108791887E+01 -0.41536339359E+02  0.21302461329E+02  0.47296805686E+02  0.00000000000E+00 0.  1.
         11    1    3    3    0    0 -0.18662284923E+00  0.27230699071E+02  0.11476987703E+03  0.11795622270E+03  0.00000000000E+00 0. -1.
         21    1    1    2  502  501 -0.69152395459E+02  0.79202785464E+02  0.42421948480E+03  0.43705526688E+03  0.00000000000E+00 0. -1.
<scales pt_clust_5="13000.00000" pt_clust_6="13000.00000" pt_clust_7="13000.00000" pt_clust_8="13000.00000" pt_clust_9="98.21259"></scales>
<clustering>
<clus scale="   80.017">  5  6 -1 -1</clus>
<clus scale="   92.375">  7  8 -1 -1</clus>
<clus scale="   93.770">  2  7  1 -1</clus>
<clus scale="   98.213">  2  9  1 -1</clus>
<clus scale="  126.683">  1  5  2 -1</clus>
</clustering>
</event>
<event>
 9    1  0.2951046E-005  0.1230377E+03  0.7546771E-02  0.1241475E+00
         -2   -1    0    0    0  501 -0.00000000000E+00  0.00000000000E+00  0.44784248372E+02  0.44784248372E+02  0.00000000000E+00 0.  1.
          1   -1    0    0  502    0  0.00000000000E+00 -0.00000000000E+00 -0.49326848876E+03  0.49326848876E+03  0.00000000000E+00 0. -1.
        -24    2    1    2    0    0 -0.17534225833E+01 -0.90384352119E+02 -0.10156165522E+03  0.15794231372E+03  0.80365409565E+02 0.  0.
         23    2    1    2    0    0 -0.23668182371E+02  0.66825025007E+02 -0.22038334988E+03  0.24891027875E+03  0.91442545553E+02 0.  0.
         11    1    3    3    0    0  0.96718519275E+01 -0.31341365265E+02 -0.91198794259E+02  0.96917727845E+02  0.00000000000E+00 0. -1.
        -12    1    3    3    0    0 -0.11425274511E+02 -0.59042986854E+02 -0.10362860961E+02  0.61024585878E+02  0.00000000000E+00 0.  1.
        -13    1    4    4    0    0  0.31034166674E+02  0.25819412650E+01 -0.65832429692E+02  0.72826469920E+02  0.00000000000E+00 0.  1.
         13    1    4    4    0    0 -0.54702349045E+02  0.64243083742E+02 -0.15455092019E+03  0.17608380883E+03  0.00000000000E+00 0. -1.
         21    1    1    2  502  501  0.25421604954E+02  0.23559327112E+02 -0.12653923529E+03  0.13120014466E+03  0.00000000000E+00 0. -1.
<scales pt_clust_5="13000.00000" pt_clust_6="13000.00000" pt_clust_7="13000.00000" pt_clust_8="13000.00000" pt_clust_9="34.65977"></scales>
<clustering>
<clus scale="   34.660">  2  9  1 -1</clus>
<clus scale="   80.365">  5  6 -1 -1</clus>
<clus scale="   91.443">  7  8 -1 -1</clus>
<clus scale="  115.044">  1  5  2 -1</clus>
<clus scale="   34.660">  2  5  1 -1</clus>
</clustering>
</event>
<event>
 9    1  0.2951046E-005  0.1387810E+03  0.7546771E-02  0.1216882E+00
         -2   -1    0    0    0  501 -0.00000000000E+00  0.00000000000E+00  0.16497292876E+03  0.16497292876E+03  0.00000000000E+00 0.  1.
          1   -1    0    0  502    0  0.00000000000E+00 -0.00000000000E+00 -0.16013754341E+03  0.16013754341E+03  0.00000000000E+00 0. -1.
         23    2    1    2    0    0 -0.70303264781E+02 -0.70496418548E+02  0.45298663891E+02  0.14194934297E+03  0.90472940442E+02 0.  0.
        -24    2    1    2    0    0  0.98327330164E+02  0.61664080521E+02 -0.12431910492E+02  0.14255181954E+03  0.81827539204E+02 0.  0.
         13    1    4    4    0    0  0.79870540344E+02  0.32101742507E+01 -0.14399805552E+02  0.81221689427E+02  0.00000000000E+00 0. -1.
        -14    1    4    4    0    0  0.18456789821E+02  0.58453906271E+02  0.19678950601E+01  0.61330130114E+02  0.00000000000E+00 0.  1.
        -11    1    3    3    0    0 -0.18481173501E+02 -0.78293003093E+02  0.38239263587E+02  0.89070698813E+02  0.00000000000E+00 0. -1.
         11    1    3    3    0    0 -0.51822091280E+02  0.77965845457E+01  0.70594003041E+01  0.52878644157E+02  0.00000000000E+00 0.  1.
         21    1    1    2  502  501 -0.28024065383E+02  0.88323380263E+01 -0.28031368051E+02  0.40609309652E+02  0.00000000000E+00 0. -1.
<scales pt_clust_5="13000.00000" pt_clust_6="13000.00000" pt_clust_7="13000.00000" pt_clust_8="13000.00000" pt_clust_9="29.38296"></scales>
<clustering>
<clus scale="   29.383">  2  9  1 -1</clus>
<clus scale="   81.828">  5  6 -1 -1</clus>
<clus scale="   90.473">  7  8 -1 -1</clus>
<clus scale="  133.306">  2  5  1 -1</clus>
<clus scale="   29.383">  2  5  1 -1</clus>
</clustering>
</event>
<event>
 9    1  0.2951046E-005  0.9805910E+02  0.7546771E-02  0.1292387E+00
          1   -1    0    0  502    0  0.00000000000E+00  0.00000000000E+00  0.74319238908E+03  0.74319238908E+03  0.00000000000E+00 0. -1.
         -2   -1    0    0    0  501 -0.00000000000E+00 -0.00000000000E+00 -0.52735132814E+02  0.52735132814E+02  0.00000000000E+00 0.  1.
         23    2    1    2    0    0 -0.82017422626E+01 -0.26943061040E+01  0.23741124843E+02  0.10103262052E+03  0.97823420200E+02 0.  0.
        -24    2    1    2    0    0 -0.71400408720E+02 -0.25513191964E+02  0.26959491533E+03  0.28889314564E+03  0.70914666282E+02 0.  0.
         11    1    4    4    0    0 -0.56736669147E+02 -0.68728628805E+01  0.25436719515E+03  0.26070856495E+03  0.00000000000E+00 0. -1.
        -12    1    4    4    0    0 -0.14663739573E+02 -0.18640329083E+02  0.15227720184E+02  0.28184580689E+02  0.00000000000E+00 0.  1.
        -13    1    3    3    0    0 -0.36600914721E+01  0.40373218235E+02 -0.14704414143E+02  0.43123228259E+02  0.00000000000E+00 0.  1.
         13    1    3    3    0    0 -0.45416507904E+01 -0.43067524339E+02  0.38445538986E+02  0.57909392265E+02  0.00000000000E+00 0. -1.
         21    1    1    2  502  501  0.79602150982E+02  0.28207498068E+02  0.39712121609E+03  0.40600175573E+03  0.00000000000E+00 0.  1.
<scales pt_clust_5="13000.00000" pt_clust_6="13000.00000" pt_clust_7="13000.00000" pt_clust_8="13000.00000" pt_clust_9="84.45215"></scales>
<clustering>
<clus scale="   70.915">  5  6 -1 -1</clus>
<clus scale="   84.452">  1  9  2 -1</clus>
<clus scale="   84.452">  1  5  2 -1</clus>
<clus scale="   97.823">  7  8 -1 -1</clus>
<clus scale="   84.452">  1  5  2 -1</clus>
</clustering>
</event>
<event>
 9    1  0.2951046E-005  0.1122259E+03  0.7546771E-02  0.1260184E+00
          1   -1    0    0  502    0  0.00000000000E+00  0.00000000000E+00  0.50027248447E+03  0.50027248447E+03  0.00000000000E+00 0. -1.
         -2   -1    0    0    0  501 -0.00000000000E+00 -0.00000000000E+00 -0.82302117667E+02  0.82302117667E+02  0.00000000000E+00 0.  1.
         23    2    1    2    0    0  0.68851709081E+02 -0.32939801748E+02  0.30568606677E+02  0.12183008691E+03  0.89902958676E+02 0.  0.
        -24    2    1    2    0    0  0.83273921041E+01  0.89186762687E+02  0.94776451785E+02  0.15292978953E+03  0.79883168541E+02 0.  0.
         11    1    4    4    0    0 -0.10728469533E+02  0.91989841054E+02  0.96301708675E+02  0.13360857012E+03  0.00000000000E+00 0. -1.
        -12    1    4    4    0    0  0.19055861637E+02 -0.28030783673E+01 -0.15252568903E+01  0.19321219414E+02  0.00000000000E+00 0.  1.
        -11    1    3    3    0    0  0.45445994568E+02 -0.61151028093E+02  0.36860723843E+02  0.84637459918E+02  0.00000000000E+00 0.  1.
         11    1    3    3    0    0  0.23405714513E+02  0.28211226346E+02 -0.62921171658E+01  0.37192626988E+02  0.00000000000E+00 0. -1.
         21    1    1    2  502  501 -0.77179101185E+02 -0.56246960939E+02  0.29262530835E+03  0.30781472570E+03  0.00000000000E+00 0. -1.
<scales pt_clust_5="13000.00000" pt_clust_6="13000.00000" pt_clust_7="13000.00000" pt_clust_8="13000.00000" pt_clust_9="95.50044"></scales>
<clustering>
<clus scale="   79.883">  5  6 -1 -1</clus>
<clus scale="   89.903">  7  8 -1 -1</clus>
<clus scale="   95.500">  1  9  2 -1</clus>
<clus scale="  104.372">  1  5  2 -1</clus>
<clus scale="   95.500">  1  5  2 -1</clus>
</clustering>
</event>
<event>
 9    1  0.2951046E-005  0.1036305E+03  0.7546771E-02  0.1277411E+00
          3   -1    0    0  502    0  0.00000000000E+00  0.00000000000E+00  0.68676916926E+03  0.68676916926E+03  0.00000000000E+00 0. -1.
         -4   -1    0    0    0  501 -0.00000000000E+00 -0.00000000000E+00 -0.46874003069E+02  0.46874003069E+02  0.00000000000E+00 0.  1.
         23    2    1    2    0    0 -0.34692288575E+02 -0.33522388638E+02  0.28798703740E+02  0.10814739753E+03  0.92407731439E+02 0.  0.
        -24    2    1    2    0    0  0.48003543716E+02  0.16474303093E+01  0.50396769840E+03  0.51293568165E+03  0.82537980607E+02 0.  0.
         11    1    4    4    0    0  0.52851151301E+02  0.31265259412E+02  0.26126095818E+03  0.26838041827E+03  0.00000000000E+00 0. -1.
        -12    1    4    4    0    0 -0.48476075844E+01 -0.29617829102E+02  0.24270674022E+03  0.24455526338E+03  0.00000000000E+00 0.  1.
        -13    1    3    3    0    0 -0.14354706068E+01 -0.28212091744E+02  0.57392608892E+02  0.63967915800E+02  0.00000000000E+00 0. -1.
         13    1    3    3    0    0 -0.33256817968E+02 -0.53102968946E+01 -0.28593905151E+02  0.44179481734E+02  0.00000000000E+00 0.  1.
         21    1    1    2  502  501 -0.13311255142E+02  0.31874958329E+02  0.10712876405E+03  0.11256009314E+03  0.00000000000E+00 0.  1.
<scales pt_clust_5="13000.00000" pt_clust_6="13000.00000" pt_clust_7="13000.00000" pt_clust_8="13000.00000" pt_clust_9="34.54276"></scales>
<clustering>
<clus scale="   34.543">  1  9  2 -1</clus>
<clus scale="   82.538">  5  6 -1 -1</clus>
<clus scale="   92.408">  7  8 -1 -1</clus>
<clus scale="   94.935">  1  5  2 -1</clus>
<clus scale="   34.543">  1  5  2 -1</clus>
</clustering>
</event>
<event>
 9    1  0.2951046E-005  0.1892831E+03  0.7546771E-02  0.1160321E+00
          1   -1    0    0  502    0  0.00000000000E+00  0.00000000000E+00  0.47212173571E+03  0.47212173571E+03  0.00000000000E+00 0. -1.
         -2   -1    0    0    0  501 -0.00000000000E+00 -0.00000000000E+00 -0.10054024918E+03  0.10054024918E+03  0.00000000000E+00 0.  1.
        -24    2    1    2    0    0  0.15956017201E+03  0.63327067763E+02  0.58416357303E+02  0.19809330435E+03  0.79741585291E+02 0.  0.
         23    2    1    2    0    0 -0.14725776345E+03 -0.43781710795E+02  0.24979072142E+03  0.30711732175E+03  0.91235726105E+02 0.  0.
         13    1    3    3    0    0  0.10900343803E+03  0.66804482612E+01  0.54535899120E+02  0.12206777701E+03  0.00000000000E+00 0. -1.
        -14    1    3    3    0    0  0.50556733981E+02  0.56646619502E+02  0.38804581828E+01  0.76025527342E+02  0.00000000000E+00 0.  1.
        -13    1    4    4    0    0 -0.15320848501E+03 -0.20589624336E+02  0.22040615966E+03  0.26921301552E+03  0.00000000000E+00 0. -1.
         13    1    4    4    0    0  0.59507215577E+01 -0.23192086459E+02  0.29384561758E+02  0.37904306234E+02  0.00000000000E+00 0.  1.
         21    1    1    2  502  501 -0.12302408562E+02 -0.19545356968E+02  0.63374407813E+02  0.67451358779E+02  0.00000000000E+00 0. -1.
<scales pt_clust_5="13000.00000" pt_clust_6="13000.00000" pt_clust_7="13000.00000" pt_clust_8="13000.00000" pt_clust_9="23.09481"></scales>
<clustering>
<clus scale="   23.095">  1  9  2 -1</clus>
<clus scale="   79.742">  5  6 -1 -1</clus>
<clus scale="   91.236">  7  8 -1 -1</clus>
<clus scale="  184.019">  2  5  1 -1</clus>
<clus scale="   23.095">  1  5  2 -1</clus>
</clustering>
</event>
<event>
 9    1  0.2951046E-005  0.3538639E+03  0.7546771E-02  0.1098617E+00
         -2   -1    0    0    0  501 -0.00000000000E+00  0.00000000000E+00  0.26483217302E+03  0.26483217302E+03  0.00000000000E+00 0.  1.
          1   -1    0    0  502    0  0.00000000000E+00 -0.00000000000E+00 -0.12432584058E+04  0.12432584058E+04  0.00000000000E+00 0. -1.
        -24    2    1    2    0    0 -0.20723714997E+02  0.98939223276E+02  0.55910173976E+02  0.14015081848E+03  0.79359070692E+02 0.  0.
         23    2    1    2    0    0  0.16425988380E+03 -0.38885214042E+03 -0.20631789718E+03  0.47897025384E+03  0.93049088298E+02 0.  0.
         13    1    3    3    0    0  0.26812629094E+02  0.14509576657E+02  0.21600950631E+02  0.37363698450E+02  0.00000000000E+00 0. -1.
        -14    1    3    3    0    0 -0.47536344091E+02  0.84429646618E+02  0.34309223345E+02  0.10278712003E+03  0.00000000000E+00 0.  1.
        -13    1    4    4    0    0  0.37740445043E+02 -0.20165989320E+03 -0.80724275425E+02  0.22047100118E+03  0.00000000000E+00 0.  1.
         13    1    4    4    0    0  0.12651943875E+03 -0.18719224722E+03 -0.12559362176E+03  0.25849925267E+03  0.00000000000E+00 0. -1.
         21    1    1    2  502  501 -0.14353616880E+03  0.28991291715E+03 -0.82801850956E+03  0.88896950648E+03  0.00000000000E+00 0.  1.
<scales pt_clust_5="13000.00000" pt_clust_6="13000.00000" pt_clust_7="13000.00000" pt_clust_8="13000.00000" pt_clust_9="341.41107"></scales>
<clustering>
<clus scale="   79.359">  5  6 -1 -1</clus>
<clus scale="   93.049">  7  8 -1 -1</clus>
<clus scale="  128.516">  1  5  2 -1</clus>
<clus scale="  341.411">  2  9  1 -1</clus>
<clus scale="  341.411">  2  5  1 -1</clus>
</clustering>
</event>
<event>
 9    1  0.2951046E-005  0.2156946E+03  0.7546771E-02  0.1138017E+00
          3   -1    0    0  502    0  0.00000000000E+00  0.00000000000E+00  0.42730296735E+03  0.42730296735E+03  0.00000000000E+00 0. -1.
         -4   -1    0    0    0  501 -0.00000000000E+00 -0.00000000000E+00 -0.16995930760E+03  0.16995930760E+03  0.00000000000E+00 0.  1.
        -24    2    1    2    0    0 -0.18566205301E+03 -0.83209981589E+02  0.38162236675E+02  0.22119668007E+03  0.77957142069E+02 0.  0.
         23    2    1    2    0    0  0.17843139757E+03  0.61586212220E+02  0.63002425082E+02  0.21823103215E+03  0.89581541906E+02 0.  0.
         13    1    3    3    0    0 -0.10213560447E+03 -0.60943295520E+02  0.58273489594E+02  0.13244457919E+03  0.00000000000E+00 0. -1.
        -14    1    3    3    0    0 -0.83526448547E+02 -0.22266686069E+02 -0.20111252918E+02  0.88752100873E+02  0.00000000000E+00 0.  1.
        -13    1    4    4    0    0  0.83624547004E+02  0.37911766540E+02 -0.15208501882E+02  0.93068068817E+02  0.00000000000E+00 0. -1.
         13    1    4    4    0    0  0.94806850570E+02  0.23674445680E+02  0.78210926964E+02  0.12516296333E+03  0.00000000000E+00 0.  1.
         21    1    1    2  502  501  0.72306554384E+01  0.21623769369E+02  0.15617899799E+03  0.15783456273E+03  0.00000000000E+00 0. -1.
<scales pt_clust_5="13000.00000" pt_clust_6="13000.00000" pt_clust_7="13000.00000" pt_clust_8="13000.00000" pt_clust_9="22.80065"></scales>
<clustering>
<clus scale="   22.801">  1  9  2 -1</clus>
<clus scale="   77.957">  5  6 -1 -1</clus>
<clus scale="   89.582">  7  8 -1 -1</clus>
<clus scale="  211.132">  2  5  1 -1</clus>
<clus scale="   22.801">  1  5  2 -1</clus>
</clustering>
</event>
<event>
 9    1  0.2951046E-005  0.1072954E+03  0.7546771E-02  0.1269125E+00
         -4   -1    0    0    0  501 -0.00000000000E+00  0.00000000000E+00  0.16790179585E+03  0.16790179585E+03  0.00000000000E+00 0.  1.
          3   -1    0    0  502    0  0.00000000000E+00 -0.00000000000E+00 -0.30034473637E+03  0.30034473637E+03  0.00000000000E+00 0. -1.
         23    2    1    2    0    0  0.37143960673E+02  0.50069140582E+02  0.11641313933E+03  0.16077905717E+03  0.91713104640E+02 0.  0.
        -24    2    1    2    0    0  0.16188857444E+01  0.10547461438E+02 -0.20882238231E+03  0.22512898076E+03  0.83441002452E+02 0.  0.
         11    1    4    4    0    0 -0.19030830957E+02  0.42220052910E+02 -0.11486201435E+03  0.12384662989E+03  0.00000000000E+00 0. -1.
        -12    1    4    4    0    0  0.20649716702E+02 -0.31672591471E+02 -0.93960367957E+02  0.10128235087E+03  0.00000000000E+00 0.  1.
        -13    1    3    3    0    0  0.15831212808E+02  0.45460020553E+02  0.12752327656E+03  0.13630637121E+03  0.00000000000E+00 0.  1.
         13    1    3    3    0    0  0.21312747865E+02  0.46091200285E+01 -0.11110137228E+02  0.24472685962E+02  0.00000000000E+00 0. -1.
         21    1    1    2  502  501 -0.38762846418E+02 -0.60616602020E+02 -0.40033697536E+02  0.82338494286E+02  0.00000000000E+00 0. -1.
<scales pt_clust_5="13000.00000" pt_clust_6="13000.00000" pt_clust_7="13000.00000" pt_clust_8="13000.00000" pt_clust_9="71.95089"></scales>
<clustering>
<clus scale="   71.951">  2  9  1 -1</clus>
<clus scale="   83.441">  5  6 -1 -1</clus>
<clus scale="   91.713">  7  8 -1 -1</clus>
<clus scale="  100.317">  2  5  1 -1</clus>
<clus scale="   71.951">  2  5  1 -1</clus>
</clustering>
</event>
<event>
 9    1  0.2951046E-005  0.1002692E+03  0.7546771E-02  0.1282486E+00
          1   -1    0    0  502    0  0.00000000000E+00  0.00000000000E+00  0.15205887815E+03  0.15205887815E+03  0.00000000000E+00 0. -1.
         -2   -1    0    0    0  501 -0.00000000000E+00 -0.00000000000E+00 -0.32531959814E+03  0.32531959814E+03  0.00000000000E+00 0.  1.
        -24    2    1    2    0    0  0.52783164071E+02  0.18653096053E+02 -0.23774090131E+03  0.25880215756E+03  0.85579321082E+02 0.  0.
         23    2    1    2    0    0  0.78485774960E+00 -0.50413387763E+01 -0.40491561898E+02  0.99942934848E+02  0.91230436493E+02 0.  0.
         13    1    3    3    0    0  0.54226761247E+02 -0.46416858059E+01 -0.66289075799E+02  0.85769041342E+02  0.00000000000E+00 0. -1.
        -14    1    3    3    0    0 -0.14435971753E+01  0.23294781858E+02 -0.17145182551E+03  0.17303311621E+03  0.00000000000E+00 0.  1.
        -13    1    4    4    0    0 -0.36007423539E+02  0.23852048605E+02 -0.10752968304E+02  0.44509337222E+02  0.00000000000E+00 0. -1.
         13    1    4    4    0    0  0.36792281289E+02 -0.28893387381E+02 -0.29738593594E+02  0.55433597626E+02  0.00000000000E+00 0.  1.
         21    1    1    2  502  501 -0.53568021821E+02 -0.13611757276E+02  0.10497174322E+03  0.11863338389E+03  0.00000000000E+00 0. -1.
<scales pt_clust_5="13000.00000" pt_clust_6="13000.00000" pt_clust_7="13000.00000" pt_clust_8="13000.00000" pt_clust_9="55.27036"></scales>
<clustering>
<clus scale="   55.270">  1  9  2 -1</clus>
<clus scale="   85.579">  5  6 -1 -1</clus>
<clus scale="   91.230">  7  8 -1 -1</clus>
<clus scale="   95.156">  2  5  1 -1</clus>
<clus scale="   55.270">  1  5  2 -1</clus>
</clustering>
</event>
<event>
 9    1  0.2951046E-005  0.2285585E+03  0.7546771E-02  0.1128537E+00
          1   -1    0    0  502    0  0.00000000000E+00  0.00000000000E+00  0.90361956829E+03  0.90361956829E+03  0.00000000000E+00 0. -1.
         -2   -1    0    0    0  501 -0.00000000000E+00 -0.00000000000E+00 -0.13136550063E+03  0.13136550063E+03  0.00000000000E+00 0.  1.
        -24    2    1    2    0    0  0.74258994894E+02 -0.20909738068E+03  0.25726066467E+02  0.23683286257E+03  0.78688381385E+02 0.  0.
         23    2    1    2    0    0 -0.11197398496E+02  0.17249900642E+03  0.41659783867E+03  0.46026151682E+03  0.91682145083E+02 0.  0.
         13    1    3    3    0    0  0.78168183786E+01 -0.50414728291E+02  0.39107816608E+02  0.64281947685E+02  0.00000000000E+00 0. -1.
        -14    1    3    3    0    0  0.66442176515E+02 -0.15868265239E+03 -0.13381750142E+02  0.17255091488E+03  0.00000000000E+00 0.  1.
        -13    1    4    4    0    0 -0.23113385267E+02  0.10237283980E+02  0.22277253568E+02  0.33694310919E+02  0.00000000000E+00 0.  1.
         13    1    4    4    0    0  0.11915986772E+02  0.16226172244E+03  0.39432058510E+03  0.42656720590E+03  0.00000000000E+00 0. -1.
         21    1    1    2  502  501 -0.63061596398E+02  0.36598374256E+02  0.32993016252E+03  0.33789068954E+03  0.00000000000E+00 0. -1.
<scales pt_clust_5="13000.00000" pt_clust_6="13000.00000" pt_clust_7="13000.00000" pt_clust_8="13000.00000" pt_clust_9="72.91232"></scales>
<clustering>
<clus scale="   72.912">  1  9  2 -1</clus>
<clus scale="   78.688">  5  6 -1 -1</clus>
<clus scale="   91.682">  7  8 -1 -1</clus>
<clus scale="  223.663">  2  5  1 -1</clus>
<clus scale="   72.912">  1  5  2 -1</clus>
</clustering>
</event>
<event>
 9    1  0.2951046E-005  0.9293551E+02  0.7546771E-02  0.1303017E+00
          1   -1    0    0  502    0  0.00000000000E+00  0.00000000000E+00  0.12361982016E+03  0.12361982016E+03  0.00000000000E+00 0. -1.
         -2   -1    0    0    0  501 -0.00000000000E+00 -0.00000000000E+00 -0.15135746873E+03  0.15135746873E+03  0.00000000000E+00 0.  1.
         23    2    1    2    0    0  0.22606963413E+01  0.18164621621E+02 -0.10696330968E+03  0.14185590000E+03  0.91361274736E+02 0.  0.
        -24    2    1    2    0    0  0.18482060166E+02 -0.10876616538E+02  0.73232916305E+02  0.11033345445E+03  0.79690173824E+02 0.  0.
         11    1    4    4    0    0  0.28987996541E+02  0.28115448459E+01 -0.55799884140E+01  0.29653751847E+02  0.00000000000E+00 0. -1.
        -12    1    4    4    0    0 -0.10505936375E+02 -0.13688161384E+02  0.78812904719E+02  0.80679702599E+02  0.00000000000E+00 0.  1.
        -11    1    3    3    0    0  0.40066230587E+02 -0.10780641714E+02 -0.70814381712E+02  0.82074367049E+02  0.00000000000E+00 0. -1.
         11    1    3    3    0    0 -0.37805534245E+02  0.28945263335E+02 -0.36148927966E+02  0.59781532952E+02  0.00000000000E+00 0.  1.
         21    1    1    2  502  501 -0.20742756508E+02 -0.72880050830E+01  0.59927448004E+01  0.22787934436E+02  0.00000000000E+00 0.  1.
<scales pt_clust_5="13000.00000" pt_clust_6="13000.00000" pt_clust_7="13000.00000" pt_clust_8="13000.00000" pt_clust_9="21.98584"></scales>
<clustering>
<clus scale="   21.986">  1  9  2 -1</clus>
<clus scale="   79.690">  5  6 -1 -1</clus>
<clus scale="   81.490">  1  5  2 -1</clus>
<clus scale="   91.361">  7  8 -1 -1</clus>
<clus scale="   21.986">  1  5  2 -1</clus>
</clustering>
</event>
<event>
 9    1  0.2951046E-005  0.9917395E+02  0.7546771E-02  0.1286523E+00
          1   -1    0    0  502    0  0.00000000000E+00  0.00000000000E+00  0.97225717561E+02  0.97225717561E+02  0.00000000000E+00 0. -1.
         -2   -1    0    0    0  501 -0.00000000000E+00 -0.00000000000E+00 -0.39717145020E+03  0.39717145020E+03  0.00000000000E+00 0.  1.
         23    2    1    2    0    0  0.39262745449E+02  0.73356195258E+01 -0.23953912524E+03  0.25981202615E+03  0.92346748278E+02 0.  0.
        -24    2    1    2    0    0 -0.14176468016E+02  0.80264260457E+02 -0.82349360337E+02  0.14085923967E+03  0.80103586072E+02 0.  0.
         13    1    4    4    0    0 -0.30573171883E+02  0.86052744488E+02 -0.49954204466E+02  0.10409234466E+03  0.00000000000E+00 0. -1.
        -14    1    4    4    0    0  0.16396703868E+02 -0.57884840314E+01 -0.32395155871E+02  0.36766895015E+02  0.00000000000E+00 0.  1.
        -11    1    3    3    0    0  0.67145705896E+02 -0.18960525312E+01 -0.19684400297E+03  0.20798966884E+03  0.00000000000E+00 0.  1.
         11    1    3    3    0    0 -0.27882960448E+02  0.92316720570E+01 -0.42695122262E+02  0.51822357311E+02  0.00000000000E+00 0. -1.
         21    1    1    2  502  501 -0.25086277433E+02 -0.87599879982E+02  0.21942752932E+02  0.93725901941E+02  0.00000000000E+00 0. -1.
<scales pt_clust_5="13000.00000" pt_clust_6="13000.00000" pt_clust_7="13000.00000" pt_clust_8="13000.00000" pt_clust_9="91.12113"></scales>
<clustering>
<clus scale="   80.104">  5  6 -1 -1</clus>
<clus scale="   91.121">  1  9  2 -1</clus>
<clus scale="   91.121">  1  5  2 -1</clus>
<clus scale="   92.347">  7  8 -1 -1</clus>
<clus scale="   91.121">  1  5  2 -1</clus>
</clustering>
</event>
<event>
 9    1  0.2951046E-005  0.9250317E+02  0.7546771E-02  0.1303850E+00
          3   -1    0    0  502    0  0.00000000000E+00  0.00000000000E+00  0.10412489610E+03  0.10412489610E+03  0.00000000000E+00 0. -1.
         -4   -1    0    0    0  501 -0.00000000000E+00 -0.00000000000E+00 -0.18558654660E+03  0.18558654660E+03  0.00000000000E+00 0.  1.
        -24    2    1    2    0    0  0.11940565657E+02  0.75949414490E+01 -0.13436652312E+03  0.15725663904E+03  0.80467557080E+02 0.  0.
         23    2    1    2    0    0 -0.95633097183E+01  0.18529489795E+02  0.33504422736E+02  0.99827902046E+02  0.91696590991E+02 0.  0.
         13    1    3    3    0    0 -0.33154649705E+02  0.81188717617E+01 -0.77453834991E+02  0.84641853894E+02  0.00000000000E+00 0. -1.
        -14    1    3    3    0    0  0.45095215362E+02 -0.52393031274E+00 -0.56912688128E+02  0.72614785144E+02  0.00000000000E+00 0.  1.
        -11    1    4    4    0    0  0.60913045272E+01  0.33987577422E+02 -0.21439000534E+02  0.40643451548E+02  0.00000000000E+00 0.  1.
         11    1    4    4    0    0 -0.15654614245E+02 -0.15458087626E+02  0.54943423270E+02  0.59184450499E+02  0.00000000000E+00 0. -1.
         21    1    1    2  502  501 -0.23772559384E+01 -0.26124431244E+02  0.19400449883E+02  0.32626901620E+02  0.00000000000E+00 0. -1.
<scales pt_clust_5="13000.00000" pt_clust_6="13000.00000" pt_clust_7="13000.00000" pt_clust_8="13000.00000" pt_clust_9="26.23237"></scales>
<clustering>
<clus scale="   26.232">  1  9  2 -1</clus>
<clus scale="   80.468">  5  6 -1 -1</clus>
<clus scale="   81.385">  2  5  1 -1</clus>
<clus scale="   91.697">  7  8 -1 -1</clus>
<clus scale="   26.232">  1  5  2 -1</clus>
</clustering>
</event>
<event>
 9    1  0.2951046E-005  0.1581335E+03  0.7546771E-02  0.1192460E+00
          1   -1    0    0  502    0  0.00000000000E+00  0.00000000000E+00  0.83869691062E+03  0.83869691062E+03  0.00000000000E+00 0. -1.
         -2   -1    0    0    0  501 -0.00000000000E+00 -0.00000000000E+00 -0.39355831057E+02  0.39355831057E+02  0.00000000000E+00 0.  1.
         23    2    1    2    0    0 -0.77445309397E+02  0.96625527647E+02  0.25072374331E+03  0.29401531181E+03  0.90820369840E+02 0.  0.
        -24    2    1    2    0    0  0.55153058876E+02 -0.12204530498E+03  0.50620375794E+03  0.52979702853E+03  0.80658108766E+02 0.  0.
         13    1    4    4    0    0  0.60340579525E+02 -0.80983805197E+02  0.44213647311E+03  0.45352400498E+03  0.00000000000E+00 0. -1.
        -14    1    4    4    0    0 -0.51875206481E+01 -0.41061499779E+02  0.64067284832E+02  0.76273023542E+02  0.00000000000E+00 0.  1.
        -13    1    3    3    0    0 -0.24604033084E+02  0.96404105358E+02  0.14544752369E+03  0.17622171297E+03  0.00000000000E+00 0.  1.
         13    1    3    3    0    0 -0.52841276314E+02  0.22142228833E+00  0.10527621961E+03  0.11779359884E+03  0.00000000000E+00 0. -1.
         21    1    1    2  502  501  0.22292250521E+02  0.25419777329E+02  0.42413578312E+02  0.54240401345E+02  0.00000000000E+00 0.  1.
<scales pt_clust_5="13000.00000" pt_clust_6="13000.00000" pt_clust_7="13000.00000" pt_clust_8="13000.00000" pt_clust_9="33.80990"></scales>
<clustering>
<clus scale="   33.810">  2  9  1 -1</clus>
<clus scale="   80.658">  5  6 -1 -1</clus>
<clus scale="   90.820">  7  8 -1 -1</clus>
<clus scale="  152.524">  1  5  2 -1</clus>
<clus scale="  152.524">  1  5  2 -1</clus>
</clustering>
</event>
<event>
 9    1  0.2951046E-005  0.1449576E+03  0.7546771E-02  0.1209007E+00
          1   -1    0    0  502    0  0.00000000000E+00  0.00000000000E+00  0.63006771711E+03  0.63006771711E+03  0.00000000000E+00 0. -1.
         -2   -1    0    0    0  501 -0.00000000000E+00 -0.00000000000E+00 -0.47924573018E+02  0.47924573018E+02  0.00000000000E+00 0.  1.
        -24    2    1    2    0    0 -0.49518701541E+02 -0.10065795874E+03  0.10878865843E+03  0.17609751648E+03  0.81186431427E+02 0.  0.
         23    2    1    2    0    0  0.30056478985E+02  0.10865164518E+03  0.42188003963E+03  0.44628635950E+03  0.92087865133E+02 0.  0.
         11    1    3    3    0    0 -0.71897788699E+02 -0.68801326490E+02  0.79838585084E+02  0.12758179421E+03  0.00000000000E+00 0. -1.
        -12    1    3    3    0    0  0.22379087159E+02 -0.31856632253E+02  0.28950073343E+02  0.48515722267E+02  0.00000000000E+00 0.  1.
        -13    1    4    4    0    0  0.21730677827E+01  0.20082516965E+02  0.73681510542E+01  0.21501612991E+02  0.00000000000E+00 0.  1.
         13    1    4    4    0    0  0.27883411202E+02  0.88569128218E+02  0.41451188858E+03  0.42478474651E+03  0.00000000000E+00 0. -1.
         21    1    1    2  502  501  0.19462222555E+02 -0.79936864405E+01  0.51474446028E+02  0.55608414144E+02  0.00000000000E+00 0.  1.
<scales pt_clust_5="13000.00000" pt_clust_6="13000.00000" pt_clust_7="13000.00000" pt_clust_8="13000.00000" pt_clust_9="21.03989"></scales>
<clustering>
<clus scale="   21.040">  1  9  2 -1</clus>
<clus scale="   81.186">  5  6 -1 -1</clus>
<clus scale="   92.088">  7  8 -1 -1</clus>
<clus scale="  138.289">  2  5  1 -1</clus>
<clus scale="   21.040">  1  5  2 -1</clus>
</clustering>
</event>
<event>
 9    1  0.2951046E-005  0.1155427E+03  0.7546771E-02  0.1252822E+00
          1   -1    0    0  502    0  0.00000000000E+00  0.00000000000E+00  0.87762133600E+03  0.87762133600E+03  0.00000000000E+00 0. -1.
         -2   -1    0    0    0  501 -0.00000000000E+00 -0.00000000000E+00 -0.19805314030E+02  0.19805314030E+02  0.00000000000E+00 0.  1.
        -24    2    1    2    0    0  0.65405895670E+02  0.38808018070E+02  0.30893678438E+03  0.32826663934E+03  0.80827323987E+02 0.  0.
         23    2    1    2    0    0 -0.65227653179E+02 -0.64105141448E+02  0.36165819372E+03  0.38023755176E+03  0.73619500036E+02 0.  0.
         13    1    3    3    0    0  0.24373159914E+02  0.60001735796E+02  0.18445407812E+03  0.19549313583E+03  0.00000000000E+00 0. -1.
        -14    1    3    3    0    0  0.41032735755E+02 -0.21193717726E+02  0.12448270626E+03  0.13277350351E+03  0.00000000000E+00 0.  1.
        -11    1    4    4    0    0  0.13952193288E+02 -0.24659625192E+02  0.10533469715E+03  0.10907868370E+03  0.00000000000E+00 0.  1.
         11    1    4    4    0    0 -0.79179846467E+02 -0.39445516256E+02  0.25632349656E+03  0.27115886806E+03  0.00000000000E+00 0. -1.
         21    1    1    2  502  501 -0.17824249019E+00  0.25297123378E+02  0.18722104388E+03  0.18892245894E+03  0.00000000000E+00 0. -1.
<scales pt_clust_5="13000.00000" pt_clust_6="13000.00000" pt_clust_7="13000.00000" pt_clust_8="13000.00000" pt_clust_9="25.29775"></scales>
<clustering>
<clus scale="   25.298">  1  9  2 -1</clus>
<clus scale="   73.620">  7  8 -1 -1</clus>
<clus scale="   80.827">  5  6 -1 -1</clus>
<clus scale="  110.620">  1  7  2 -1</clus>
<clus scale="   25.298">  1  5  2 -1</clus>
</clustering>
</event>
<event>
 9    1  0.2951046E-005  0.1242215E+03  0.7546771E-02  0.1239450E+00
         -2   -1    0    0    0  501 -0.00000000000E+00  0.00000000000E+00  0.48426095413E+03  0.48426095413E+03  0.00000000000E+00 0.  1.
          1   -1    0    0  502    0  0.00000000000E+00 -0.00000000000E+00 -0.70709298792E+02  0.70709298792E+02  0.00000000000E+00 0. -1.
        -24    2    1    2    0    0  0.76681828546E+02 -0.29548168193E+02  0.36524537523E+03  0.38271146308E+03  0.79439805994E+02 0.  0.
         23    2    1    2    0    0 -0.96932355656E+02  0.26902152456E+02  0.60823433670E+02  0.14830541052E+03  0.90417903791E+02 0.  0.
         13    1    3    3    0    0  0.33194842957E+02  0.55638313004E+01  0.38149913317E+02  0.50875040086E+02  0.00000000000E+00 0. -1.
        -14    1    3    3    0    0  0.43486985589E+02 -0.35111999493E+02  0.32709546191E+03  0.33183642300E+03  0.00000000000E+00 0.  1.
        -13    1    4    4    0    0 -0.17634109156E+02  0.23561748860E+02 -0.19563393838E+02  0.35338989707E+02  0.00000000000E+00 0. -1.
         13    1    4    4    0    0 -0.79298246500E+02  0.33404035954E+01  0.80386827508E+02  0.11296642081E+03  0.00000000000E+00 0.  1.
         21    1    1    2  502  501  0.20250527110E+02  0.26460157370E+01 -0.12517153562E+02  0.23953379319E+02  0.00000000000E+00 0. -1.
<scales pt_clust_5="13000.00000" pt_clust_6="13000.00000" pt_clust_7="13000.00000" pt_clust_8="13000.00000" pt_clust_9="20.42267"></scales>
<clustering>
<clus scale="   20.423">  2  9  1 -1</clus>
<clus scale="   79.440">  5  6 -1 -1</clus>
<clus scale="   90.418">  7  8 -1 -1</clus>
<clus scale="  116.474">  1  5  2 -1</clus>
<clus scale="   20.423">  2  5  1 -1</clus>
</clustering>
</event>
<event>
 9    1  0.2951046E-005  0.1388403E+03  0.7546771E-02  0.1217357E+00
          1   -1    0    0  502    0  0.00000000000E+00  0.00000000000E+00  0.10553030804E+04  0.10553030804E+04  0.00000000000E+00 0. -1.
         -2   -1    0    0    0  501 -0.00000000000E+00 -0.00000000000E+00 -0.29070993473E+02  0.29070993473E+02  0.00000000000E+00 0.  1.
         23    2    1    2    0    0  0.78424473023E+02  0.72828827367E+02  0.19703410898E+03  0.24197529330E+03  0.90967941605E+02 0.  0.
        -24    2    1    2    0    0 -0.58960378255E+02 -0.80057577385E+02  0.69398682232E+03  0.70560271916E+03  0.79824468915E+02 0.  0.
         11    1    4    4    0    0 -0.10555173750E+02 -0.17933515424E+02  0.27535339350E+02  0.34514020071E+02  0.00000000000E+00 0. -1.
        -12    1    4    4    0    0 -0.48405204504E+02 -0.62124061962E+02  0.66645148297E+03  0.67108869909E+03  0.00000000000E+00 0.  1.
        -13    1    3    3    0    0  0.25192237481E+02 -0.16651423042E+02  0.18839210220E+02  0.35592619464E+02  0.00000000000E+00 0.  1.
         13    1    3    3    0    0  0.53232235543E+02  0.89480250409E+02  0.17819489876E+03  0.20638267383E+03  0.00000000000E+00 0. -1.
         21    1    1    2  502  501 -0.19464094769E+02  0.72287500187E+01  0.13521115565E+03  0.13679606144E+03  0.00000000000E+00 0. -1.
<scales pt_clust_5="13000.00000" pt_clust_6="13000.00000" pt_clust_7="13000.00000" pt_clust_8="13000.00000" pt_clust_9="20.76309"></scales>
<clustering>
<clus scale="   20.763">  1  9  2 -1</clus>
<clus scale="   79.824">  5  6 -1 -1</clus>
<clus scale="   90.968">  7  8 -1 -1</clus>
<clus scale="  131.808">  1  5  2 -1</clus>
<clus scale="   20.763">  1  5  2 -1</clus>
</clustering>
</event>
<event>
 9    1  0.2951046E-005  0.1175008E+03  0.7546771E-02  0.1247310E+00
          1   -1    0    0  502    0  0.00000000000E+00  0.00000000000E+00  0.74776253518E+03  0.74776253518E+03  0.00000000000E+00 0. -1.
         -2   -1    0    0    0  501 -0.00000000000E+00 -0.00000000000E+00 -0.50014422148E+02  0.50014422148E+02  0.00000000000E+00 0.  1.
        -24    2    1    2    0    0 -0.75676877068E+02  0.25445250212E+02  0.39300483794E+02  0.12583332684E+03  0.88966553465E+02 0.  0.
         23    2    1    2    0    0  0.58461000505E+02 -0.69511280058E+01  0.48103726910E+03  0.49274303103E+03  0.89066456130E+02 0.  0.
         13    1    3    3    0    0 -0.38080703205E+01 -0.26956561013E+02 -0.29137644645E+01  0.27379693288E+02  0.00000000000E+00 0. -1.
        -14    1    3    3    0    0 -0.71868806748E+02  0.52401811225E+02  0.42214248258E+02  0.98453633549E+02  0.00000000000E+00 0.  1.
        -11    1    4    4    0    0  0.80598070982E+02  0.63228512839E+01  0.35488511592E+03  0.36397729736E+03  0.00000000000E+00 0. -1.
         11    1    4    4    0    0 -0.22137070477E+02 -0.13273979290E+02  0.12615215318E+03  0.12876573367E+03  0.00000000000E+00 0.  1.
         21    1    1    2  502  501  0.17215876563E+02 -0.18494122206E+02  0.17741036014E+03  0.17920059946E+03  0.00000000000E+00 0. -1.
<scales pt_clust_5="13000.00000" pt_clust_6="13000.00000" pt_clust_7="13000.00000" pt_clust_8="13000.00000" pt_clust_9="25.26695"></scales>
<clustering>
<clus scale="   25.267">  1  9  2 -1</clus>
<clus scale="   88.967">  5  6 -1 -1</clus>
<clus scale="   89.066">  7  8 -1 -1</clus>
<clus scale="  117.425">  2  5  1 -1</clus>
<clus scale="   25.267">  1  5  2 -1</clus>
</clustering>
</event>
<event>
 9    1  0.2951046E-005  0.1372240E+03  0.7546771E-02  0.1219496E+00
          1   -1    0    0  502    0  0.00000000000E+00  0.00000000000E+00  0.45739644822E+03  0.45739644822E+03  0.00000000000E+00 0. -1.
         -2   -1    0    0    0  501 -0.00000000000E+00 -0.00000000000E+00 -0.80481856832E+02  0.80481856832E+02  0.00000000000E+00 0.  1.
         23    2    1    2    0    0  0.11342847941E+03  0.14303444708E+02  0.53299490065E+02  0.15556947126E+03  0.91051723076E+02 0.  0.
        -24    2    1    2    0    0 -0.89156443279E+02  0.10467077455E+02  0.10192817380E+03  0.15792566968E+03  0.80577499585E+02 0.  0.
         11    1    4    4    0    0 -0.10108341364E+02 -0.30009349349E+02  0.23343670024E+02  0.39340393283E+02  0.00000000000E+00 0. -1.
        -12    1    4    4    0    0 -0.79048101915E+02  0.40476426804E+02  0.78584503781E+02  0.11858527639E+03  0.00000000000E+00 0.  1.
        -13    1    3    3    0    0  0.33738289029E+01  0.33975403020E+02  0.16063675319E+02  0.37732643647E+02  0.00000000000E+00 0. -1.
         13    1    3    3    0    0  0.11005465050E+03 -0.19671958313E+02  0.37235814746E+02  0.11783682761E+03  0.00000000000E+00 0.  1.
         21    1    1    2  502  501 -0.24272036129E+02 -0.24770522162E+02  0.22168692752E+03  0.22438316411E+03  0.00000000000E+00 0. -1.
<scales pt_clust_5="13000.00000" pt_clust_6="13000.00000" pt_clust_7="13000.00000" pt_clust_8="13000.00000" pt_clust_9="34.68012"></scales>
<clustering>
<clus scale="   34.680">  1  9  2 -1</clus>
<clus scale="   80.577">  5  6 -1 -1</clus>
<clus scale="   91.052">  7  8 -1 -1</clus>
<clus scale="  130.510">  1  5  2 -1</clus>
<clus scale="   34.680">  1  5  2 -1</clus>
</clustering>
</event>
<event>
 9    1  0.2951046E-005  0.1617333E+03  0.7546771E-02  0.1188814E+00
          1   -1    0    0  502    0  0.00000000000E+00  0.00000000000E+00  0.87438033221E+02  0.87438033221E+02  0.00000000000E+00 0. -1.
         -2   -1    0    0    0  501 -0.00000000000E+00 -0.00000000000E+00 -0.42223097462E+03  0.42223097462E+03  0.00000000000E+00 0.  1.
        -24    2    1    2    0    0 -0.14876470857E+03 -0.36088900251E+01 -0.22644816335E+03  0.28197984552E+03  0.78037811288E+02 0.  0.
         23    2    1    2    0    0  0.10857314224E+03 -0.33021288744E+02 -0.82010853106E+02  0.16726890410E+03  0.91512695986E+02 0.  0.
         11    1    3    3    0    0 -0.67956608076E+02  0.11145231412E+02 -0.43543453095E+02  0.81476064411E+02  0.00000000000E+00 0. -1.
        -12    1    3    3    0    0 -0.80808100492E+02 -0.14754121437E+02 -0.18290471025E+03  0.20050378110E+03  0.00000000000E+00 0.  1.
        -13    1    4    4    0    0 -0.11729358354E+02 -0.17557571491E+02 -0.26483347227E+02  0.33870545381E+02  0.00000000000E+00 0.  1.
         13    1    4    4    0    0  0.12030250060E+03 -0.15463717253E+02 -0.55527505879E+02  0.13339835872E+03  0.00000000000E+00 0. -1.
         21    1    1    2  502  501  0.40191566327E+02  0.36630178769E+02 -0.26333924946E+02  0.60420258222E+02  0.00000000000E+00 0. -1.
<scales pt_clust_5="13000.00000" pt_clust_6="13000.00000" pt_clust_7="13000.00000" pt_clust_8="13000.00000" pt_clust_9="54.37952"></scales>
<clustering>
<clus scale="   54.380">  1  9  2 -1</clus>
<clus scale="   78.038">  5  6 -1 -1</clus>
<clus scale="   91.513">  7  8 -1 -1</clus>
<clus scale="  154.509">  2  5  1 -1</clus>
<clus scale="   54.380">  1  5  2 -1</clus>
</clustering>
</event>
<event>
 9    1  0.2951046E-005  0.1187828E+03  0.7546771E-02  0.1249586E+00
          1   -1    0    0  502    0  0.00000000000E+00  0.00000000000E+00  0.49651890365E+03  0.49651890365E+03  0.00000000000E+00 0. -1.
         -2   -1    0    0    0  501 -0.00000000000E+00 -0.00000000000E+00 -0.54852865330E+02  0.54852865330E+02  0.00000000000E+00 0.  1.
         23    2    1    2    0    0 -0.91178168501E+02  0.26035249892E+02  0.10859495401E+03  0.17171889179E+03  0.93291055913E+02 0.  0.
        -24    2    1    2    0    0  0.21004141370E+02 -0.61207212613E+02  0.17021593915E+03  0.19886775791E+03  0.79921351134E+02 0.  0.
         13    1    4    4    0    0  0.47146552391E+02 -0.60430555294E+02  0.12911706061E+03  0.15015280469E+03  0.00000000000E+00 0. -1.
        -14    1    4    4    0    0 -0.26142411021E+02 -0.77665731907E+00  0.41098878538E+02  0.48714953225E+02  0.00000000000E+00 0.  1.
        -13    1    3    3    0    0 -0.59927254599E+02 -0.20875563359E+02  0.94133804239E+02  0.11352637619E+03  0.00000000000E+00 0.  1.
         13    1    3    3    0    0 -0.31250913902E+02  0.46910813251E+02  0.14461149766E+02  0.58192515602E+02  0.00000000000E+00 0. -1.
         21    1    1    2  502  501  0.70174027131E+02  0.35171962721E+02  0.16285514517E+03  0.18078511928E+03  0.00000000000E+00 0. -1.
<scales pt_clust_5="13000.00000" pt_clust_6="13000.00000" pt_clust_7="13000.00000" pt_clust_8="13000.00000" pt_clust_9="78.49497"></scales>
<clustering>
<clus scale="   78.495">  1  9  2 -1</clus>
<clus scale="   79.921">  5  6 -1 -1</clus>
<clus scale="   93.291">  7  8 -1 -1</clus>
<clus scale="  108.598">  1  5  2 -1</clus>
<clus scale="   78.495">  1  5  2 -1</clus>
</clustering>
</event>
<event>
 9    1  0.2951046E-005  0.2553137E+03  0.7546771E-02  0.1110586E+00
         -2   -1    0    0    0  501 -0.00000000000E+00  0.00000000000E+00  0.12659159347E+03  0.12659159347E+03  0.00000000000E+00 0.  1.
          1   -1    0    0  502    0  0.00000000000E+00 -0.00000000000E+00 -0.72876132154E+03  0.72876132154E+03  0.00000000000E+00 0. -1.
        -24    2    1    2    0    0 -0.23204422052E+01 -0.20142803227E+03 -0.21265643131E+03  0.30353459903E+03  0.79572975244E+02 0.  0.
         23    2    1    2    0    0  0.15526478476E+01  0.28818526271E+03 -0.27882977078E+03  0.41118315160E+03  0.90952661993E+02 0.  0.
         13    1    3    3    0    0 -0.26025367540E+02 -0.16877000736E+03 -0.19579160042E+03  0.25979797138E+03  0.00000000000E+00 0. -1.
        -14    1    3    3    0    0  0.23704925335E+02 -0.32658024914E+02 -0.16864830891E+02  0.43736627641E+02  0.00000000000E+00 0.  1.
        -11    1    4    4    0    0 -0.15645062727E+02  0.22126027059E+03 -0.25527201481E+03  0.33817846896E+03  0.00000000000E+00 0. -1.
         11    1    4    4    0    0  0.17197710575E+02  0.66924992123E+02 -0.23557755978E+02  0.73004682633E+02  0.00000000000E+00 0.  1.
         21    1    1    2  502  501  0.76779435762E+00 -0.86757230437E+02 -0.11068352597E+03  0.14063516439E+03  0.00000000000E+00 0.  1.
<scales pt_clust_5="13000.00000" pt_clust_6="13000.00000" pt_clust_7="13000.00000" pt_clust_8="13000.00000" pt_clust_9="86.76063"></scales>
<clustering>
<clus scale="   79.573">  5  6 -1 -1</clus>
<clus scale="   86.761">  2  9  1 -1</clus>
<clus scale="   90.953">  7  8 -1 -1</clus>
<clus scale="  251.485">  1  5  2 -1</clus>
<clus scale="   86.761">  2  5  1 -1</clus>
</clustering>
</event>
<event>
 9    1  0.2951046E-005  0.1715245E+03  0.7546771E-02  0.1202636E+00
          1   -1    0    0  502    0  0.00000000000E+00  0.00000000000E+00  0.65329081942E+03  0.65329081942E+03  0.00000000000E+00 0. -1.
         -2   -1    0    0    0  501 -0.00000000000E+00 -0.00000000000E+00 -0.12195947634E+03  0.12195947634E+03  0.00000000000E+00 0.  1.
        -24    2    1    2    0    0 -0.88650082310E+02  0.14099216654E+03  0.18185049630E+03  0.25898000443E+03  0.79141718257E+02 0.  0.
         23    2    1    2    0    0 -0.38135815843E+01 -0.25671837998E+02  0.35567161926E+03  0.36832897533E+03  0.92143077054E+02 0.  0.
         11    1    3    3    0    0 -0.88421753756E+01  0.71730947041E+02  0.10841661042E+03  0.13029840461E+03  0.00000000000E+00 0. -1.
        -12    1    3    3    0    0 -0.79807906934E+02  0.69261219501E+02  0.73433885879E+02  0.12868159982E+03  0.00000000000E+00 0.  1.
        -13    1    4    4    0    0 -0.39027827981E+02  0.12487652738E+02  0.20222943439E+03  0.20633917941E+03  0.00000000000E+00 0.  1.
         13    1    4    4    0    0  0.35214246397E+02 -0.38159490736E+02  0.15344218487E+03  0.16198979591E+03  0.00000000000E+00 0. -1.
         21    1    1    2  502  501  0.92463663894E+02 -0.11532032854E+03 -0.61907724907E+01  0.14794131600E+03  0.00000000000E+00 0. -1.
<scales pt_clust_5="13000.00000" pt_clust_6="13000.00000" pt_clust_7="13000.00000" pt_clust_8="13000.00000" pt_clust_9="152.17506"></scales>
<clustering>
<clus scale="   79.142">  5  6 -1 -1</clus>
<clus scale="   92.143">  7  8 -1 -1</clus>
<clus scale="   95.728">  1  7  2 -1</clus>
<clus scale="  152.175">  2  9  1 -1</clus>
<clus scale="   95.728">  1  5  2 -1</clus>
</clustering>
</event>
<event>
 9    1  0.2951046E-005  0.1265830E+03  0.7546771E-02  0.1236949E+00
          1   -1    0    0  502    0  0.00000000000E+00  0.00000000000E+00  0.76125680780E+03  0.76125680780E+03  0.00000000000E+00 0. -1.
         -2   -1    0    0    0  501 -0.00000000000E+00 -0.00000000000E+00 -0.55260233634E+02  0.55260233634E+02  0.00000000000E+00 0.  1.
         23    2    1    2    0    0 -0.77375385318E+02 -0.47721340313E+02  0.37390454218E+02  0.13334273973E+03  0.90099742501E+02 0.  0.
        -24    2    1    2    0    0  0.78872655965E+02  0.17109650120E+02  0.51722565780E+03  0.52872249136E+03  0.74239179685E+02 0.  0.
         11    1    4    4    0    0  0.74616018344E+02  0.29873349133E+02  0.28525365861E+03  0.29636061974E+03  0.00000000000E+00 0. -1.
        -12    1    4    4    0    0  0.42566376212E+01 -0.12763699013E+02  0.23197199919E+03  0.23236187162E+03  0.00000000000E+00 0.  1.
        -11    1    3    3    0    0 -0.38321202883E+02 -0.35663803939E+02 -0.25584393397E+02  0.58266479963E+02  0.00000000000E+00 0.  1.
         11    1    3    3    0    0 -0.39054182435E+02 -0.12057536374E+02  0.62974847615E+02  0.75076259771E+02  0.00000000000E+00 0. -1.
         21    1    1    2  502  501 -0.14972706470E+01  0.30611690193E+02  0.15138046215E+03  0.15445181034E+03  0.00000000000E+00 0.  1.
<scales pt_clust_5="13000.00000" pt_clust_6="13000.00000" pt_clust_7="13000.00000" pt_clust_8="13000.00000" pt_clust_9="30.64829"></scales>
<clustering>
<clus scale="   30.648">  1  9  2 -1</clus>
<clus scale="   74.239">  5  6 -1 -1</clus>
<clus scale="   90.100">  7  8 -1 -1</clus>
<clus scale="  115.831">  1  5  2 -1</clus>
<clus scale="   30.648">  1  5  2 -1</clus>
</clustering>
</event>
<event>
 9    1  0.2951046E-005  0.9379272E+02  0.7546771E-02  0.1300000E+00
          1   -1    0    0  502    0  0.00000000000E+00  0.00000000000E+00  0.22507599883E+03  0.22507599883E+03  0.00000000000E+00 0. -1.
         -2   -1    0    0    0  501 -0.00000000000E+00 -0.00000000000E+00 -0.17739617113E+03  0.17739617113E+03  0.00000000000E+00 0.  1.
        -24    2    1    2    0    0 -0.16874186395E+02  0.15301417737E+02 -0.14610034383E+03  0.16819126306E+03  0.80150601684E+02 0.  0.
         23    2    1    2    0    0  0.42783386360E+02 -0.25815976813E+02  0.14595522745E+03  0.17888173840E+03  0.90547584759E+02 0.  0.
         11    1    3    3    0    0 -0.59524875503E+01  0.41416145485E+02 -0.38257628392E+02  0.56695461414E+02  0.00000000000E+00 0. -1.
        -12    1    3    3    0    0 -0.10921698845E+02 -0.26114727747E+02 -0.10784271544E+03  0.11149580164E+03  0.00000000000E+00 0.  1.
        -11    1    4    4    0    0  0.16371426334E+02 -0.44326690284E+02  0.24519922836E+02  0.53236319253E+02  0.00000000000E+00 0.  1.
         11    1    4    4    0    0  0.26411960026E+02  0.18510713471E+02  0.12143530462E+03  0.12564541915E+03  0.00000000000E+00 0. -1.
         21    1    1    2  502  501 -0.25909199965E+02  0.10514559076E+02  0.47824944067E+02  0.55399168499E+02  0.00000000000E+00 0. -1.
<scales pt_clust_5="13000.00000" pt_clust_6="13000.00000" pt_clust_7="13000.00000" pt_clust_8="13000.00000" pt_clust_9="27.96145"></scales>
<clustering>
<clus scale="   27.961">  1  9  2 -1</clus>
<clus scale="   80.151">  5  6 -1 -1</clus>
<clus scale="   83.799">  2  5  1 -1</clus>
<clus scale="   90.548">  7  8 -1 -1</clus>
<clus scale="   27.961">  1  5  2 -1</clus>
</clustering>
</event>
<event>
 9    1  0.2951046E-005  0.7958151E+02  0.7546771E-02  0.1333341E+00
          1   -1    0    0  502    0  0.00000000000E+00  0.00000000000E+00  0.23980445869E+03  0.23980445869E+03  0.00000000000E+00 0. -1.
         -2   -1    0    0    0  501 -0.00000000000E+00 -0.00000000000E+00 -0.35214172983E+02  0.35214172983E+02  0.00000000000E+00 0.  1.
        -24    2    1    2    0    0  0.72226484937E+01  0.18623548071E+01  0.56572202502E+02  0.97895506752E+02  0.79545465802E+02 0.  0.
         23    2    1    2    0    0  0.13249734450E+02 -0.30086686852E+01  0.11161356683E+03  0.13534129500E+03  0.75333062344E+02 0.  0.
         13    1    3    3    0    0 -0.88643063939E+01 -0.21380162555E+02  0.64509274611E+02  0.68535638828E+02  0.00000000000E+00 0. -1.
        -14    1    3    3    0    0  0.16086954888E+02  0.23242517362E+02 -0.79370721088E+01  0.29359867924E+02  0.00000000000E+00 0.  1.
        -11    1    4    4    0    0  0.31203664238E+01  0.31123723636E+02  0.20190391587E+02  0.37230025141E+02  0.00000000000E+00 0. -1.
         11    1    4    4    0    0  0.10129368026E+02 -0.34132392321E+02  0.91423175244E+02  0.98111269862E+02  0.00000000000E+00 0.  1.
         21    1    1    2  502  501 -0.20472382943E+02  0.11463138781E+01  0.36404516372E+02  0.41781829916E+02  0.00000000000E+00 0. -1.
<scales pt_clust_5="13000.00000" pt_clust_6="13000.00000" pt_clust_7="13000.00000" pt_clust_8="13000.00000" pt_clust_9="20.50445"></scales>
<clustering>
<clus scale="   20.504">  1  9  2 -1</clus>
<clus scale="   75.333">  7  8 -1 -1</clus>
<clus scale="   75.371">  1  7  2 -1</clus>
<clus scale="   79.545">  5  6 -1 -1</clus>
<clus scale="   20.504">  1  5  2 -1</clus>
</clustering>
</event>
<event>
 9    1  0.2951046E-005  0.9628368E+02  0.7546771E-02  0.1295083E+00
          3   -1    0    0  502    0  0.00000000000E+00  0.00000000000E+00  0.33320644247E+03  0.33320644247E+03  0.00000000000E+00 0. -1.
         -4   -1    0    0    0  501 -0.00000000000E+00 -0.00000000000E+00 -0.44034972432E+02  0.44034972432E+02  0.00000000000E+00 0.  1.
         23    2    1    2    0    0 -0.22894017803E+02 -0.53788329146E+01  0.40939112815E+02  0.10333724570E+03  0.91921202644E+02 0.  0.
        -24    2    1    2    0    0  0.43648033525E+02 -0.58011966887E+01  0.18131844894E+03  0.20295916690E+03  0.79857615720E+02 0.  0.
         11    1    4    4    0    0  0.62710284735E+02 -0.19984774703E+02  0.14859908965E+03  0.16252279986E+03  0.00000000000E+00 0. -1.
        -12    1    4    4    0    0 -0.19062251210E+02  0.14183578014E+02  0.32719359296E+02  0.40436367038E+02  0.00000000000E+00 0.  1.
        -11    1    3    3    0    0 -0.52631569255E+02 -0.23264964728E+01  0.46381328277E-01  0.52682984153E+02  0.00000000000E+00 0.  1.
         11    1    3    3    0    0  0.29737551452E+02 -0.30523364418E+01  0.40892731486E+02  0.50654261543E+02  0.00000000000E+00 0. -1.
         21    1    1    2  502  501 -0.20754015722E+02  0.11180029603E+02  0.66913908280E+02  0.70945002303E+02  0.00000000000E+00 0.  1.
<scales pt_clust_5="13000.00000" pt_clust_6="13000.00000" pt_clust_7="13000.00000" pt_clust_8="13000.00000" pt_clust_9="23.57376"></scales>
<clustering>
<clus scale="   23.574">  1  9  2 -1</clus>
<clus scale="   79.858">  5  6 -1 -1</clus>
<clus scale="   84.843">  1  5  2 -1</clus>
<clus scale="   91.921">  7  8 -1 -1</clus>
<clus scale="   23.574">  1  5  2 -1</clus>
</clustering>
</event>
<event>
 9    1  0.2951046E-005  0.9847058E+02  0.7546771E-02  0.1288990E+00
          1   -1    0    0  502    0  0.00000000000E+00  0.00000000000E+00  0.41605138369E+03  0.41605138369E+03  0.00000000000E+00 0. -1.
         -2   -1    0    0    0  501 -0.00000000000E+00 -0.00000000000E+00 -0.32216683462E+02  0.32216683462E+02  0.00000000000E+00 0.  1.
         23    2    1    2    0    0  0.36177691966E+02 -0.15628188216E+02  0.10396632427E+03  0.14316111300E+03  0.90183380000E+02 0.  0.
        -24    2    1    2    0    0 -0.44530742995E+02 -0.12541754765E+02  0.21639665094E+03  0.23516427029E+03  0.79589200286E+02 0.  0.
         11    1    4    4    0    0  0.60687309966E+01 -0.35308031192E+02  0.99885973319E+02  0.10611641828E+03  0.00000000000E+00 0. -1.
        -12    1    4    4    0    0 -0.50599473992E+02  0.22766276428E+02  0.11651067762E+03  0.12904785201E+03  0.00000000000E+00 0.  1.
        -11    1    3    3    0    0 -0.27116218498E+02 -0.14068245304E+02  0.15178542397E+02  0.34111478726E+02  0.00000000000E+00 0.  1.
         11    1    3    3    0    0  0.63293910464E+02 -0.15599429119E+01  0.88787781876E+02  0.10904963427E+03  0.00000000000E+00 0. -1.
         21    1    1    2  502  501  0.83530510292E+01  0.28169942981E+02  0.63471725023E+02  0.69942683866E+02  0.00000000000E+00 0. -1.
<scales pt_clust_5="13000.00000" pt_clust_6="13000.00000" pt_clust_7="13000.00000" pt_clust_8="13000.00000" pt_clust_9="29.38229"></scales>
<clustering>
<clus scale="   29.382">  1  9  2 -1</clus>
<clus scale="   79.589">  5  6 -1 -1</clus>
<clus scale="   88.870">  1  5  2 -1</clus>
<clus scale="   90.183">  7  8 -1 -1</clus>
<clus scale="   29.382">  1  5  2 -1</clus>
</clustering>
</event>
<event>
 9    1  0.2951046E-005  0.1085640E+03  0.7546771E-02  0.1270208E+00
          1   -1    0    0  502    0  0.00000000000E+00  0.00000000000E+00  0.33458507619E+03  0.33458507619E+03  0.00000000000E+00 0. -1.
         -2   -1    0    0    0  501 -0.00000000000E+00 -0.00000000000E+00 -0.51625943681E+02  0.51625943681E+02  0.00000000000E+00 0.  1.
         23    2    1    2    0    0 -0.70998208234E+02  0.23277339014E+02  0.13168884151E+03  0.17956706103E+03  0.96539102667E+02 0.  0.
        -24    2    1    2    0    0  0.20499194575E+02 -0.31327312592E+02  0.10510337669E+03  0.13775029852E+03  0.80788659226E+02 0.  0.
         13    1    4    4    0    0  0.32196908769E+02  0.10114882249E+02  0.82458879278E+02  0.89097803278E+02  0.00000000000E+00 0. -1.
        -14    1    4    4    0    0 -0.11697714194E+02 -0.41442194841E+02  0.22644497410E+02  0.48652495245E+02  0.00000000000E+00 0.  1.
        -13    1    3    3    0    0 -0.85797263334E+02  0.44129763974E+02  0.10263636990E+03  0.14086458352E+03  0.00000000000E+00 0.  1.
         13    1    3    3    0    0  0.14799055099E+02 -0.20852424961E+02  0.29052471609E+02  0.38702477507E+02  0.00000000000E+00 0. -1.
         21    1    1    2  502  501  0.50499013659E+02  0.80499735783E+01  0.46166914307E+02  0.68893660317E+02  0.00000000000E+00 0. -1.
<scales pt_clust_5="13000.00000" pt_clust_6="13000.00000" pt_clust_7="13000.00000" pt_clust_8="13000.00000" pt_clust_9="51.13661"></scales>
<clustering>
<clus scale="   51.137">  2  9  1 -1</clus>
<clus scale="   80.789">  5  6 -1 -1</clus>
<clus scale="   94.832">  1  5  2 -1</clus>
<clus scale="   96.539">  7  8 -1 -1</clus>
<clus scale="   94.832">  1  5  2 -1</clus>
</clustering>
</event>
<event>
 9    1  0.2951046E-005  0.9366187E+02  0.7546771E-02  0.1299362E+00
          1   -1    0    0  502    0  0.00000000000E+00  0.00000000000E+00  0.15375561087E+03  0.15375561087E+03  0.00000000000E+00 0. -1.
         -2   -1    0    0    0  501 -0.00000000000E+00 -0.00000000000E+00 -0.10000531064E+03  0.10000531064E+03  0.00000000000E+00 0.  1.
        -24    2    1    2    0    0 -0.15726327849E+02 -0.17993652145E+02 -0.48851028566E+02  0.97734315001E+02  0.81206430975E+02 0.  0.
         23    2    1    2    0    0  0.69797491253E+01  0.36201242233E+02  0.85290090374E+02  0.12942401355E+03  0.90094000529E+02 0.  0.
         13    1    3    3    0    0 -0.26310916492E+02  0.27323212678E+02 -0.18767618492E+02  0.42320748830E+02  0.00000000000E+00 0. -1.
        -14    1    3    3    0    0  0.10584588644E+02 -0.45316864823E+02 -0.30083410074E+02  0.55413566171E+02  0.00000000000E+00 0.  1.
        -13    1    4    4    0    0  0.27809268741E+02  0.20837166505E+01 -0.70831361846E+01  0.28772697496E+02  0.00000000000E+00 0.  1.
         13    1    4    4    0    0 -0.20829519616E+02  0.34117525582E+02  0.92373226559E+02  0.10065131606E+03  0.00000000000E+00 0. -1.
         21    1    1    2  502  501  0.87465787232E+01 -0.18207590088E+02  0.17311238418E+02  0.26602592951E+02  0.00000000000E+00 0. -1.
<scales pt_clust_5="13000.00000" pt_clust_6="13000.00000" pt_clust_7="13000.00000" pt_clust_8="13000.00000" pt_clust_9="20.19948"></scales>
<clustering>
<clus scale="   20.199">  1  9  2 -1</clus>
<clus scale="   81.206">  5  6 -1 -1</clus>
<clus scale="   85.148">  2  5  1 -1</clus>
<clus scale="   90.094">  7  8 -1 -1</clus>
<clus scale="   20.199">  1  5  2 -1</clus>
</clustering>
</event>
<event>
 9    1  0.2951046E-005  0.1346315E+03  0.7546771E-02  0.1222555E+00
          1   -1    0    0  502    0  0.00000000000E+00  0.00000000000E+00  0.36896617316E+03  0.36896617316E+03  0.00000000000E+00 0. -1.
         -2   -1    0    0    0  501 -0.00000000000E+00 -0.00000000000E+00 -0.25481630298E+03  0.25481630298E+03  0.00000000000E+00 0.  1.
        -24    2    1    2    0    0  0.86708355603E+02 -0.60159910892E+02 -0.21724192391E+03  0.25475375543E+03  0.81042387623E+02 0.  0.
         23    2    1    2    0    0 -0.54618169429E+02  0.16542059575E+02  0.18605913635E+03  0.21393559252E+03  0.88846223118E+02 0.  0.
         13    1    3    3    0    0  0.19932192527E+02  0.19083523560E+02 -0.64735570530E+02  0.70371636774E+02  0.00000000000E+00 0. -1.
        -14    1    3    3    0    0  0.66776163076E+02 -0.79243434452E+02 -0.15250635338E+03  0.18438211866E+03  0.00000000000E+00 0.  1.
        -13    1    4    4    0    0 -0.66248175994E+02 -0.98577185933E+01  0.16541920503E+03  0.17846430688E+03  0.00000000000E+00 0. -1.
         13    1    4    4    0    0  0.11630006565E+02  0.26399778168E+02  0.20639931316E+02  0.35471285637E+02  0.00000000000E+00 0.  1.
         21    1    1    2  502  501 -0.32090186175E+02  0.43617851318E+02  0.14533265775E+03  0.15509312819E+03  0.00000000000E+00 0. -1.
<scales pt_clust_5="13000.00000" pt_clust_6="13000.00000" pt_clust_7="13000.00000" pt_clust_8="13000.00000" pt_clust_9="54.15069"></scales>
<clustering>
<clus scale="   54.151">  1  9  2 -1</clus>
<clus scale="   81.042">  5  6 -1 -1</clus>
<clus scale="   88.846">  7  8 -1 -1</clus>
<clus scale="  129.614">  2  5  1 -1</clus>
<clus scale="   54.151">  1  5  2 -1</clus>
</clustering>
</event>
<event>
 9    1  0.2951046E-005  0.1030100E+03  0.7546771E-02  0.1278541E+00
          1   -1    0    0  502    0  0.00000000000E+00  0.00000000000E+00  0.31182392460E+03  0.31182392460E+03  0.00000000000E+00 0. -1.
         -2   -1    0    0    0  501 -0.00000000000E+00 -0.00000000000E+00 -0.60088320783E+02  0.60088320783E+02  0.00000000000E+00 0.  1.
        -24    2    1    2    0    0  0.51519485264E+02 -0.23388234361E+02  0.18374834714E+02  0.10176502614E+03  0.82566452794E+02 0.  0.
         23    2    1    2    0    0 -0.44235996830E+02  0.12867853581E+01  0.22172078185E+03  0.24412775431E+03  0.92085699706E+02 0.  0.
         11    1    3    3    0    0  0.18539990269E+02 -0.50103637587E+02  0.24693735398E+02  0.58854790005E+02  0.00000000000E+00 0. -1.
        -12    1    3    3    0    0  0.32979494995E+02  0.26715403226E+02 -0.63189006839E+01  0.42910236139E+02  0.00000000000E+00 0.  1.
        -11    1    4    4    0    0  0.13860218729E+02  0.30868896864E+02  0.49318699819E+02  0.59810773349E+02  0.00000000000E+00 0.  1.
         11    1    4    4    0    0 -0.58096215559E+02 -0.29582111506E+02  0.17240208203E+03  0.18431698096E+03  0.00000000000E+00 0. -1.
         21    1    1    2  502  501 -0.72834884334E+01  0.22101449003E+02  0.11639987256E+02  0.26019464927E+02  0.00000000000E+00 0. -1.
<scales pt_clust_5="13000.00000" pt_clust_6="13000.00000" pt_clust_7="13000.00000" pt_clust_8="13000.00000" pt_clust_9="23.27065"></scales>
<clustering>
<clus scale="   23.271">  2  9  1 -1</clus>
<clus scale="   82.566">  5  6 -1 -1</clus>
<clus scale="   92.086">  7  8 -1 -1</clus>
<clus scale="   94.597">  2  5  1 -1</clus>
<clus scale="  103.010">  1  5  2 -1</clus>
</clustering>
</event>
<event>
 9    1  0.2951046E-005  0.9454969E+02  0.7546771E-02  0.1300474E+00
         -2   -1    0    0    0  501 -0.00000000000E+00  0.00000000000E+00  0.45674468962E+02  0.45674468962E+02  0.00000000000E+00 0.  1.
          1   -1    0    0  502    0  0.00000000000E+00 -0.00000000000E+00 -0.34510395971E+03  0.34510395971E+03  0.00000000000E+00 0. -1.
         23    2    1    2    0    0 -0.51142507985E+01  0.32990231397E+01 -0.33610410200E+02  0.98694687943E+02  0.92595586501E+02 0.  0.
        -24    2    1    2    0    0 -0.14926402507E+01  0.23828832564E+02 -0.24116936143E+03  0.25483887240E+03  0.78804497055E+02 0.  0.
         11    1    4    4    0    0  0.33195774496E+02  0.23417426189E+02 -0.17990335202E+03  0.18443305387E+03  0.00000000000E+00 0. -1.
        -12    1    4    4    0    0 -0.34688414747E+02  0.41140637464E+00 -0.61266009414E+02  0.70405818526E+02  0.00000000000E+00 0.  1.
        -13    1    3    3    0    0 -0.33108338448E+02  0.12177742613E+02 -0.52881464890E+02  0.63568143113E+02  0.00000000000E+00 0.  1.
         13    1    3    3    0    0  0.27994087649E+02 -0.88787194735E+01  0.19271054690E+02  0.35126544830E+02  0.00000000000E+00 0. -1.
         21    1    1    2  502  501  0.66068910492E+01 -0.27127855703E+02 -0.24649719118E+02  0.37244868331E+02  0.00000000000E+00 0.  1.
<scales pt_clust_5="13000.00000" pt_clust_6="13000.00000" pt_clust_7="13000.00000" pt_clust_8="13000.00000" pt_clust_9="27.92081"></scales>
<clustering>
<clus scale="   27.921">  1  9  2 -1</clus>
<clus scale="   78.804">  5  6 -1 -1</clus>
<clus scale="   81.092">  2  5  1 -1</clus>
<clus scale="   92.596">  7  8 -1 -1</clus>
<clus scale="   81.092">  2  5  1 -1</clus>
</clustering>
</event>
<event>
 9    1  0.3972346E-005  0.1024084E+03  0.7546771E-02  0.1280080E+00
         -4   -1    0    0    0  501 -0.00000000000E+00  0.00000000000E+00  0.24902088680E+03  0.24902088680E+03  0.00000000000E+00 0.  1.
          3   -1    0    0  502    0  0.00000000000E+00 -0.00000000000E+00 -0.37949685617E+03  0.37949685617E+03  0.00000000000E+00 0. -1.
         23    2    1    2    0    0 -0.23614555300E+02 -0.50822009299E+01  0.22880620886E+03  0.24721009487E+03  0.90427174040E+02 0.  0.
        -24    2    1    2    0    0  0.60820156254E+01  0.22740105457E+02 -0.27518108719E+03  0.29360254532E+03  0.99617872717E+02 0.  0.
         11    1    4    4    0    0 -0.24302965662E+01  0.53871628095E+02 -0.23947618275E+03  0.24547281063E+03  0.00000000000E+00 0. -1.
        -12    1    4    4    0    0  0.85123121916E+01 -0.31131522639E+02 -0.35704904439E+02  0.48129734693E+02  0.00000000000E+00 0.  1.
        -13    1    3    3    0    0  0.33685579367E+02 -0.97976300249E+01  0.69617909632E+02  0.77957457327E+02  0.00000000000E+00 0. -1.
         13    1    3    3    0    0 -0.57300134667E+02  0.47154290950E+01  0.15918829923E+03  0.16925263754E+03  0.00000000000E+00 0.  1.
         21    1    1    2  502  501  0.17532539674E+02 -0.17657904527E+02 -0.84101091037E+02  0.87705102778E+02  0.00000000000E+00 0.  1.
<scales pt_clust_5="13000.00000" pt_clust_6="13000.00000" pt_clust_7="13000.00000" pt_clust_8="13000.00000" pt_clust_9="24.88356"></scales>
<clustering>
<clus scale="   24.884">  2  9  1 -1</clus>
<clus scale="   90.427">  7  8 -1 -1</clus>
<clus scale="   93.492">  1  7  2 -1</clus>
<clus scale="   99.618">  5  6 -1 -1</clus>
<clus scale="   24.884">  2  5  1 -1</clus>
</clustering>
</event>
<event>
 9    1  0.2951046E-005  0.1208929E+03  0.7546771E-02  0.1242477E+00
          1   -1    0    0  502    0  0.00000000000E+00  0.00000000000E+00  0.25599230283E+03  0.25599230283E+03  0.00000000000E+00 0. -1.
         -2   -1    0    0    0  501 -0.00000000000E+00 -0.00000000000E+00 -0.13291354533E+03  0.13291354533E+03  0.00000000000E+00 0.  1.
         23    2    1    2    0    0  0.76666489417E+02 -0.53338201079E+02 -0.71650544806E+02  0.14388037169E+03  0.82734796145E+02 0.  0.
        -24    2    1    2    0    0 -0.40143661949E+02  0.60046960192E+02  0.11729979652E+03  0.15915200711E+03  0.79705508463E+02 0.  0.
         11    1    4    4    0    0 -0.51466752935E+02  0.21825429876E+02  0.10226513601E+03  0.11654756150E+03  0.00000000000E+00 0. -1.
        -12    1    4    4    0    0  0.11323090986E+02  0.38221530316E+02  0.15034660506E+02  0.42604445610E+02  0.00000000000E+00 0.  1.
        -13    1    3    3    0    0  0.13127637407E+02  0.16247708480E+02  0.60492766587E+01  0.21746646703E+02  0.00000000000E+00 0. -1.
         13    1    3    3    0    0  0.63538852009E+02 -0.69585909558E+02 -0.77699821465E+02  0.12213372499E+03  0.00000000000E+00 0.  1.
         21    1    1    2  502  501 -0.36522827467E+02 -0.67087591133E+01  0.77429505781E+02  0.85873469363E+02  0.00000000000E+00 0. -1.
<scales pt_clust_5="13000.00000" pt_clust_6="13000.00000" pt_clust_7="13000.00000" pt_clust_8="13000.00000" pt_clust_9="37.13387"></scales>
<clustering>
<clus scale="   37.134">  1  9  2 -1</clus>
<clus scale="   79.706">  5  6 -1 -1</clus>
<clus scale="   82.735">  7  8 -1 -1</clus>
<clus scale="  118.840">  1  5  2 -1</clus>
<clus scale="   37.134">  1  5  2 -1</clus>
</clustering>
</event>
<event>
 9    1  0.2951046E-005  0.1104941E+03  0.7546771E-02  0.1265382E+00
          3   -1    0    0  502    0  0.00000000000E+00  0.00000000000E+00  0.22911593243E+03  0.22911593243E+03  0.00000000000E+00 0. -1.
         -4   -1    0    0    0  501 -0.00000000000E+00 -0.00000000000E+00 -0.50810225427E+03  0.50810225427E+03  0.00000000000E+00 0.  1.
         23    2    1    2    0    0  0.37485498278E+02 -0.47910117319E+02 -0.47228198567E+03  0.48486019533E+03  0.91315897374E+02 0.  0.
        -24    2    1    2    0    0 -0.49955269358E+02  0.77847607049E+02  0.10980464151E+03  0.16278958572E+03  0.76730769981E+02 0.  0.
         13    1    4    4    0    0 -0.25760330721E+01  0.56281877218E+02  0.91794457199E+02  0.10770565455E+03  0.00000000000E+00 0. -1.
        -14    1    4    4    0    0 -0.47379236286E+02  0.21565729831E+02  0.18010184311E+02  0.55083931170E+02  0.00000000000E+00 0.  1.
        -13    1    3    3    0    0 -0.25277756697E+02  0.67775412301E+01 -0.12909936035E+03  0.13172526292E+03  0.00000000000E+00 0. -1.
         13    1    3    3    0    0  0.62763254975E+02 -0.54687658549E+02 -0.34318262531E+03  0.35313493241E+03  0.00000000000E+00 0.  1.
         21    1    1    2  502  501  0.12469771081E+02 -0.29937489731E+02  0.83491022321E+02  0.89568405648E+02  0.00000000000E+00 0.  1.
<scales pt_clust_5="13000.00000" pt_clust_6="13000.00000" pt_clust_7="13000.00000" pt_clust_8="13000.00000" pt_clust_9="32.43067"></scales>
<clustering>
<clus scale="   32.431">  1  9  2 -1</clus>
<clus scale="   76.731">  5  6 -1 -1</clus>
<clus scale="   91.316">  7  8 -1 -1</clus>
<clus scale="   98.782">  1  5  2 -1</clus>
<clus scale="   32.431">  1  5  2 -1</clus>
</clustering>
</event>
<event>
 9    1  0.2951046E-005  0.8920084E+02  0.7546771E-02  0.1308490E+00
          1   -1    0    0  502    0  0.00000000000E+00  0.00000000000E+00  0.59803716275E+03  0.59803716275E+03  0.00000000000E+00 0. -1.
         -2   -1    0    0    0  501 -0.00000000000E+00 -0.00000000000E+00 -0.32197942155E+02  0.32197942155E+02  0.00000000000E+00 0.  1.
         23    2    1    2    0    0 -0.59611610527E+01  0.24898612834E+02  0.52224210993E+02  0.10444326450E+03  0.86749933271E+02 0.  0.
        -24    2    1    2    0    0  0.64195400542E+01  0.57876842161E+01  0.39552155995E+03  0.40377576856E+03  0.80764219247E+02 0.  0.
         13    1    4    4    0    0 -0.36849699936E+02 -0.95505622580E+00  0.20483599816E+03  0.20812640068E+03  0.00000000000E+00 0. -1.
        -14    1    4    4    0    0  0.43269239990E+02  0.67427404419E+01  0.19068556179E+03  0.19564936788E+03  0.00000000000E+00 0.  1.
        -11    1    3    3    0    0  0.38944423830E+02  0.59516692683E+00  0.17536433607E+02  0.42714738379E+02  0.00000000000E+00 0.  1.
         11    1    3    3    0    0 -0.44905584883E+02  0.24303445907E+02  0.34687777386E+02  0.61728526117E+02  0.00000000000E+00 0. -1.
         21    1    1    2  502  501 -0.45837900153E+00 -0.30686297050E+02  0.11809344966E+03  0.12201607185E+03  0.00000000000E+00 0. -1.
<scales pt_clust_5="13000.00000" pt_clust_6="13000.00000" pt_clust_7="13000.00000" pt_clust_8="13000.00000" pt_clust_9="30.68972"></scales>
<clustering>
<clus scale="   30.690">  1  9  2 -1</clus>
<clus scale="   80.764">  5  6 -1 -1</clus>
<clus scale="   83.391">  1  5  2 -1</clus>
<clus scale="   86.750">  7  8 -1 -1</clus>
<clus scale="   30.690">  1  5  2 -1</clus>
</clustering>
</event>
<event>
 9    1  0.2951046E-005  0.1044202E+03  0.7546771E-02  0.1277467E+00
          1   -1    0    0  502    0  0.00000000000E+00  0.00000000000E+00  0.30421278859E+03  0.30421278859E+03  0.00000000000E+00 0. -1.
         -2   -1    0    0    0  501 -0.00000000000E+00 -0.00000000000E+00 -0.12205352322E+03  0.12205352322E+03  0.00000000000E+00 0.  1.
         23    2    1    2    0    0  0.24221380145E+02 -0.31090869997E+02  0.29136813047E+02  0.10683602639E+03  0.94929790939E+02 0.  0.
        -24    2    1    2    0    0  0.46001738009E+02  0.31216642107E+02  0.20793965923E+03  0.23028320607E+03  0.81858502777E+02 0.  0.
         11    1    4    4    0    0  0.16129834273E+01  0.23501428667E+02  0.73215977075E+01  0.24668292561E+02  0.00000000000E+00 0. -1.
        -12    1    4    4    0    0  0.44388754582E+02  0.77152134408E+01  0.20061806152E+03  0.20561491351E+03  0.00000000000E+00 0.  1.
        -11    1    3    3    0    0  0.31070733108E+02  0.28544722410E+02  0.17568375820E+02  0.45703823279E+02  0.00000000000E+00 0.  1.
         11    1    3    3    0    0 -0.68493529632E+01 -0.59635592407E+02  0.11568437228E+02  0.61132203114E+02  0.00000000000E+00 0. -1.
         21    1    1    2  502  501 -0.70223118154E+02 -0.12577211076E+00 -0.54917206905E+02  0.89147079347E+02  0.00000000000E+00 0.  1.
<scales pt_clust_5="13000.00000" pt_clust_6="13000.00000" pt_clust_7="13000.00000" pt_clust_8="13000.00000" pt_clust_9="70.22323"></scales>
<clustering>
<clus scale="   70.223">  2  9  1 -1</clus>
<clus scale="   81.859">  5  6 -1 -1</clus>
<clus scale="   92.697">  1  5  2 -1</clus>
<clus scale="   94.930">  7  8 -1 -1</clus>
<clus scale="   92.697">  1  5  2 -1</clus>
</clustering>
</event>
<event>
 9    1  0.2951046E-005  0.1863105E+03  0.7546771E-02  0.1163081E+00
         -2   -1    0    0    0  501 -0.00000000000E+00  0.00000000000E+00  0.57288911020E+02  0.57288911020E+02  0.00000000000E+00 0.  1.
          1   -1    0    0  502    0  0.00000000000E+00 -0.00000000000E+00 -0.15164015209E+04  0.15164015209E+04  0.00000000000E+00 0. -1.
        -24    2    1    2    0    0  0.62112264815E+02 -0.14493104702E+03 -0.12949908016E+03  0.21901472040E+03  0.79589535467E+02 0.  0.
         23    2    1    2    0    0 -0.10094024935E+03  0.16535636618E+03 -0.10446834184E+04  0.10663877056E+04  0.91036432978E+02 0.  0.
         11    1    3    3    0    0  0.66886891652E+02 -0.55853470156E+02 -0.70179068358E+02  0.11188640686E+03  0.00000000000E+00 0. -1.
        -12    1    3    3    0    0 -0.47746268368E+01 -0.89077576863E+02 -0.59320011806E+02  0.10712831354E+03  0.00000000000E+00 0.  1.
        -11    1    4    4    0    0  0.38718939769E+01  0.73076196157E+02 -0.30684231585E+03  0.31544782264E+03  0.00000000000E+00 0.  1.
         11    1    4    4    0    0 -0.10481214333E+03  0.92280170018E+02 -0.73784110258E+03  0.75093988296E+03  0.00000000000E+00 0. -1.
         21    1    1    2  502  501  0.38827984535E+02 -0.20425319156E+02 -0.28493011128E+03  0.28828800592E+03  0.00000000000E+00 0.  1.
<scales pt_clust_5="13000.00000" pt_clust_6="13000.00000" pt_clust_7="13000.00000" pt_clust_8="13000.00000" pt_clust_9="43.87261"></scales>
<clustering>
<clus scale="   43.873">  2  9  1 -1</clus>
<clus scale="   79.590">  5  6 -1 -1</clus>
<clus scale="   91.036">  7  8 -1 -1</clus>
<clus scale="  180.993">  1  5  2 -1</clus>
<clus scale="   43.873">  2  5  1 -1</clus>
</clustering>
</event>
<event>
 9    1  0.2951046E-005  0.1113176E+03  0.7546771E-02  0.1263695E+00
         -2   -1    0    0    0  501 -0.00000000000E+00  0.00000000000E+00  0.39692956268E+02  0.39692956268E+02  0.00000000000E+00 0.  1.
          1   -1    0    0  502    0  0.00000000000E+00 -0.00000000000E+00 -0.53580342273E+03  0.53580342273E+03  0.00000000000E+00 0. -1.
        -24    2    1    2    0    0  0.22444953496E+02 -0.37787027683E+02 -0.10585640852E+03  0.13937652533E+03  0.79300701068E+02 0.  0.
         23    2    1    2    0    0 -0.65745124396E+02  0.75743752303E+02 -0.26855073258E+03  0.30148212809E+03  0.93340453152E+02 0.  0.
         11    1    3    3    0    0  0.22884365923E+02 -0.58018967727E+02 -0.10077154675E+03  0.11851075670E+03  0.00000000000E+00 0. -1.
        -12    1    3    3    0    0 -0.43941242661E+00  0.20231940043E+02 -0.50848617692E+01  0.20865768627E+02  0.00000000000E+00 0.  1.
        -13    1    4    4    0    0 -0.89937596832E+02  0.59736266091E+02 -0.21436369715E+03  0.24001872316E+03  0.00000000000E+00 0.  1.
         13    1    4    4    0    0  0.24192472436E+02  0.16007486212E+02 -0.54187035427E+02  0.61463404932E+02  0.00000000000E+00 0. -1.
         21    1    1    2  502  501  0.43300170900E+02 -0.37956724620E+02 -0.12170332536E+03  0.13463772558E+03  0.00000000000E+00 0. -1.
<scales pt_clust_5="13000.00000" pt_clust_6="13000.00000" pt_clust_7="13000.00000" pt_clust_8="13000.00000" pt_clust_9="57.58140"></scales>
<clustering>
<clus scale="   57.581">  2  9  1 -1</clus>
<clus scale="   79.301">  5  6 -1 -1</clus>
<clus scale="   93.340">  7  8 -1 -1</clus>
<clus scale="   99.839">  1  5  2 -1</clus>
<clus scale="   57.581">  2  5  1 -1</clus>
</clustering>
</event>
<event>
 9    1  0.2951046E-005  0.1092309E+03  0.7546771E-02  0.1265582E+00
          3   -1    0    0  502    0  0.00000000000E+00  0.00000000000E+00  0.12172617644E+03  0.12172617644E+03  0.00000000000E+00 0. -1.
         -4   -1    0    0    0  501 -0.00000000000E+00 -0.00000000000E+00 -0.49693816700E+03  0.49693816700E+03  0.00000000000E+00 0.  1.
        -24    2    1    2    0    0 -0.30617376613E+02 -0.55865779105E+02 -0.45492121103E+03  0.46633779844E+03  0.80369303764E+02 0.  0.
         23    2    1    2    0    0  0.43951674567E+01  0.46776236569E+02  0.69753502911E+02  0.12284196685E+03  0.89539174922E+02 0.  0.
         13    1    3    3    0    0 -0.41658874288E+02  0.35424694480E+01 -0.20441870771E+03  0.20865047078E+03  0.00000000000E+00 0. -1.
        -14    1    3    3    0    0  0.11041497676E+02 -0.59408248553E+02 -0.25050250332E+03  0.25768732766E+03  0.00000000000E+00 0.  1.
        -11    1    4    4    0    0  0.28684892678E+02  0.10669038710E+02 -0.98241463077E+01  0.32142888881E+02  0.00000000000E+00 0.  1.
         11    1    4    4    0    0 -0.24289725221E+02  0.36107197859E+02  0.79577649219E+02  0.90699077965E+02  0.00000000000E+00 0. -1.
         21    1    1    2  502  501  0.26222209156E+02  0.90895425363E+01  0.99557175593E+01  0.29484578150E+02  0.00000000000E+00 0. -1.
<scales pt_clust_5="13000.00000" pt_clust_6="13000.00000" pt_clust_7="13000.00000" pt_clust_8="13000.00000" pt_clust_9="27.75291"></scales>
<clustering>
<clus scale="   27.753">  1  9  2 -1</clus>
<clus scale="   80.369">  5  6 -1 -1</clus>
<clus scale="   89.539">  7  8 -1 -1</clus>
<clus scale="  101.850">  2  5  1 -1</clus>
<clus scale="   27.753">  1  5  2 -1</clus>
</clustering>
</event>
<event>
 9    1  0.2951046E-005  0.1131241E+03  0.7546771E-02  0.1261879E+00
          3   -1    0    0  502    0  0.00000000000E+00  0.00000000000E+00  0.23623686917E+03  0.23623686917E+03  0.00000000000E+00 0. -1.
         -4   -1    0    0    0  501 -0.00000000000E+00 -0.00000000000E+00 -0.14128971366E+03  0.14128971366E+03  0.00000000000E+00 0.  1.
         23    2    1    2    0    0  0.33560546557E+00  0.71698783800E+02 -0.99700356347E+02  0.15236460430E+03  0.90188598832E+02 0.  0.
        -24    2    1    2    0    0  0.32221904248E+01 -0.50174921068E+02  0.12619838673E+03  0.15332036586E+03  0.71085839372E+02 0.  0.
         13    1    4    4    0    0  0.18937681797E+02 -0.63611587581E+02  0.97680331859E+02  0.11809537289E+03  0.00000000000E+00 0. -1.
        -14    1    4    4    0    0 -0.15715491372E+02  0.13436666513E+02  0.28518054874E+02  0.35224992972E+02  0.00000000000E+00 0.  1.
        -11    1    3    3    0    0  0.19995541428E+02  0.43767055714E+02 -0.12253221142E+01  0.48133961577E+02  0.00000000000E+00 0. -1.
         11    1    3    3    0    0 -0.19659935962E+02  0.27931728086E+02 -0.98475034233E+02  0.10423064273E+03  0.00000000000E+00 0.  1.
         21    1    1    2  502  501 -0.35577958904E+01 -0.21523862732E+02  0.68449125128E+02  0.71841612658E+02  0.00000000000E+00 0. -1.
<scales pt_clust_5="13000.00000" pt_clust_6="13000.00000" pt_clust_7="13000.00000" pt_clust_8="13000.00000" pt_clust_9="21.81592"></scales>
<clustering>
<clus scale="   21.816">  1  9  2 -1</clus>
<clus scale="   71.086">  5  6 -1 -1</clus>
<clus scale="   90.189">  7  8 -1 -1</clus>
<clus scale="   98.571">  1  5  2 -1</clus>
<clus scale="   21.816">  1  5  2 -1</clus>
</clustering>
</event>
<event>
 9    1  0.2951046E-005  0.1062793E+03  0.7546771E-02  0.1272984E+00
         -2   -1    0    0    0  501 -0.00000000000E+00  0.00000000000E+00  0.15629925301E+03  0.15629925301E+03  0.00000000000E+00 0.  1.
          1   -1    0    0  502    0  0.00000000000E+00 -0.00000000000E+00 -0.16178896428E+03  0.16178896428E+03  0.00000000000E+00 0. -1.
         23    2    1    2    0    0  0.44235598196E+02 -0.41234522595E+01  0.52026716590E+02  0.11445307130E+03  0.91754756201E+02 0.  0.
        -24    2    1    2    0    0 -0.63613237907E+02 -0.28256817150E+02  0.28789643658E+02  0.10944006783E+03  0.79392651503E+02 0.  0.
         13    1    4    4    0    0 -0.32874775371E+02 -0.11528587643E+02 -0.26661712360E+02  0.43869193003E+02  0.00000000000E+00 0. -1.
        -14    1    4    4    0    0 -0.30738462536E+02 -0.16728229507E+02  0.55451356019E+02  0.65570874829E+02  0.00000000000E+00 0.  1.
        -13    1    3    3    0    0  0.29424567116E+02  0.33189033193E+02  0.58891237836E+02  0.73725809376E+02  0.00000000000E+00 0. -1.
         13    1    3    3    0    0  0.14811031080E+02 -0.37312485452E+02 -0.68645212461E+01  0.40727261929E+02  0.00000000000E+00 0.  1.
         21    1    1    2  502  501  0.19377639711E+02  0.32380269410E+02 -0.86306071515E+02  0.94195078152E+02  0.00000000000E+00 0.  1.
<scales pt_clust_5="13000.00000" pt_clust_6="13000.00000" pt_clust_7="13000.00000" pt_clust_8="13000.00000" pt_clust_9="37.73559"></scales>
<clustering>
<clus scale="   37.736">  2  9  1 -1</clus>
<clus scale="   79.393">  5  6 -1 -1</clus>
<clus scale="   91.755">  7  8 -1 -1</clus>
<clus scale="   95.810">  2  5  1 -1</clus>
<clus scale="   37.736">  2  5  1 -1</clus>
</clustering>
</event>
<event>
 9    1  0.2951046E-005  0.9670842E+02  0.7546771E-02  0.1296406E+00
          1   -1    0    0  502    0  0.00000000000E+00  0.00000000000E+00  0.12457142620E+03  0.12457142620E+03  0.00000000000E+00 0. -1.
         -2   -1    0    0    0  501 -0.00000000000E+00 -0.00000000000E+00 -0.15208678596E+03  0.15208678596E+03  0.00000000000E+00 0.  1.
        -24    2    1    2    0    0 -0.16706456873E+02  0.13873176082E+02 -0.10305651159E+03  0.13207964548E+03  0.79704563554E+02 0.  0.
         23    2    1    2    0    0 -0.91824790258E+01 -0.51303958250E+01  0.54173829369E+02  0.10989087898E+03  0.95029272391E+02 0.  0.
         13    1    3    3    0    0  0.14486369134E+02  0.30029634422E+02 -0.87544427123E+02  0.93678495689E+02  0.00000000000E+00 0. -1.
        -14    1    3    3    0    0 -0.31192826007E+02 -0.16156458340E+02 -0.15512084472E+02  0.38401149788E+02  0.00000000000E+00 0.  1.
        -13    1    4    4    0    0 -0.66529083131E+00 -0.47759746886E+02  0.11836125570E+02  0.49209042899E+02  0.00000000000E+00 0.  1.
         13    1    4    4    0    0 -0.85171881945E+01  0.42629351061E+02  0.42337703799E+02  0.60681836077E+02  0.00000000000E+00 0. -1.
         21    1    1    2  502  501  0.25888935899E+02 -0.87427802573E+01  0.21367322470E+02  0.34687687702E+02  0.00000000000E+00 0. -1.
<scales pt_clust_5="13000.00000" pt_clust_6="13000.00000" pt_clust_7="13000.00000" pt_clust_8="13000.00000" pt_clust_9="27.32532"></scales>
<clustering>
<clus scale="   27.325">  1  9  2 -1</clus>
<clus scale="   79.705">  5  6 -1 -1</clus>
<clus scale="   81.699">  2  5  1 -1</clus>
<clus scale="   95.029">  7  8 -1 -1</clus>
<clus scale="   27.325">  1  5  2 -1</clus>
</clustering>
</event>
<event>
 9    1  0.2951046E-005  0.1150091E+03  0.7546771E-02  0.1254912E+00
         -4   -1    0    0    0  501 -0.00000000000E+00  0.00000000000E+00  0.22794803550E+02  0.22794803550E+02  0.00000000000E+00 0.  1.
          3   -1    0    0  502    0  0.00000000000E+00 -0.00000000000E+00 -0.92334084868E+03  0.92334084868E+03  0.00000000000E+00 0. -1.
        -24    2    1    2    0    0  0.69440035114E+02 -0.21219310708E+02 -0.16064268468E+03  0.19361180081E+03  0.80045484872E+02 0.  0.
         23    2    1    2    0    0 -0.71949329621E+02  0.41369349421E+00 -0.58424898796E+03  0.59546509190E+03  0.89749198124E+02 0.  0.
         11    1    3    3    0    0  0.76671383715E+02 -0.38227458933E+02 -0.10822109280E+03  0.13802769514E+03  0.00000000000E+00 0. -1.
        -12    1    3    3    0    0 -0.72313486008E+01  0.17008148226E+02 -0.52421591877E+02  0.55584105674E+02  0.00000000000E+00 0.  1.
        -11    1    4    4    0    0 -0.23500730211E+02 -0.43583900436E+02 -0.26186478352E+03  0.26650516983E+03  0.00000000000E+00 0. -1.
         11    1    4    4    0    0 -0.48448599411E+02  0.43997593930E+02 -0.32238420444E+03  0.32895992207E+03  0.00000000000E+00 0.  1.
         21    1    1    2  502  501  0.25092945071E+01  0.20805617213E+02 -0.15565437249E+03  0.15705875952E+03  0.00000000000E+00 0. -1.
<scales pt_clust_5="13000.00000" pt_clust_6="13000.00000" pt_clust_7="13000.00000" pt_clust_8="13000.00000" pt_clust_9="20.95639"></scales>
<clustering>
<clus scale="   20.956">  2  9  1 -1</clus>
<clus scale="   80.045">  5  6 -1 -1</clus>
<clus scale="   89.749">  7  8 -1 -1</clus>
<clus scale="  107.608">  1  5  2 -1</clus>
<clus scale="   20.956">  2  5  1 -1</clus>
</clustering>
</event>
<event>
 9    1  0.2951046E-005  0.9346467E+02  0.7546771E-02  0.1298802E+00
         -2   -1    0    0    0  501 -0.00000000000E+00  0.00000000000E+00  0.13580650428E+03  0.13580650428E+03  0.00000000000E+00 0.  1.
          1   -1    0    0  502    0  0.00000000000E+00 -0.00000000000E+00 -0.15155309014E+03  0.15155309014E+03  0.00000000000E+00 0. -1.
         23    2    1    2    0    0 -0.30144845790E+02  0.67097219950E+01  0.92755794184E+02  0.13221145080E+03  0.89008416849E+02 0.  0.
        -24    2    1    2    0    0  0.10766499988E+02 -0.15590119269E+02 -0.10351591421E+03  0.13325644238E+03  0.81748184084E+02 0.  0.
         11    1    4    4    0    0  0.29951709289E+02 -0.32440433092E+02 -0.97487477040E+02  0.10702006713E+03  0.00000000000E+00 0. -1.
        -12    1    4    4    0    0 -0.19185209301E+02  0.16850313823E+02 -0.60284371720E+01  0.26236375256E+02  0.00000000000E+00 0.  1.
        -11    1    3    3    0    0 -0.63340900750E+01  0.45719621182E+02  0.61283089383E+02  0.76720411250E+02  0.00000000000E+00 0.  1.
         11    1    3    3    0    0 -0.23810755715E+02 -0.39009899187E+02  0.31472704801E+02  0.55491039545E+02  0.00000000000E+00 0. -1.
         21    1    1    2  502  501  0.19378345802E+02  0.88803972742E+01 -0.49864658368E+01  0.21891701243E+02  0.00000000000E+00 0.  1.
<scales pt_clust_5="13000.00000" pt_clust_6="13000.00000" pt_clust_7="13000.00000" pt_clust_8="13000.00000" pt_clust_9="21.31623"></scales>
<clustering>
<clus scale="   21.316">  2  9  1 -1</clus>
<clus scale="   81.748">  5  6 -1 -1</clus>
<clus scale="   86.579">  2  5  1 -1</clus>
<clus scale="   89.008">  7  8 -1 -1</clus>
<clus scale="   21.316">  2  5  1 -1</clus>
</clustering>
</event>
<event>
 9    1  0.2951046E-005  0.9888885E+02  0.7546771E-02  0.1287494E+00
          1   -1    0    0  502    0  0.00000000000E+00  0.00000000000E+00  0.12926883045E+03  0.12926883045E+03  0.00000000000E+00 0. -1.
         -2   -1    0    0    0  501 -0.00000000000E+00 -0.00000000000E+00 -0.19755223084E+03  0.19755223084E+03  0.00000000000E+00 0.  1.
        -24    2    1    2    0    0  0.64129604308E+02  0.11128492388E+02 -0.13395236946E+03  0.16907487108E+03  0.80041397129E+02 0.  0.
         23    2    1    2    0    0 -0.37869238754E+02 -0.47404826273E+01  0.80957280769E+02  0.12669549066E+03  0.89672262297E+02 0.  0.
         13    1    3    3    0    0  0.61380201210E+02 -0.69149978739E+01 -0.40511918199E+02  0.73868544133E+02  0.00000000000E+00 0. -1.
        -14    1    3    3    0    0  0.27494030983E+01  0.18043490262E+02 -0.93440451265E+02  0.95206326947E+02  0.00000000000E+00 0.  1.
        -13    1    4    4    0    0 -0.19747487501E+02 -0.45245837806E+02  0.25174453926E+02  0.55415721883E+02  0.00000000000E+00 0.  1.
         13    1    4    4    0    0 -0.18121751253E+02  0.40505355179E+02  0.55782826844E+02  0.71279768780E+02  0.00000000000E+00 0. -1.
         21    1    1    2  502  501 -0.26260365554E+02 -0.63880097608E+01 -0.15288311699E+02  0.31050699547E+02  0.00000000000E+00 0. -1.
<scales pt_clust_5="13000.00000" pt_clust_6="13000.00000" pt_clust_7="13000.00000" pt_clust_8="13000.00000" pt_clust_9="27.02616"></scales>
<clustering>
<clus scale="   27.026">  2  9  1 -1</clus>
<clus scale="   80.041">  5  6 -1 -1</clus>
<clus scale="   89.672">  7  8 -1 -1</clus>
<clus scale="   90.247">  2  5  1 -1</clus>
<clus scale="   98.889">  1  5  2 -1</clus>
</clustering>
</event>
<event>
 9    1  0.2951046E-005  0.1101379E+03  0.7546771E-02  0.1260654E+00
          1   -1    0    0  502    0  0.00000000000E+00  0.00000000000E+00  0.30057858139E+03  0.30057858139E+03  0.00000000000E+00 0. -1.
         -2   -1    0    0    0  501 -0.00000000000E+00 -0.00000000000E+00 -0.29500306993E+03  0.29500306993E+03  0.00000000000E+00 0.  1.
        -24    2    1    2    0    0 -0.63567287781E+02 -0.19710540064E+02 -0.26312980502E+03  0.28610144786E+03  0.90484466698E+02 0.  0.
         23    2    1    2    0    0  0.56779229161E+01 -0.55893518568E+01  0.16899175884E+03  0.19143759813E+03  0.89591627715E+02 0.  0.
         13    1    3    3    0    0 -0.41033919876E+02  0.16943212945E+01 -0.29875729755E+02  0.50785948189E+02  0.00000000000E+00 0. -1.
        -14    1    3    3    0    0 -0.22533367905E+02 -0.21404861358E+02 -0.23325407526E+03  0.23531549967E+03  0.00000000000E+00 0.  1.
        -13    1    4    4    0    0 -0.70590419845E+01 -0.46374239936E+02  0.96332664869E+02  0.10714654695E+03  0.00000000000E+00 0.  1.
         13    1    4    4    0    0  0.12736964901E+02  0.40784888080E+02  0.72659093975E+02  0.84291051173E+02  0.00000000000E+00 0. -1.
         21    1    1    2  502  501  0.57889364865E+02  0.25299891921E+02  0.99713557641E+02  0.11804260533E+03  0.00000000000E+00 0.  1.
<scales pt_clust_5="13000.00000" pt_clust_6="13000.00000" pt_clust_7="13000.00000" pt_clust_8="13000.00000" pt_clust_9="63.17644"></scales>
<clustering>
<clus scale="   63.176">  1  9  2 -1</clus>
<clus scale="   89.592">  7  8 -1 -1</clus>
<clus scale="   90.484">  5  6 -1 -1</clus>
<clus scale="  109.406">  1  7  2 -1</clus>
<clus scale="   63.176">  1  5  2 -1</clus>
</clustering>
</event>
<event>
 9    1  0.2951046E-005  0.1595848E+03  0.7546771E-02  0.1219247E+00
          1   -1    0    0  502    0  0.00000000000E+00  0.00000000000E+00  0.81362260778E+03  0.81362260778E+03  0.00000000000E+00 0. -1.
         -2   -1    0    0    0  501 -0.00000000000E+00 -0.00000000000E+00 -0.11823129611E+03  0.11823129611E+03  0.00000000000E+00 0.  1.
        -24    2    1    2    0    0  0.17332391061E+02 -0.91818364466E+01 -0.66514027331E+02  0.10668639875E+03  0.81074989642E+02 0.  0.
         23    2    1    2    0    0 -0.17742260697E+02 -0.12800550835E+03  0.55489254871E+03  0.57682332681E+03  0.90106668752E+02 0.  0.
         11    1    3    3    0    0  0.47533574906E+02 -0.16976932544E+02 -0.30213379251E+02  0.58826059427E+02  0.00000000000E+00 0. -1.
        -12    1    3    3    0    0 -0.30201183845E+02  0.77950960971E+01 -0.36300648080E+02  0.47860339320E+02  0.00000000000E+00 0.  1.
        -11    1    4    4    0    0 -0.45007198450E+02 -0.36164611583E+02  0.27479604054E+03  0.28079599523E+03  0.00000000000E+00 0.  1.
         11    1    4    4    0    0  0.27264937753E+02 -0.91840896768E+02  0.28009650817E+03  0.29602733158E+03  0.00000000000E+00 0. -1.
         21    1    1    2  502  501  0.40986963623E+00  0.13718734480E+03  0.20701279029E+03  0.24834417833E+03  0.00000000000E+00 0. -1.
<scales pt_clust_5="13000.00000" pt_clust_6="13000.00000" pt_clust_7="13000.00000" pt_clust_8="13000.00000" pt_clust_9="131.71223"></scales>
<clustering>
<clus scale="   81.075">  5  6 -1 -1</clus>
<clus scale="   83.414">  2  5  1 -1</clus>
<clus scale="   90.107">  7  8 -1 -1</clus>
<clus scale="  131.712">  2  9  1 -1</clus>
<clus scale="  159.585">  1  5  2 -1</clus>
</clustering>
</event>
<event>
 9    1  0.2951046E-005  0.1522120E+03  0.7546771E-02  0.1200850E+00
         -2   -1    0    0    0  501 -0.00000000000E+00  0.00000000000E+00  0.58846637882E+02  0.58846637882E+02  0.00000000000E+00 0.  1.
          1   -1    0    0  502    0  0.00000000000E+00 -0.00000000000E+00 -0.66524725466E+03  0.66524725466E+03  0.00000000000E+00 0. -1.
         23    2    1    2    0    0  0.69178391609E+02  0.95109159234E+02 -0.83421969724E+02  0.17313236917E+03  0.95834180681E+02 0.  0.
        -24    2    1    2    0    0 -0.90294171010E+02 -0.82969425783E+02 -0.47801237458E+03  0.49982235122E+03  0.79306932830E+02 0.  0.
         11    1    4    4    0    0 -0.44433047346E+02 -0.72213915478E+02 -0.39836082120E+03  0.40728428543E+03  0.00000000000E+00 0. -1.
        -12    1    4    4    0    0 -0.45861123664E+02 -0.10755510305E+02 -0.79651553375E+02  0.92538065793E+02  0.00000000000E+00 0.  1.
        -13    1    3    3    0    0  0.92641995182E+02  0.71581159921E+02 -0.54749220192E+02  0.12924348664E+03  0.00000000000E+00 0.  1.
         13    1    3    3    0    0 -0.23463603573E+02  0.23527999313E+02 -0.28672749532E+02  0.43888882533E+02  0.00000000000E+00 0. -1.
         21    1    1    2  502  501  0.21115779401E+02 -0.12139733451E+02 -0.44966272477E+02  0.51139172153E+02  0.00000000000E+00 0. -1.
<scales pt_clust_5="13000.00000" pt_clust_6="13000.00000" pt_clust_7="13000.00000" pt_clust_8="13000.00000" pt_clust_9="24.35671"></scales>
<clustering>
<clus scale="   24.357">  2  9  1 -1</clus>
<clus scale="   79.307">  5  6 -1 -1</clus>
<clus scale="   95.834">  7  8 -1 -1</clus>
<clus scale="  142.386">  2  5  1 -1</clus>
<clus scale="   24.357">  2  5  1 -1</clus>
</clustering>
</event>
<event>
 9    1  0.2951046E-005  0.1968797E+03  0.7546771E-02  0.1191069E+00
          1   -1    0    0  502    0  0.00000000000E+00  0.00000000000E+00  0.10331113374E+04  0.10331113374E+04  0.00000000000E+00 0. -1.
         -2   -1    0    0    0  501 -0.00000000000E+00 -0.00000000000E+00 -0.58495689569E+02  0.58495689569E+02  0.00000000000E+00 0.  1.
        -24    2    1    2    0    0 -0.86278588976E+01 -0.28131491359E+01  0.58301251568E+02  0.10019896623E+03  0.80984215382E+02 0.  0.
         23    2    1    2    0    0 -0.50825806251E+02 -0.14708441549E+03  0.32334815864E+03  0.37690584176E+03  0.11526879019E+03 0.  0.
         13    1    3    3    0    0  0.34847968385E+02 -0.70408661562E+01  0.37976965556E+02  0.52021193851E+02  0.00000000000E+00 0. -1.
        -14    1    3    3    0    0 -0.43475827283E+02  0.42277170202E+01  0.20324286012E+02  0.48177772375E+02  0.00000000000E+00 0.  1.
        -11    1    4    4    0    0 -0.27540332769E+02 -0.64209907686E+02  0.26211155297E+03  0.27126342985E+03  0.00000000000E+00 0. -1.
         11    1    4    4    0    0 -0.23285473482E+02 -0.82874507806E+02  0.61236605672E+02  0.10564241191E+03  0.00000000000E+00 0.  1.
         21    1    1    2  502  501  0.59453665149E+02  0.14989756463E+03  0.59296623763E+03  0.61450221900E+03  0.00000000000E+00 0. -1.
<scales pt_clust_5="13000.00000" pt_clust_6="13000.00000" pt_clust_7="13000.00000" pt_clust_8="13000.00000" pt_clust_9="159.60797"></scales>
<clustering>
<clus scale="   80.984">  5  6 -1 -1</clus>
<clus scale="   81.491">  2  5  1 -1</clus>
<clus scale="  115.269">  7  8 -1 -1</clus>
<clus scale="  159.608">  1  9  2 -1</clus>
<clus scale="  159.608">  1  5  2 -1</clus>
</clustering>
</event>
<event>
 9    1  0.2951046E-005  0.1126269E+03  0.7546771E-02  0.1261608E+00
          1   -1    0    0  502    0  0.00000000000E+00  0.00000000000E+00  0.26719441356E+03  0.26719441356E+03  0.00000000000E+00 0. -1.
         -2   -1    0    0    0  501 -0.00000000000E+00 -0.00000000000E+00 -0.11670411697E+03  0.11670411697E+03  0.00000000000E+00 0.  1.
         23    2    1    2    0    0  0.19995701804E+02  0.49677018499E+02 -0.43675278236E+02  0.11675672840E+03  0.94111473475E+02 0.  0.
        -24    2    1    2    0    0 -0.45306939471E+02 -0.72035330782E+02  0.63942451112E+02  0.13261070970E+03  0.79089541842E+02 0.  0.
         13    1    4    4    0    0  0.20577853782E+02 -0.44534509178E+01  0.17712906243E+02  0.27514147977E+02  0.00000000000E+00 0. -1.
        -14    1    4    4    0    0 -0.65884793253E+02 -0.67581879864E+02  0.46229544869E+02  0.10509656173E+03  0.00000000000E+00 0.  1.
        -13    1    3    3    0    0 -0.11818370724E+02  0.22540226039E+02 -0.65009085206E+02  0.69813443088E+02  0.00000000000E+00 0.  1.
         13    1    3    3    0    0  0.31814072528E+02  0.27136792461E+02  0.21333806970E+02  0.46943285310E+02  0.00000000000E+00 0. -1.
         21    1    1    2  502  501  0.25311237667E+02  0.22358312283E+02  0.13022312371E+03  0.13453109243E+03  0.00000000000E+00 0. -1.
<scales pt_clust_5="13000.00000" pt_clust_6="13000.00000" pt_clust_7="13000.00000" pt_clust_8="13000.00000" pt_clust_9="33.77207"></scales>
<clustering>
<clus scale="   33.772">  1  9  2 -1</clus>
<clus scale="   79.090">  5  6 -1 -1</clus>
<clus scale="   94.111">  7  8 -1 -1</clus>
<clus scale="  100.414">  1  5  2 -1</clus>
<clus scale="   33.772">  1  5  2 -1</clus>
</clustering>
</event>
<event>
 9    1  0.2951046E-005  0.1186496E+03  0.7546771E-02  0.1252243E+00
          1   -1    0    0  502    0  0.00000000000E+00  0.00000000000E+00  0.11949370154E+04  0.11949370154E+04  0.00000000000E+00 0. -1.
         -2   -1    0    0    0  501 -0.00000000000E+00 -0.00000000000E+00 -0.13534428471E+03  0.13534428471E+03  0.00000000000E+00 0.  1.
         23    2    1    2    0    0 -0.38327833209E+02  0.65786278605E+02 -0.10375916761E+03  0.15850172713E+03  0.92520135046E+02 0.  0.
        -24    2    1    2    0    0  0.84114880366E+01 -0.15516958869E+02  0.83386000786E+03  0.83713513768E+03  0.71841470495E+02 0.  0.
         13    1    4    4    0    0 -0.14482003046E+02 -0.15523019666E+02  0.75453728965E+02  0.78383402366E+02  0.00000000000E+00 0. -1.
        -14    1    4    4    0    0  0.22893491083E+02  0.60607974020E-02  0.75840627890E+03  0.75875173531E+03  0.00000000000E+00 0.  1.
        -11    1    3    3    0    0 -0.20877995346E+02  0.49384315526E+01 -0.91555486287E+02  0.94035556387E+02  0.00000000000E+00 0. -1.
         11    1    3    3    0    0 -0.17449837864E+02  0.60847847052E+02 -0.12203681323E+02  0.64466170742E+02  0.00000000000E+00 0.  1.
         21    1    1    2  502  501  0.29916345173E+02 -0.50269319736E+02  0.32949189044E+03  0.33464443531E+03  0.00000000000E+00 0. -1.
<scales pt_clust_5="13000.00000" pt_clust_6="13000.00000" pt_clust_7="13000.00000" pt_clust_8="13000.00000" pt_clust_9="58.49780"></scales>
<clustering>
<clus scale="   58.498">  1  9  2 -1</clus>
<clus scale="   71.841">  5  6 -1 -1</clus>
<clus scale="   92.520">  7  8 -1 -1</clus>
<clus scale="  103.339">  1  5  2 -1</clus>
<clus scale="   58.498">  1  5  2 -1</clus>
</clustering>
</event>
<event>
 9    1  0.2951046E-005  0.1717341E+03  0.7546771E-02  0.1178326E+00
         -2   -1    0    0    0  501 -0.00000000000E+00  0.00000000000E+00  0.13777339056E+03  0.13777339056E+03  0.00000000000E+00 0.  1.
          1   -1    0    0  502    0  0.00000000000E+00 -0.00000000000E+00 -0.49240140381E+03  0.49240140381E+03  0.00000000000E+00 0. -1.
        -24    2    1    2    0    0  0.12249791845E+03 -0.80634179261E+02  0.60067258763E+02  0.17527949867E+03  0.74881347417E+02 0.  0.
         23    2    1    2    0    0 -0.12191396689E+03  0.57042926433E+02 -0.36988437100E+03  0.40425040397E+03  0.92125080293E+02 0.  0.
         13    1    3    3    0    0  0.44681136543E+02 -0.48975553250E+02 -0.85028289372E+01  0.66837914979E+02  0.00000000000E+00 0. -1.
        -14    1    3    3    0    0  0.77816781906E+02 -0.31658626011E+02  0.68570087700E+02  0.10844158369E+03  0.00000000000E+00 0.  1.
        -11    1    4    4    0    0 -0.13519955582E+02  0.37432735626E+02 -0.18334778951E+03  0.18761772521E+03  0.00000000000E+00 0.  1.
         11    1    4    4    0    0 -0.10839401131E+03  0.19610190808E+02 -0.18653658149E+03  0.21663267876E+03  0.00000000000E+00 0. -1.
         21    1    1    2  502  501 -0.58395155635E+00  0.23591252827E+02 -0.44810901010E+02  0.50644891734E+02  0.00000000000E+00 0.  1.
<scales pt_clust_5="13000.00000" pt_clust_6="13000.00000" pt_clust_7="13000.00000" pt_clust_8="13000.00000" pt_clust_9="23.59848"></scales>
<clustering>
<clus scale="   23.598">  2  9  1 -1</clus>
<clus scale="   74.881">  5  6 -1 -1</clus>
<clus scale="   92.125">  7  8 -1 -1</clus>
<clus scale="  163.134">  1  5  2 -1</clus>
<clus scale="   23.598">  2  5  1 -1</clus>
</clustering>
</event>
<event>
 9    1  0.2951046E-005  0.1654695E+03  0.7546771E-02  0.1183912E+00
         -2   -1    0    0    0  501 -0.00000000000E+00  0.00000000000E+00  0.11768153168E+03  0.11768153168E+03  0.00000000000E+00 0.  1.
          1   -1    0    0  502    0  0.00000000000E+00 -0.00000000000E+00 -0.52570454382E+03  0.52570454382E+03  0.00000000000E+00 0. -1.
         23    2    1    2    0    0  0.88338907175E+02 -0.98268222294E+02  0.18322241451E+02  0.16316681445E+03  0.93953705466E+02 0.  0.
        -24    2    1    2    0    0 -0.85847679057E+02  0.12891754849E+03 -0.28432534654E+03  0.33490841695E+03  0.85634027987E+02 0.  0.
         11    1    4    4    0    0 -0.64341207199E+02  0.13904131937E+03 -0.24703443013E+03  0.29068589424E+03  0.00000000000E+00 0. -1.
        -12    1    4    4    0    0 -0.21506471858E+02 -0.10123770880E+02 -0.37290916405E+02  0.44222522711E+02  0.00000000000E+00 0.  1.
        -13    1    3    3    0    0  0.69113720680E+02 -0.98396571989E+01  0.20128330200E+02  0.72654489997E+02  0.00000000000E+00 0. -1.
         13    1    3    3    0    0  0.19225186495E+02 -0.88428565095E+02 -0.18060887491E+01  0.90512324449E+02  0.00000000000E+00 0.  1.
         21    1    1    2  502  501 -0.24912281181E+01 -0.30649326201E+02 -0.14201990706E+03  0.14531084410E+03  0.00000000000E+00 0.  1.
<scales pt_clust_5="13000.00000" pt_clust_6="13000.00000" pt_clust_7="13000.00000" pt_clust_8="13000.00000" pt_clust_9="30.75041"></scales>
<clustering>
<clus scale="   30.750">  2  9  1 -1</clus>
<clus scale="   85.634">  5  6 -1 -1</clus>
<clus scale="   93.954">  7  8 -1 -1</clus>
<clus scale="  160.891">  2  5  1 -1</clus>
<clus scale="   30.750">  2  5  1 -1</clus>
</clustering>
</event>
<event>
 9    1  0.2951046E-005  0.9645328E+02  0.7546771E-02  0.1294960E+00
          3   -1    0    0  502    0  0.00000000000E+00  0.00000000000E+00  0.37147940704E+03  0.37147940704E+03  0.00000000000E+00 0. -1.
         -4   -1    0    0    0  501 -0.00000000000E+00 -0.00000000000E+00 -0.76027719036E+02  0.76027719036E+02  0.00000000000E+00 0.  1.
        -24    2    1    2    0    0 -0.27929955587E+02  0.26214502890E+02 -0.20111636657E+02  0.89209774516E+02  0.78016814594E+02 0.  0.
         23    2    1    2    0    0  0.31670460669E+02  0.26963116954E+02  0.12256569702E+03  0.15807264054E+03  0.90744596779E+02 0.  0.
         11    1    3    3    0    0  0.22987454874E+02 -0.93001433376E+01 -0.45821499164E+01  0.25217292589E+02  0.00000000000E+00 0. -1.
        -12    1    3    3    0    0 -0.50917410461E+02  0.35514646228E+02 -0.15529486740E+02  0.63992481927E+02  0.00000000000E+00 0.  1.
        -13    1    4    4    0    0 -0.31202198304E+02  0.90879127086E+01  0.26786586259E+02  0.42115181821E+02  0.00000000000E+00 0.  1.
         13    1    4    4    0    0  0.62872658972E+02  0.17875204245E+02  0.95779110766E+02  0.11595745872E+03  0.00000000000E+00 0. -1.
         21    1    1    2  502  501 -0.37405050814E+01 -0.53177619844E+02  0.19299762764E+03  0.20022471102E+03  0.00000000000E+00 0.  1.
<scales pt_clust_5="13000.00000" pt_clust_6="13000.00000" pt_clust_7="13000.00000" pt_clust_8="13000.00000" pt_clust_9="53.30901"></scales>
<clustering>
<clus scale="   53.309">  1  9  2 -1</clus>
<clus scale="   78.017">  5  6 -1 -1</clus>
<clus scale="   84.589">  2  5  1 -1</clus>
<clus scale="   90.745">  7  8 -1 -1</clus>
<clus scale="   53.309">  1  5  2 -1</clus>
</clustering>
</event>
<event>
 9    1  0.2951046E-005  0.1646957E+03  0.7546771E-02  0.1195577E+00
          1   -1    0    0  502    0  0.00000000000E+00  0.00000000000E+00  0.37550356815E+02  0.37550356815E+02  0.00000000000E+00 0. -1.
         -2   -1    0    0    0  501 -0.00000000000E+00 -0.00000000000E+00 -0.69442221163E+03  0.69442221163E+03  0.00000000000E+00 0.  1.
        -24    2    1    2    0    0 -0.80766633897E+02 -0.64207043231E+02 -0.24039457479E+03  0.26856117526E+03  0.60743392356E+02 0.  0.
         23    2    1    2    0    0  0.78624496262E+02  0.92399474334E+02 -0.38066679377E+03  0.41778472499E+03  0.12213678514E+03 0.  0.
         11    1    3    3    0    0 -0.16806177454E+02 -0.50458942625E+02 -0.89753968870E+02  0.10432798004E+03  0.00000000000E+00 0. -1.
        -12    1    3    3    0    0 -0.63960456443E+02 -0.13748100606E+02 -0.15064060592E+03  0.16423319522E+03  0.00000000000E+00 0.  1.
        -13    1    4    4    0    0  0.22853275795E+02  0.35319632308E+02 -0.16848501744E+02  0.45316891464E+02  0.00000000000E+00 0. -1.
         13    1    4    4    0    0  0.55771220467E+02  0.57079842026E+02 -0.36381829202E+03  0.37246783352E+03  0.00000000000E+00 0.  1.
         21    1    1    2  502  501  0.21421376347E+01 -0.28192431103E+02 -0.35810486251E+02  0.45626668196E+02  0.00000000000E+00 0. -1.
<scales pt_clust_5="13000.00000" pt_clust_6="13000.00000" pt_clust_7="13000.00000" pt_clust_8="13000.00000" pt_clust_9="28.27370"></scales>
<clustering>
<clus scale="   28.274">  1  9  2 -1</clus>
<clus scale="   60.743">  5  6 -1 -1</clus>
<clus scale="  122.137">  7  8 -1 -1</clus>
<clus scale="  126.083">  2  5  1 -1</clus>
<clus scale="   28.274">  1  5  2 -1</clus>
</clustering>
</event>
<event>
 9    1  0.2951046E-005  0.1217867E+03  0.7546771E-02  0.1243377E+00
          1   -1    0    0  502    0  0.00000000000E+00  0.00000000000E+00  0.28153302497E+03  0.28153302497E+03  0.00000000000E+00 0. -1.
         -2   -1    0    0    0  501 -0.00000000000E+00 -0.00000000000E+00 -0.41062938725E+03  0.41062938725E+03  0.00000000000E+00 0.  1.
        -24    2    1    2    0    0  0.81322302653E+02  0.27677797498E+01 -0.38403559084E+03  0.40073558020E+03  0.80527589659E+02 0.  0.
         23    2    1    2    0    0 -0.68583248103E+02 -0.21435832562E+02  0.18925544112E+03  0.22196360694E+03  0.91033312445E+02 0.  0.
         13    1    3    3    0    0  0.40634372616E+02 -0.38204642973E+02 -0.21467358284E+03  0.22180057293E+03  0.00000000000E+00 0. -1.
        -14    1    3    3    0    0  0.40687930037E+02  0.40972422723E+02 -0.16936200800E+03  0.17893500727E+03  0.00000000000E+00 0.  1.
        -11    1    4    4    0    0 -0.20703308071E+02 -0.29273984931E+02  0.16280128185E+03  0.16670288099E+03  0.00000000000E+00 0. -1.
         11    1    4    4    0    0 -0.47879940031E+02  0.78381523695E+01  0.26454159274E+02  0.55260725953E+02  0.00000000000E+00 0.  1.
         21    1    1    2  502  501 -0.12739054550E+02  0.18668052812E+02  0.65683787437E+02  0.69463225081E+02  0.00000000000E+00 0. -1.
<scales pt_clust_5="13000.00000" pt_clust_6="13000.00000" pt_clust_7="13000.00000" pt_clust_8="13000.00000" pt_clust_9="22.60044"></scales>
<clustering>
<clus scale="   22.600">  1  9  2 -1</clus>
<clus scale="   80.528">  5  6 -1 -1</clus>
<clus scale="   91.033">  7  8 -1 -1</clus>
<clus scale="  114.147">  2  5  1 -1</clus>
<clus scale="   22.600">  1  5  2 -1</clus>
</clustering>
</event>
<event>
 9    1  0.2951046E-005  0.1226815E+03  0.7546771E-02  0.1242580E+00
          1   -1    0    0  502    0  0.00000000000E+00  0.00000000000E+00  0.51511817961E+03  0.51511817961E+03  0.00000000000E+00 0. -1.
         -2   -1    0    0    0  501 -0.00000000000E+00 -0.00000000000E+00 -0.53625010194E+02  0.53625010194E+02  0.00000000000E+00 0.  1.
         23    2    1    2    0    0 -0.61454032634E+02  0.76719637761E+02  0.86147577090E+02  0.15902874558E+03  0.90588277035E+02 0.  0.
        -24    2    1    2    0    0  0.43414585410E+01 -0.52816511316E+02  0.28562225817E+03  0.30070305828E+03  0.77677685144E+02 0.  0.
         13    1    4    4    0    0 -0.26041500064E+02 -0.40823695545E+02  0.23850470781E+03  0.24337056003E+03  0.00000000000E+00 0. -1.
        -14    1    4    4    0    0  0.30382958605E+02 -0.11992815771E+02  0.47117550362E+02  0.57332498252E+02  0.00000000000E+00 0.  1.
        -13    1    3    3    0    0  0.22908247387E+02  0.19339691219E+02  0.96029866202E+01  0.31480610013E+02  0.00000000000E+00 0.  1.
         13    1    3    3    0    0 -0.84362280021E+02  0.57379946542E+02  0.76544590469E+02  0.12754813556E+03  0.00000000000E+00 0. -1.
         21    1    1    2  502  501  0.57112574093E+02 -0.23903126445E+02  0.89723334161E+02  0.10901138595E+03  0.00000000000E+00 0.  1.
<scales pt_clust_5="13000.00000" pt_clust_6="13000.00000" pt_clust_7="13000.00000" pt_clust_8="13000.00000" pt_clust_9="61.91289"></scales>
<clustering>
<clus scale="   61.913">  1  9  2 -1</clus>
<clus scale="   77.678">  5  6 -1 -1</clus>
<clus scale="   90.588">  7  8 -1 -1</clus>
<clus scale="  113.483">  1  5  2 -1</clus>
<clus scale="   61.913">  1  5  2 -1</clus>
</clustering>
</event>
<event>
 9    1  0.2951046E-005  0.9502056E+02  0.7546771E-02  0.1294489E+00
          1   -1    0    0  502    0  0.00000000000E+00  0.00000000000E+00  0.10510946370E+03  0.10510946370E+03  0.00000000000E+00 0. -1.
         -2   -1    0    0    0  501 -0.00000000000E+00 -0.00000000000E+00 -0.23434651313E+03  0.23434651313E+03  0.00000000000E+00 0.  1.
        -24    2    1    2    0    0 -0.21202509607E+02 -0.12697649595E+02 -0.16358044377E+03  0.18576777049E+03  0.84500451177E+02 0.  0.
         23    2    1    2    0    0  0.60243261808E+02  0.25055685488E+01  0.31323971301E+02  0.11322617768E+03  0.90572885937E+02 0.  0.
         11    1    3    3    0    0 -0.26706471007E+02 -0.19083519709E+01 -0.56381813061E+01  0.27361770581E+02  0.00000000000E+00 0. -1.
        -12    1    3    3    0    0  0.55039614002E+01 -0.10789297624E+02 -0.15794226246E+03  0.15840599991E+03  0.00000000000E+00 0.  1.
        -13    1    4    4    0    0  0.15855077103E+02 -0.40098055330E+02 -0.21721535480E+01  0.43173553968E+02  0.00000000000E+00 0.  1.
         13    1    4    4    0    0  0.44388184705E+02  0.42603623879E+02  0.33496124849E+02  0.70052623712E+02  0.00000000000E+00 0. -1.
         21    1    1    2  502  501 -0.39040752201E+02  0.10192081046E+02  0.30194230379E+01  0.40462028668E+02  0.00000000000E+00 0. -1.
<scales pt_clust_5="13000.00000" pt_clust_6="13000.00000" pt_clust_7="13000.00000" pt_clust_8="13000.00000" pt_clust_9="40.34921"></scales>
<clustering>
<clus scale="   40.349">  1  9  2 -1</clus>
<clus scale="   84.500">  5  6 -1 -1</clus>
<clus scale="   89.251">  2  5  1 -1</clus>
<clus scale="   90.573">  7  8 -1 -1</clus>
<clus scale="   40.349">  1  5  2 -1</clus>
</clustering>
</event>
<event>
 9    1  0.2951046E-005  0.1807256E+03  0.7546771E-02  0.1169336E+00
         -2   -1    0    0    0  501 -0.00000000000E+00  0.00000000000E+00  0.70338752872E+02  0.70338752872E+02  0.00000000000E+00 0.  1.
          1   -1    0    0  502    0  0.00000000000E+00 -0.00000000000E+00 -0.79642021556E+03  0.79642021556E+03  0.00000000000E+00 0. -1.
         23    2    1    2    0    0 -0.14004545767E+03 -0.39806567174E+01 -0.14214006389E+03  0.22213349215E+03  0.97523918748E+02 0.  0.
        -24    2    1    2    0    0  0.17767454308E+03  0.61621761384E+02 -0.43364268996E+03  0.47931320543E+03  0.79559296227E+02 0.  0.
         11    1    4    4    0    0  0.14818966692E+03  0.81021528861E+02 -0.35718899597E+03  0.39510586475E+03  0.00000000000E+00 0. -1.
        -12    1    4    4    0    0  0.29484876160E+02 -0.19399767476E+02 -0.76453693987E+02  0.84207340681E+02  0.00000000000E+00 0.  1.
        -11    1    3    3    0    0 -0.69197890810E+02  0.41114421618E+02 -0.99396442005E+02  0.12789994699E+03  0.00000000000E+00 0. -1.
         11    1    3    3    0    0 -0.70847566865E+02 -0.45095078336E+02 -0.42743621889E+02  0.94233545158E+02  0.00000000000E+00 0.  1.
         21    1    1    2  502  501 -0.37629085401E+02 -0.57641104667E+02 -0.15029870883E+03  0.16531227085E+03  0.00000000000E+00 0.  1.
<scales pt_clust_5="13000.00000" pt_clust_6="13000.00000" pt_clust_7="13000.00000" pt_clust_8="13000.00000" pt_clust_9="68.83636"></scales>
<clustering>
<clus scale="   68.836">  2  9  1 -1</clus>
<clus scale="   79.559">  5  6 -1 -1</clus>
<clus scale="   97.524">  7  8 -1 -1</clus>
<clus scale="  171.699">  2  5  1 -1</clus>
<clus scale="   68.836">  2  5  1 -1</clus>
</clustering>
</event>
<event>
 9    1  0.2951046E-005  0.1112560E+03  0.7546771E-02  0.1261797E+00
          1   -1    0    0  502    0  0.00000000000E+00  0.00000000000E+00  0.35483311807E+03  0.35483311807E+03  0.00000000000E+00 0. -1.
         -2   -1    0    0    0  501 -0.00000000000E+00 -0.00000000000E+00 -0.20035089385E+03  0.20035089385E+03  0.00000000000E+00 0.  1.
        -24    2    1    2    0    0  0.39576386174E+01 -0.73953919738E+02 -0.15705672775E+03  0.19157693024E+03  0.80932436766E+02 0.  0.
         23    2    1    2    0    0  0.26093156590E+02  0.59409219242E+02  0.31092777661E+03  0.33021588314E+03  0.90311345133E+02 0.  0.
         11    1    3    3    0    0  0.27730570069E+02 -0.37470757397E+02 -0.25786495937E+02  0.53272746775E+02  0.00000000000E+00 0. -1.
        -12    1    3    3    0    0 -0.23772931451E+02 -0.36483162341E+02 -0.13127023181E+03  0.13830418346E+03  0.00000000000E+00 0.  1.
        -13    1    4    4    0    0  0.52644234078E+02  0.38543661977E+02  0.12256007345E+03  0.13884524070E+03  0.00000000000E+00 0.  1.
         13    1    4    4    0    0 -0.26551077488E+02  0.20865557264E+02  0.18836770316E+03  0.19137064244E+03  0.00000000000E+00 0. -1.
         21    1    1    2  502  501 -0.30050795208E+02  0.14544700496E+02  0.61117535419E+00  0.33391198548E+02  0.00000000000E+00 0. -1.
<scales pt_clust_5="13000.00000" pt_clust_6="13000.00000" pt_clust_7="13000.00000" pt_clust_8="13000.00000" pt_clust_9="33.38560"></scales>
<clustering>
<clus scale="   33.386">  2  9  1 -1</clus>
<clus scale="   80.932">  5  6 -1 -1</clus>
<clus scale="   90.311">  7  8 -1 -1</clus>
<clus scale="  103.787">  2  5  1 -1</clus>
<clus scale="  111.256">  1  5  2 -1</clus>
</clustering>
</event>
<event>
 9    1  0.2951046E-005  0.1567874E+03  0.7546771E-02  0.1194905E+00
         -2   -1    0    0    0  501 -0.00000000000E+00  0.00000000000E+00  0.19189100641E+03  0.19189100641E+03  0.00000000000E+00 0.  1.
          1   -1    0    0  502    0  0.00000000000E+00 -0.00000000000E+00 -0.25047360406E+03  0.25047360406E+03  0.00000000000E+00 0. -1.
        -24    2    1    2    0    0  0.11405980636E+03  0.76996181365E+02  0.10421767931E+03  0.18940245121E+03  0.77935309546E+02 0.  0.
         23    2    1    2    0    0 -0.53571411279E+02 -0.78168269999E+02 -0.10532756964E+03  0.16951557864E+03  0.93066964786E+02 0.  0.
         11    1    3    3    0    0  0.10279708878E+03  0.56452117064E+02  0.44818819477E+02  0.12555002813E+03  0.00000000000E+00 0. -1.
        -12    1    3    3    0    0  0.11262717580E+02  0.20544064301E+02  0.59398859828E+02  0.63852423088E+02  0.00000000000E+00 0.  1.
        -13    1    4    4    0    0 -0.78691195450E+02 -0.49024635828E+02 -0.86000671094E+02  0.12645882566E+03  0.00000000000E+00 0. -1.
         13    1    4    4    0    0  0.25119784171E+02 -0.29143634171E+02 -0.19326898542E+02  0.43056752975E+02  0.00000000000E+00 0.  1.
         21    1    1    2  502  501 -0.60488395084E+02  0.11720886342E+01 -0.57472707317E+02  0.83446580624E+02  0.00000000000E+00 0. -1.
<scales pt_clust_5="13000.00000" pt_clust_6="13000.00000" pt_clust_7="13000.00000" pt_clust_8="13000.00000" pt_clust_9="60.49975"></scales>
<clustering>
<clus scale="   60.500">  2  9  1 -1</clus>
<clus scale="   77.935">  5  6 -1 -1</clus>
<clus scale="   93.067">  7  8 -1 -1</clus>
<clus scale="  148.306">  1  5  2 -1</clus>
<clus scale="   60.500">  2  5  1 -1</clus>
</clustering>
</event>
<event>
 9    1  0.2951046E-005  0.1374643E+03  0.7546771E-02  0.1218055E+00
          1   -1    0    0  502    0  0.00000000000E+00  0.00000000000E+00  0.35942654619E+03  0.35942654619E+03  0.00000000000E+00 0. -1.
         -2   -1    0    0    0  501 -0.00000000000E+00 -0.00000000000E+00 -0.11805200437E+03  0.11805200437E+03  0.00000000000E+00 0.  1.
        -24    2    1    2    0    0 -0.10909418139E+02  0.67540507249E+02 -0.37121161986E+02  0.11564834113E+03  0.85532582191E+02 0.  0.
         23    2    1    2    0    0 -0.17592479177E+02 -0.11024333192E+03  0.27487828815E+03  0.31036201457E+03  0.91123099354E+02 0.  0.
         11    1    3    3    0    0 -0.21911521860E+02 -0.77485910233E+01 -0.31781038169E+02  0.39372450268E+02  0.00000000000E+00 0. -1.
        -12    1    3    3    0    0  0.11002103721E+02  0.75289098273E+02 -0.53401238171E+01  0.76275890866E+02  0.00000000000E+00 0.  1.
        -13    1    4    4    0    0  0.30918241940E+01 -0.40006555163E+02  0.20588341289E+03  0.20975715371E+03  0.00000000000E+00 0. -1.
         13    1    4    4    0    0 -0.20684303371E+02 -0.70236776756E+02  0.68994875261E+02  0.10060486085E+03  0.00000000000E+00 0.  1.
         21    1    1    2  502  501  0.28501897316E+02  0.42702824670E+02  0.36174156575E+01  0.51468194854E+02  0.00000000000E+00 0. -1.
<scales pt_clust_5="13000.00000" pt_clust_6="13000.00000" pt_clust_7="13000.00000" pt_clust_8="13000.00000" pt_clust_9="51.34091"></scales>
<clustering>
<clus scale="   51.341">  2  9  1 -1</clus>
<clus scale="   85.533">  5  6 -1 -1</clus>
<clus scale="   91.123">  7  8 -1 -1</clus>
<clus scale="  133.824">  2  5  1 -1</clus>
<clus scale="  137.464">  1  5  2 -1</clus>
</clustering>
</event>
<event>
 9    1  0.2951046E-005  0.1180953E+03  0.7546771E-02  0.1251212E+00
         -2   -1    0    0    0  501 -0.00000000000E+00  0.00000000000E+00  0.74491566920E+02  0.74491566920E+02  0.00000000000E+00 0.  1.
          1   -1    0    0  502    0  0.00000000000E+00 -0.00000000000E+00 -0.29475438067E+03  0.29475438067E+03  0.00000000000E+00 0. -1.
         23    2    1    2    0    0 -0.60213773399E+02  0.46696737426E+02 -0.83772843176E+01  0.12045666203E+03  0.92915793827E+02 0.  0.
        -24    2    1    2    0    0  0.38619748055E+02 -0.54540911512E+02 -0.14318901419E+03  0.17635280163E+03  0.78300835813E+02 0.  0.
         11    1    4    4    0    0  0.20071100610E+02 -0.71184421962E+02 -0.12591743943E+03  0.14603175190E+03  0.00000000000E+00 0. -1.
        -12    1    4    4    0    0  0.18548647445E+02  0.16643510450E+02 -0.17271574765E+02  0.30321049734E+02  0.00000000000E+00 0.  1.
        -13    1    3    3    0    0 -0.24859059950E+02 -0.26228440055E+02  0.97106538789E+01  0.37419256113E+02  0.00000000000E+00 0. -1.
         13    1    3    3    0    0 -0.35354713449E+02  0.72925177481E+02 -0.18087938196E+02  0.83037405920E+02  0.00000000000E+00 0.  1.
         21    1    1    2  502  501  0.21594025344E+02  0.78441740854E+01 -0.68696515237E+02  0.72436483924E+02  0.00000000000E+00 0. -1.
<scales pt_clust_5="13000.00000" pt_clust_6="13000.00000" pt_clust_7="13000.00000" pt_clust_8="13000.00000" pt_clust_9="22.97462"></scales>
<clustering>
<clus scale="   22.975">  2  9  1 -1</clus>
<clus scale="   78.301">  5  6 -1 -1</clus>
<clus scale="   92.916">  7  8 -1 -1</clus>
<clus scale="  106.977">  2  5  1 -1</clus>
<clus scale="   22.975">  2  5  1 -1</clus>
</clustering>
</event>
<event>
 9    1  0.2951046E-005  0.1192546E+03  0.7546771E-02  0.1248145E+00
          1   -1    0    0  502    0  0.00000000000E+00  0.00000000000E+00  0.16745496237E+03  0.16745496237E+03  0.00000000000E+00 0. -1.
         -2   -1    0    0    0  501 -0.00000000000E+00 -0.00000000000E+00 -0.13414070443E+03  0.13414070443E+03  0.00000000000E+00 0.  1.
         23    2    1    2    0    0  0.46112850435E+02  0.57391421740E+02 -0.28486860619E+01  0.11775793156E+03  0.91862098649E+02 0.  0.
        -24    2    1    2    0    0 -0.86309855519E+02 -0.12229940770E+02  0.34658409892E+02  0.12335945646E+03  0.80108598230E+02 0.  0.
         11    1    4    4    0    0 -0.76219946016E+02 -0.28784588441E+02  0.52572106985E+02  0.96963184432E+02  0.00000000000E+00 0. -1.
        -12    1    4    4    0    0 -0.10089909503E+02  0.16554647671E+02 -0.17913697094E+02  0.26396272026E+02  0.00000000000E+00 0.  1.
        -13    1    3    3    0    0  0.46415806724E+02  0.14490705501E+02  0.35507885113E+02  0.60209779645E+02  0.00000000000E+00 0. -1.
         13    1    3    3    0    0 -0.30295628873E+00  0.42900716240E+02 -0.38356571175E+02  0.57548151914E+02  0.00000000000E+00 0.  1.
         21    1    1    2  502  501  0.40197005084E+02 -0.45161480971E+02  0.15045341094E+01  0.60478278779E+02  0.00000000000E+00 0. -1.
<scales pt_clust_5="13000.00000" pt_clust_6="13000.00000" pt_clust_7="13000.00000" pt_clust_8="13000.00000" pt_clust_9="60.45956"></scales>
<clustering>
<clus scale="   60.460">  2  9  1 -1</clus>
<clus scale="   80.109">  5  6 -1 -1</clus>
<clus scale="   91.862">  7  8 -1 -1</clus>
<clus scale="  110.455">  1  5  2 -1</clus>
<clus scale="  110.455">  1  5  2 -1</clus>
</clustering>
</event>
<event>
 9    1  0.2951046E-005  0.8925486E+02  0.7546771E-02  0.1310112E+00
          1   -1    0    0  502    0  0.00000000000E+00  0.00000000000E+00  0.93479372101E+02  0.93479372101E+02  0.00000000000E+00 0. -1.
         -2   -1    0    0    0  501 -0.00000000000E+00 -0.00000000000E+00 -0.18516025765E+03  0.18516025765E+03  0.00000000000E+00 0.  1.
        -24    2    1    2    0    0 -0.12993635484E+01 -0.23266364763E+02 -0.84854992115E+02  0.11886502545E+03  0.79909401912E+02 0.  0.
         23    2    1    2    0    0 -0.10890115938E+02 -0.58934667265E+01 -0.52988255105E+02  0.10382960616E+03  0.88427961419E+02 0.  0.
         11    1    3    3    0    0 -0.30628858079E+02  0.73609510647E+01 -0.64597781203E+02  0.71869213743E+02  0.00000000000E+00 0. -1.
        -12    1    3    3    0    0  0.29329494531E+02 -0.30627315827E+02 -0.20257210913E+02  0.46995811709E+02  0.00000000000E+00 0.  1.
        -13    1    4    4    0    0 -0.47895859037E+02  0.29185581153E+01 -0.15511887143E+02  0.50429653351E+02  0.00000000000E+00 0. -1.
         13    1    4    4    0    0  0.37005743100E+02 -0.88120248418E+01 -0.37476367962E+02  0.53399952807E+02  0.00000000000E+00 0.  1.
         21    1    1    2  502  501  0.12189479486E+02  0.29159831489E+02  0.46162361667E+02  0.55944998144E+02  0.00000000000E+00 0. -1.
<scales pt_clust_5="13000.00000" pt_clust_6="13000.00000" pt_clust_7="13000.00000" pt_clust_8="13000.00000" pt_clust_9="31.60505"></scales>
<clustering>
<clus scale="   31.605">  1  9  2 -1</clus>
<clus scale="   79.909">  5  6 -1 -1</clus>
<clus scale="   80.823">  2  5  1 -1</clus>
<clus scale="   88.428">  7  8 -1 -1</clus>
<clus scale="   31.605">  1  5  2 -1</clus>
</clustering>
</event>
<event>
 9    1  0.2951046E-005  0.2558240E+03  0.7546771E-02  0.1110085E+00
         -2   -1    0    0    0  501 -0.00000000000E+00  0.00000000000E+00  0.29676496586E+03  0.29676496586E+03  0.00000000000E+00 0.  1.
          1   -1    0    0  502    0  0.00000000000E+00 -0.00000000000E+00 -0.81604434809E+03  0.81604434809E+03  0.00000000000E+00 0. -1.
        -24    2    1    2    0    0  0.15557032024E+03  0.62070213364E+02 -0.24750799155E+02  0.18691978452E+03  0.79193231153E+02 0.  0.
         23    2    1    2    0    0 -0.20018192734E+03 -0.18099678292E+03 -0.65937220357E+03  0.71778584456E+03  0.87247787128E+02 0.  0.
         13    1    3    3    0    0  0.35042218688E+02  0.24692811390E+02 -0.41448143553E+02  0.59629192757E+02  0.00000000000E+00 0. -1.
        -14    1    3    3    0    0  0.12052810155E+03  0.37377401974E+02  0.16697344398E+02  0.12729059176E+03  0.00000000000E+00 0.  1.
        -13    1    4    4    0    0 -0.11006265140E+03 -0.15177531334E+03 -0.47070103715E+03  0.50666458269E+03  0.00000000000E+00 0. -1.
         13    1    4    4    0    0 -0.90119275938E+02 -0.29221469577E+02 -0.18867116642E+03  0.21112126188E+03  0.00000000000E+00 0.  1.
         21    1    1    2  502  501  0.44611607099E+02  0.11892656956E+03  0.16484362050E+03  0.20810368487E+03  0.00000000000E+00 0.  1.
<scales pt_clust_5="13000.00000" pt_clust_6="13000.00000" pt_clust_7="13000.00000" pt_clust_8="13000.00000" pt_clust_9="127.01860"></scales>
<clustering>
<clus scale="   79.193">  5  6 -1 -1</clus>
<clus scale="   87.248">  7  8 -1 -1</clus>
<clus scale="  127.019">  1  9  2 -1</clus>
<clus scale="  253.190">  1  5  2 -1</clus>
<clus scale="  255.824">  2  5  1 -1</clus>
</clustering>
</event>
<event>
 9    1  0.2951046E-005  0.1363302E+03  0.7546771E-02  0.1220529E+00
          1   -1    0    0  502    0  0.00000000000E+00  0.00000000000E+00  0.17059374227E+03  0.17059374227E+03  0.00000000000E+00 0. -1.
         -2   -1    0    0    0  501 -0.00000000000E+00 -0.00000000000E+00 -0.24197840804E+03  0.24197840804E+03  0.00000000000E+00 0.  1.
        -24    2    1    2    0    0 -0.87609429066E+02  0.95932609143E+02 -0.15004392030E+03  0.21406702847E+03  0.80206216085E+02 0.  0.
         23    2    1    2    0    0  0.65552333910E+02 -0.72147403182E+02  0.94154000302E+02  0.16255601038E+03  0.89761486563E+02 0.  0.
         13    1    3    3    0    0 -0.29945579093E+02  0.10765890623E+02  0.40149779957E+00  0.31824570832E+02  0.00000000000E+00 0. -1.
        -14    1    3    3    0    0 -0.57663849973E+02  0.85166718520E+02 -0.15044541810E+03  0.18224245763E+03  0.00000000000E+00 0.  1.
        -13    1    4    4    0    0 -0.15576073008E+02 -0.31851517616E+02  0.51263496472E+02  0.62330404261E+02  0.00000000000E+00 0. -1.
         13    1    4    4    0    0  0.81128406918E+02 -0.40295885566E+02  0.42890503830E+02  0.10022560612E+03  0.00000000000E+00 0.  1.
         21    1    1    2  502  501  0.22057095156E+02 -0.23785205961E+02 -0.15494745769E+02  0.35949111474E+02  0.00000000000E+00 0. -1.
<scales pt_clust_5="13000.00000" pt_clust_6="13000.00000" pt_clust_7="13000.00000" pt_clust_8="13000.00000" pt_clust_9="32.43843"></scales>
<clustering>
<clus scale="   32.438">  2  9  1 -1</clus>
<clus scale="   80.206">  5  6 -1 -1</clus>
<clus scale="   89.761">  7  8 -1 -1</clus>
<clus scale="  130.238">  2  5  1 -1</clus>
<clus scale="  136.330">  1  5  2 -1</clus>
</clustering>
</event>
<event>
 9    1  0.2951046E-005  0.1270971E+03  0.7546771E-02  0.1247747E+00
         -2   -1    0    0    0  501 -0.00000000000E+00  0.00000000000E+00  0.21537496387E+03  0.21537496387E+03  0.00000000000E+00 0.  1.
          1   -1    0    0  502    0  0.00000000000E+00 -0.00000000000E+00 -0.16524180790E+03  0.16524180790E+03  0.00000000000E+00 0. -1.
         23    2    1    2    0    0  0.13277874773E+02  0.10417016154E+01  0.11265498198E+03  0.14543239218E+03  0.91005761514E+02 0.  0.
        -24    2    1    2    0    0 -0.10553901558E+03 -0.67968683617E+01 -0.28067936529E+02  0.13653190598E+03  0.81660706953E+02 0.  0.
         11    1    4    4    0    0 -0.27174297892E+02  0.18288002374E+02 -0.41807626815E+02  0.53110932554E+02  0.00000000000E+00 0. -1.
        -12    1    4    4    0    0 -0.78364717688E+02 -0.25084870735E+02  0.13739690286E+02  0.83420973426E+02  0.00000000000E+00 0.  1.
        -11    1    3    3    0    0 -0.34750199121E+02  0.35130718081E+01  0.18073375957E+02  0.39326389753E+02  0.00000000000E+00 0. -1.
         11    1    3    3    0    0  0.48028073894E+02 -0.24713701927E+01  0.94581606026E+02  0.10610600243E+03  0.00000000000E+00 0.  1.
         21    1    1    2  502  501  0.92261140807E+02  0.57551667463E+01 -0.34453889485E+02  0.98652473603E+02  0.00000000000E+00 0.  1.
<scales pt_clust_5="13000.00000" pt_clust_6="13000.00000" pt_clust_7="13000.00000" pt_clust_8="13000.00000" pt_clust_9="97.39195"></scales>
<clustering>
<clus scale="   81.661">  5  6 -1 -1</clus>
<clus scale="   91.006">  7  8 -1 -1</clus>
<clus scale="   91.975">  1  7  2 -1</clus>
<clus scale="   97.392">  2  9  1 -1</clus>
<clus scale="   97.392">  2  5  1 -1</clus>
</clustering>
</event>
<event>
 9    1  0.2951046E-005  0.9535291E+02  0.7546771E-02  0.1295994E+00
         -2   -1    0    0    0  501 -0.00000000000E+00  0.00000000000E+00  0.32595311636E+03  0.32595311636E+03  0.00000000000E+00 0.  1.
          1   -1    0    0  502    0  0.00000000000E+00 -0.00000000000E+00 -0.96677763777E+02  0.96677763777E+02  0.00000000000E+00 0. -1.
        -24    2    1    2    0    0 -0.17038762787E+02 -0.24526372161E+02  0.27118221778E+03  0.28473310004E+03  0.81494052855E+02 0.  0.
         23    2    1    2    0    0 -0.90515006306E+01  0.13888606899E+02 -0.71881184285E+01  0.93184747639E+02  0.91416109525E+02 0.  0.
         13    1    3    3    0    0  0.17909649066E+02 -0.30098384432E+02  0.51891506366E+02  0.62605085321E+02  0.00000000000E+00 0. -1.
        -14    1    3    3    0    0 -0.34948411852E+02  0.55720122707E+01  0.21929071141E+03  0.22212801472E+03  0.00000000000E+00 0.  1.
        -11    1    4    4    0    0  0.17850173672E+02  0.14057129489E+02 -0.42857535814E+02  0.48507730989E+02  0.00000000000E+00 0. -1.
         11    1    4    4    0    0 -0.26901674302E+02 -0.16852258954E+00  0.35669417386E+02  0.44677016650E+02  0.00000000000E+00 0.  1.
         21    1    1    2  502  501  0.26090263417E+02  0.10637765261E+02 -0.34718746764E+02  0.44713032460E+02  0.00000000000E+00 0. -1.
<scales pt_clust_5="13000.00000" pt_clust_6="13000.00000" pt_clust_7="13000.00000" pt_clust_8="13000.00000" pt_clust_9="28.17559"></scales>
<clustering>
<clus scale="   28.176">  2  9  1 -1</clus>
<clus scale="   81.494">  5  6 -1 -1</clus>
<clus scale="   85.887">  1  5  2 -1</clus>
<clus scale="   91.416">  7  8 -1 -1</clus>
<clus scale="   28.176">  2  5  1 -1</clus>
</clustering>
</event>
<event>
 9    1  0.2951046E-005  0.9807395E+02  0.7546771E-02  0.1289176E+00
         -4   -1    0    0    0  501 -0.00000000000E+00  0.00000000000E+00  0.49493186446E+03  0.49493186446E+03  0.00000000000E+00 0.  1.
          3   -1    0    0  502    0  0.00000000000E+00 -0.00000000000E+00 -0.65917424733E+02  0.65917424733E+02  0.00000000000E+00 0. -1.
        -24    2    1    2    0    0  0.34267060186E+02  0.16140110612E+02  0.42521992034E+03  0.43475878119E+03  0.82270788120E+02 0.  0.
         23    2    1    2    0    0 -0.11513756929E+02  0.77084492565E+00 -0.13173589680E+02  0.93050986953E+02  0.91388084056E+02 0.  0.
         13    1    3    3    0    0  0.31045935764E+02 -0.30427567199E+02  0.18416356667E+03  0.18922448642E+03  0.00000000000E+00 0. -1.
        -14    1    3    3    0    0  0.32211244217E+01  0.46567677811E+02  0.24105635368E+03  0.24553429477E+03  0.00000000000E+00 0.  1.
        -13    1    4    4    0    0 -0.47653074318E+02  0.15322040965E+02  0.45261773358E+01  0.50259991172E+02  0.00000000000E+00 0. -1.
         13    1    4    4    0    0  0.36139317390E+02 -0.14551196039E+02 -0.17699767016E+02  0.42790995781E+02  0.00000000000E+00 0.  1.
         21    1    1    2  502  501 -0.22753303258E+02 -0.16910955538E+02  0.16968109068E+02  0.33039521057E+02  0.00000000000E+00 0. -1.
<scales pt_clust_5="13000.00000" pt_clust_6="13000.00000" pt_clust_7="13000.00000" pt_clust_8="13000.00000" pt_clust_9="28.34948"></scales>
<clustering>
<clus scale="   28.349">  2  9  1 -1</clus>
<clus scale="   82.271">  5  6 -1 -1</clus>
<clus scale="   89.639">  1  5  2 -1</clus>
<clus scale="   91.388">  7  8 -1 -1</clus>
<clus scale="   28.349">  2  5  1 -1</clus>
</clustering>
</event>
<event>
 9    1  0.2951046E-005  0.1046723E+03  0.7546771E-02  0.1275804E+00
          3   -1    0    0  502    0  0.00000000000E+00  0.00000000000E+00  0.16472317305E+03  0.16472317305E+03  0.00000000000E+00 0. -1.
         -4   -1    0    0    0  501 -0.00000000000E+00 -0.00000000000E+00 -0.66634750526E+03  0.66634750526E+03  0.00000000000E+00 0.  1.
        -24    2    1    2    0    0 -0.35121279173E+02 -0.37271948143E+02 -0.62648311507E+03  0.63369768860E+03  0.80429874477E+02 0.  0.
         23    2    1    2    0    0  0.15069112369E+02  0.37589518144E+02  0.36295665137E+02  0.10656761506E+03  0.91647319928E+02 0.  0.
         13    1    3    3    0    0  0.16893011704E+02 -0.38869444412E+02 -0.23791352915E+03  0.24165896405E+03  0.00000000000E+00 0. -1.
        -14    1    3    3    0    0 -0.52014290877E+02  0.15974962681E+01 -0.38856958591E+03  0.39203872455E+03  0.00000000000E+00 0.  1.
        -13    1    4    4    0    0  0.10748622357E+02 -0.24738584324E+02 -0.10042329097E+02  0.28781570677E+02  0.00000000000E+00 0. -1.
         13    1    4    4    0    0  0.43204900120E+01  0.62328102468E+02  0.46337994233E+02  0.77786044383E+02  0.00000000000E+00 0.  1.
         21    1    1    2  502  501  0.20052166804E+02 -0.31757000029E+00  0.88563117716E+02  0.90805374642E+02  0.00000000000E+00 0. -1.
<scales pt_clust_5="13000.00000" pt_clust_6="13000.00000" pt_clust_7="13000.00000" pt_clust_8="13000.00000" pt_clust_9="20.05468"></scales>
<clustering>
<clus scale="   20.055">  1  9  2 -1</clus>
<clus scale="   80.430">  5  6 -1 -1</clus>
<clus scale="   91.647">  7  8 -1 -1</clus>
<clus scale="   95.005">  2  5  1 -1</clus>
<clus scale="   20.055">  1  5  2 -1</clus>
</clustering>
</event>
<event>
 9    1  0.2951046E-005  0.1389948E+03  0.7546771E-02  0.1216897E+00
         -2   -1    0    0    0  501 -0.00000000000E+00  0.00000000000E+00  0.67597053317E+03  0.67597053317E+03  0.00000000000E+00 0.  1.
          1   -1    0    0  502    0  0.00000000000E+00 -0.00000000000E+00 -0.70852035589E+02  0.70852035589E+02  0.00000000000E+00 0. -1.
         23    2    1    2    0    0  0.82717115472E+02 -0.81690248211E+02  0.52138981334E+03  0.54196765031E+03  0.91466817359E+02 0.  0.
        -24    2    1    2    0    0 -0.62957051030E+02  0.46486841893E+02  0.10918589257E+03  0.15712851676E+03  0.81505796723E+02 0.  0.
         11    1    4    4    0    0 -0.20433308664E+02 -0.42624424773E+01 -0.81445652117E+01  0.22405857746E+02  0.00000000000E+00 0. -1.
        -12    1    4    4    0    0 -0.42523742366E+02  0.50749284370E+02  0.11733045778E+03  0.13472265901E+03  0.00000000000E+00 0.  1.
        -13    1    3    3    0    0  0.23996699175E+02 -0.83242485268E+02  0.35821231900E+03  0.36853930375E+03  0.00000000000E+00 0.  1.
         13    1    3    3    0    0  0.58720416296E+02  0.15522370565E+01  0.16317749434E+03  0.17342834656E+03  0.00000000000E+00 0. -1.
         21    1    1    2  502  501 -0.19760064441E+02  0.35203406318E+02 -0.25457208325E+02  0.47726401696E+02  0.00000000000E+00 0. -1.
<scales pt_clust_5="13000.00000" pt_clust_6="13000.00000" pt_clust_7="13000.00000" pt_clust_8="13000.00000" pt_clust_9="40.37004"></scales>
<clustering>
<clus scale="   40.370">  2  9  1 -1</clus>
<clus scale="   81.506">  5  6 -1 -1</clus>
<clus scale="   91.467">  7  8 -1 -1</clus>
<clus scale="  132.652">  2  5  1 -1</clus>
<clus scale="   40.370">  2  5  1 -1</clus>
</clustering>
</event>
<event>
 9    1  0.2951046E-005  0.1060386E+03  0.7546771E-02  0.1274911E+00
          3   -1    0    0  502    0  0.00000000000E+00  0.00000000000E+00  0.26285249316E+03  0.26285249316E+03  0.00000000000E+00 0. -1.
         -4   -1    0    0    0  501 -0.00000000000E+00 -0.00000000000E+00 -0.14220255846E+03  0.14220255846E+03  0.00000000000E+00 0.  1.
        -24    2    1    2    0    0 -0.24143560719E+02  0.36652822328E+02 -0.10074584535E+03  0.13643837309E+03  0.80866330368E+02 0.  0.
         23    2    1    2    0    0  0.46390234527E+02 -0.53065987456E+02  0.20365924072E+03  0.23577019756E+03  0.95616143206E+02 0.  0.
         13    1    3    3    0    0 -0.96503777802E+01  0.25396551395E+02  0.62519421731E+01  0.27878331998E+02  0.00000000000E+00 0. -1.
        -14    1    3    3    0    0 -0.14493182939E+02  0.11256270933E+02 -0.10699778752E+03  0.10856004109E+03  0.00000000000E+00 0.  1.
        -11    1    4    4    0    0  0.15820480131E+02 -0.46655722779E+02  0.26620577981E+02  0.55997314504E+02  0.00000000000E+00 0.  1.
         11    1    4    4    0    0  0.30569754396E+02 -0.64102646769E+01  0.17703866274E+03  0.17977288305E+03  0.00000000000E+00 0. -1.
         21    1    1    2  502  501 -0.22246673808E+02  0.16413165128E+02  0.17736539334E+02  0.32846480977E+02  0.00000000000E+00 0.  1.
<scales pt_clust_5="13000.00000" pt_clust_6="13000.00000" pt_clust_7="13000.00000" pt_clust_8="13000.00000" pt_clust_9="27.64609"></scales>
<clustering>
<clus scale="   27.646">  1  9  2 -1</clus>
<clus scale="   80.866">  5  6 -1 -1</clus>
<clus scale="   92.958">  2  5  1 -1</clus>
<clus scale="   95.616">  7  8 -1 -1</clus>
<clus scale="   27.646">  1  5  2 -1</clus>
</clustering>
</event>
<event>
 9    1  0.2951046E-005  0.1941002E+03  0.7546771E-02  0.1179499E+00
          1   -1    0    0  502    0  0.00000000000E+00  0.00000000000E+00  0.98996425413E+03  0.98996425413E+03  0.00000000000E+00 0. -1.
         -2   -1    0    0    0  501 -0.00000000000E+00 -0.00000000000E+00 -0.36722623502E+03  0.36722623502E+03  0.00000000000E+00 0.  1.
        -24    2    1    2    0    0  0.31583593640E+02  0.66701840823E+02 -0.28637692427E+03  0.30679196619E+03  0.81626642773E+02 0.  0.
         23    2    1    2    0    0 -0.19903638967E+03 -0.41874005985E+02  0.13934010011E+03  0.26222965170E+03  0.89329781954E+02 0.  0.
         13    1    3    3    0    0  0.16701572913E+02 -0.11218701130E+02 -0.18207345012E+02  0.27135018061E+02  0.00000000000E+00 0. -1.
        -14    1    3    3    0    0  0.14882020727E+02  0.77920541953E+02 -0.26816957925E+03  0.27965694813E+03  0.00000000000E+00 0.  1.
        -11    1    4    4    0    0 -0.24584100015E+02 -0.40530850692E+02  0.24433610001E+02  0.53330377169E+02  0.00000000000E+00 0. -1.
         11    1    4    4    0    0 -0.17445228965E+03 -0.13431552935E+01  0.11490649011E+03  0.20889927453E+03  0.00000000000E+00 0.  1.
         21    1    1    2  502  501  0.16745279603E+03 -0.24827834838E+02  0.76977484327E+03  0.78816887125E+03  0.00000000000E+00 0. -1.
<scales pt_clust_5="13000.00000" pt_clust_6="13000.00000" pt_clust_7="13000.00000" pt_clust_8="13000.00000" pt_clust_9="172.32260"></scales>
<clustering>
<clus scale="   81.627">  5  6 -1 -1</clus>
<clus scale="   89.330">  7  8 -1 -1</clus>
<clus scale="  110.043">  2  5  1 -1</clus>
<clus scale="  172.323">  1  9  2 -1</clus>
<clus scale="  172.323">  1  5  2 -1</clus>
</clustering>
</event>
<event>
 9    1  0.2951046E-005  0.1023131E+03  0.7546771E-02  0.1282925E+00
         -2   -1    0    0    0  501 -0.00000000000E+00  0.00000000000E+00  0.10393272490E+03  0.10393272490E+03  0.00000000000E+00 0.  1.
          1   -1    0    0  502    0  0.00000000000E+00 -0.00000000000E+00 -0.23451620249E+03  0.23451620249E+03  0.00000000000E+00 0. -1.
         23    2    1    2    0    0  0.27979386867E+02 -0.27134409721E+02  0.54726504033E+02  0.11500920953E+03  0.93343482649E+02 0.  0.
        -24    2    1    2    0    0 -0.26466673697E+02  0.53161793552E+02 -0.13808339114E+03  0.16949471014E+03  0.78324790098E+02 0.  0.
         13    1    4    4    0    0 -0.13180276664E+02  0.73110774981E+02 -0.10243986418E+03  0.12654181477E+03  0.00000000000E+00 0. -1.
        -14    1    4    4    0    0 -0.13286397032E+02 -0.19948981429E+02 -0.35643526961E+02  0.42952895367E+02  0.00000000000E+00 0.  1.
        -11    1    3    3    0    0  0.34998847598E+02 -0.52314506263E+02  0.61506123472E+02  0.88004148330E+02  0.00000000000E+00 0.  1.
         11    1    3    3    0    0 -0.70194607307E+01  0.25180096542E+02 -0.67796194388E+01  0.27005061202E+02  0.00000000000E+00 0. -1.
         21    1    1    2  502  501 -0.15127131707E+01 -0.26027383831E+02 -0.47226590479E+02  0.53945007725E+02  0.00000000000E+00 0. -1.
<scales pt_clust_5="13000.00000" pt_clust_6="13000.00000" pt_clust_7="13000.00000" pt_clust_8="13000.00000" pt_clust_9="26.07131"></scales>
<clustering>
<clus scale="   26.071">  2  9  1 -1</clus>
<clus scale="   78.325">  5  6 -1 -1</clus>
<clus scale="   88.824">  2  5  1 -1</clus>
<clus scale="   93.343">  7  8 -1 -1</clus>
<clus scale="   26.071">  2  5  1 -1</clus>
</clustering>
</event>
<event>
 9    1  0.2951046E-005  0.9461107E+02  0.7546771E-02  0.1299390E+00
         -4   -1    0    0    0  501 -0.00000000000E+00  0.00000000000E+00  0.33248600097E+03  0.33248600097E+03  0.00000000000E+00 0.  1.
          3   -1    0    0  502    0  0.00000000000E+00 -0.00000000000E+00 -0.19353685384E+03  0.19353685384E+03  0.00000000000E+00 0. -1.
        -24    2    1    2    0    0 -0.22218907376E+02 -0.14958260440E+02  0.29582615613E+03  0.30727063795E+03  0.78642869326E+02 0.  0.
         23    2    1    2    0    0  0.15382087388E+02 -0.20275810439E+02 -0.52269821485E+02  0.10815906364E+03  0.91205985042E+02 0.  0.
         11    1    3    3    0    0 -0.45735132607E+02 -0.28739264283E+02  0.16434626282E+03  0.17299520735E+03  0.00000000000E+00 0. -1.
        -12    1    3    3    0    0  0.23516225231E+02  0.13781003843E+02  0.13147989332E+03  0.13427543060E+03  0.00000000000E+00 0.  1.
        -13    1    4    4    0    0  0.43825107006E+02  0.17672478522E+02 -0.26936719039E+02  0.54392493359E+02  0.00000000000E+00 0. -1.
         13    1    4    4    0    0 -0.28443019617E+02 -0.37948288961E+02 -0.25333102446E+02  0.53766570279E+02  0.00000000000E+00 0.  1.
         21    1    1    2  502  501  0.68368199874E+01  0.35234070879E+02 -0.10460718752E+03  0.11059315322E+03  0.00000000000E+00 0. -1.
<scales pt_clust_5="13000.00000" pt_clust_6="13000.00000" pt_clust_7="13000.00000" pt_clust_8="13000.00000" pt_clust_9="35.89125"></scales>
<clustering>
<clus scale="   35.891">  2  9  1 -1</clus>
<clus scale="   78.643">  5  6 -1 -1</clus>
<clus scale="   82.568">  1  5  2 -1</clus>
<clus scale="   91.206">  7  8 -1 -1</clus>
<clus scale="   35.891">  2  5  1 -1</clus>
</clustering>
</event>
<event>
 9    1  0.2951046E-005  0.2408105E+03  0.7546771E-02  0.1119911E+00
          1   -1    0    0  502    0  0.00000000000E+00  0.00000000000E+00  0.25418758168E+03  0.25418758168E+03  0.00000000000E+00 0. -1.
         -2   -1    0    0    0  501 -0.00000000000E+00 -0.00000000000E+00 -0.38187804750E+03  0.38187804750E+03  0.00000000000E+00 0.  1.
         23    2    1    2    0    0  0.23664099202E+02 -0.21701109029E+03 -0.22950203787E+03  0.32975287529E+03  0.91716794953E+02 0.  0.
        -24    2    1    2    0    0  0.27395063301E+01  0.23865104977E+03  0.75019781385E+02  0.26291646053E+03  0.80841011660E+02 0.  0.
         13    1    4    4    0    0 -0.12021972012E+02  0.16617546297E+03  0.87051297990E+02  0.18798069259E+03  0.00000000000E+00 0. -1.
        -14    1    4    4    0    0  0.14761478342E+02  0.72475586796E+02 -0.12031516605E+02  0.74935767935E+02  0.00000000000E+00 0.  1.
        -11    1    3    3    0    0 -0.75457031248E+01 -0.23485906924E+02  0.38771739896E+01  0.24971142101E+02  0.00000000000E+00 0. -1.
         11    1    3    3    0    0  0.31209802327E+02 -0.19352518336E+03 -0.23337921186E+03  0.30478173319E+03  0.00000000000E+00 0.  1.
         21    1    1    2  502  501 -0.26403605532E+02 -0.21639959478E+02  0.26791790666E+02  0.43396293372E+02  0.00000000000E+00 0. -1.
<scales pt_clust_5="13000.00000" pt_clust_6="13000.00000" pt_clust_7="13000.00000" pt_clust_8="13000.00000" pt_clust_9="34.13852"></scales>
<clustering>
<clus scale="   34.139">  1  9  2 -1</clus>
<clus scale="   80.841">  5  6 -1 -1</clus>
<clus scale="   91.717">  7  8 -1 -1</clus>
<clus scale="  236.882">  1  5  2 -1</clus>
<clus scale="   34.139">  1  5  2 -1</clus>
</clustering>
</event>
<event>
 9    1  0.2951046E-005  0.9991660E+02  0.7546771E-02  0.1284677E+00
         -2   -1    0    0    0  501 -0.00000000000E+00  0.00000000000E+00  0.60721215547E+02  0.60721215547E+02  0.00000000000E+00 0.  1.
          1   -1    0    0  502    0  0.00000000000E+00 -0.00000000000E+00 -0.50165991363E+03  0.50165991363E+03  0.00000000000E+00 0. -1.
        -24    2    1    2    0    0 -0.33487075061E+02  0.36603066621E+02  0.14134853299E+01  0.95189356100E+02  0.81227131500E+02 0.  0.
         23    2    1    2    0    0  0.26281601218E+02 -0.90045741500E+00 -0.18555944634E+03  0.20782889029E+03  0.89827646772E+02 0.  0.
         13    1    3    3    0    0  0.23818445845E+02  0.21820637737E+02  0.13112727351E+02  0.34862619126E+02  0.00000000000E+00 0. -1.
        -14    1    3    3    0    0 -0.57305520906E+02  0.14782428884E+02 -0.11699242021E+02  0.60326736974E+02  0.00000000000E+00 0.  1.
        -11    1    4    4    0    0 -0.94973885544E+01 -0.34888201638E+02 -0.12267638183E+03  0.12789402512E+03  0.00000000000E+00 0. -1.
         11    1    4    4    0    0  0.35778989772E+02  0.33987744223E+02 -0.62883064516E+02  0.79934865168E+02  0.00000000000E+00 0.  1.
         21    1    1    2  502  501  0.72054738432E+01 -0.35702609206E+02 -0.25679273707E+03  0.25936288279E+03  0.00000000000E+00 0. -1.
<scales pt_clust_5="13000.00000" pt_clust_6="13000.00000" pt_clust_7="13000.00000" pt_clust_8="13000.00000" pt_clust_9="36.42245"></scales>
<clustering>
<clus scale="   36.422">  2  9  1 -1</clus>
<clus scale="   81.227">  5  6 -1 -1</clus>
<clus scale="   89.828">  7  8 -1 -1</clus>
<clus scale="   92.261">  1  5  2 -1</clus>
<clus scale="   36.422">  2  5  1 -1</clus>
</clustering>
</event>
<event>
 9    1  0.2951046E-005  0.1266163E+03  0.7546771E-02  0.1235481E+00
          1   -1    0    0  502    0  0.00000000000E+00  0.00000000000E+00  0.13425443529E+03  0.13425443529E+03  0.00000000000E+00 0. -1.
         -2   -1    0    0    0  501 -0.00000000000E+00 -0.00000000000E+00 -0.58938537184E+03  0.58938537184E+03  0.00000000000E+00 0.  1.
         23    2    1    2    0    0  0.49265813237E+02  0.76919432379E+02 -0.50261160955E+03  0.51893705919E+03  0.91288125772E+02 0.  0.
        -24    2    1    2    0    0 -0.71561023691E+02 -0.33007499719E+02 -0.26409027318E+02  0.11590510128E+03  0.80784160758E+02 0.  0.
         13    1    4    4    0    0 -0.88430221086E+02 -0.34982449606E+02 -0.27170750146E+02  0.98903616947E+02  0.00000000000E+00 0. -1.
        -14    1    4    4    0    0  0.16869197396E+02  0.19749498869E+01  0.76172282785E+00  0.17001484332E+02  0.00000000000E+00 0.  1.
        -11    1    3    3    0    0  0.56522182749E+01  0.79697557585E+02 -0.39089332666E+03  0.39897523868E+03  0.00000000000E+00 0.  1.
         11    1    3    3    0    0  0.43613594962E+02 -0.27781252057E+01 -0.11171828290E+03  0.11996182050E+03  0.00000000000E+00 0. -1.
         21    1    1    2  502  501  0.22295210453E+02 -0.43911932660E+02  0.73889700322E+02  0.88797646663E+02  0.00000000000E+00 0. -1.
<scales pt_clust_5="13000.00000" pt_clust_6="13000.00000" pt_clust_7="13000.00000" pt_clust_8="13000.00000" pt_clust_9="49.24768"></scales>
<clustering>
<clus scale="   49.248">  1  9  2 -1</clus>
<clus scale="   80.784">  5  6 -1 -1</clus>
<clus scale="   91.288">  7  8 -1 -1</clus>
<clus scale="  119.265">  1  5  2 -1</clus>
<clus scale="   49.248">  1  5  2 -1</clus>
</clustering>
</event>
<event>
 9    1  0.2951046E-005  0.1186052E+03  0.7546771E-02  0.1249104E+00
         -2   -1    0    0    0  501 -0.00000000000E+00  0.00000000000E+00  0.30511793046E+02  0.30511793046E+02  0.00000000000E+00 0.  1.
          1   -1    0    0  502    0  0.00000000000E+00 -0.00000000000E+00 -0.63051088006E+03  0.63051088006E+03  0.00000000000E+00 0. -1.
        -24    2    1    2    0    0  0.18694071347E+02 -0.75830875641E+02 -0.16281336494E+03  0.19858802254E+03  0.82639100246E+02 0.  0.
         23    2    1    2    0    0  0.14011896960E+02  0.65330356463E+02 -0.36058293617E+03  0.37848271149E+03  0.93620084972E+02 0.  0.
         13    1    3    3    0    0  0.23254474626E+02 -0.79468943888E+02 -0.17014230005E+03  0.18922073327E+03  0.00000000000E+00 0. -1.
        -14    1    3    3    0    0 -0.45604032789E+01  0.36380682475E+01  0.73289351035E+01  0.93672892765E+01  0.00000000000E+00 0.  1.
        -11    1    4    4    0    0  0.21496676577E+02 -0.16581989340E+02 -0.14939920193E+03  0.15184594499E+03  0.00000000000E+00 0.  1.
         11    1    4    4    0    0 -0.74847796174E+01  0.81912345803E+02 -0.21118373424E+03  0.22663676650E+03  0.00000000000E+00 0. -1.
         21    1    1    2  502  501 -0.32705968307E+02  0.10500519178E+02 -0.76602785905E+02  0.83951939074E+02  0.00000000000E+00 0. -1.
<scales pt_clust_5="13000.00000" pt_clust_6="13000.00000" pt_clust_7="13000.00000" pt_clust_8="13000.00000" pt_clust_9="34.35027"></scales>
<clustering>
<clus scale="   34.350">  2  9  1 -1</clus>
<clus scale="   82.639">  5  6 -1 -1</clus>
<clus scale="   93.620">  7  8 -1 -1</clus>
<clus scale="  110.144">  1  5  2 -1</clus>
<clus scale="   34.350">  2  5  1 -1</clus>
</clustering>
</event>
<event>
 9    1  0.2951046E-005  0.1241734E+03  0.7546771E-02  0.1249629E+00
         -2   -1    0    0    0  501 -0.00000000000E+00  0.00000000000E+00  0.89317076041E+02  0.89317076041E+02  0.00000000000E+00 0.  1.
          1   -1    0    0  502    0  0.00000000000E+00 -0.00000000000E+00 -0.73067922023E+03  0.73067922023E+03  0.00000000000E+00 0. -1.
         23    2    1    2    0    0  0.46665742129E+01  0.16942504046E+02  0.40451816752E+02  0.10323423925E+03  0.93338809273E+02 0.  0.
        -24    2    1    2    0    0  0.91804618687E+02 -0.20544958005E+02 -0.41662757289E+03  0.43455027636E+03  0.80032648870E+02 0.  0.
         13    1    4    4    0    0  0.25745006073E+02 -0.43672925658E+02 -0.13087840098E+03  0.14035414356E+03  0.00000000000E+00 0. -1.
        -14    1    4    4    0    0  0.66059612614E+02  0.23127967653E+02 -0.28574917191E+03  0.29419613280E+03  0.00000000000E+00 0.  1.
        -11    1    3    3    0    0  0.27171388774E+02  0.48857995562E+02  0.22733885353E+02  0.60350788243E+02  0.00000000000E+00 0.  1.
         11    1    3    3    0    0 -0.22504814561E+02 -0.31915491517E+02  0.17717931399E+02  0.42883451006E+02  0.00000000000E+00 0. -1.
         21    1    1    2  502  501 -0.96471192900E+02  0.36024539595E+01 -0.26518638805E+03  0.28221178066E+03  0.00000000000E+00 0. -1.
<scales pt_clust_5="13000.00000" pt_clust_6="13000.00000" pt_clust_7="13000.00000" pt_clust_8="13000.00000" pt_clust_9="94.94102"></scales>
<clustering>
<clus scale="   80.033">  5  6 -1 -1</clus>
<clus scale="   93.339">  7  8 -1 -1</clus>
<clus scale="   94.979">  1  7  2 -1</clus>
<clus scale="   94.941">  1  9  2 -1</clus>
<clus scale="  124.173">  2  5  1 -1</clus>
</clustering>
</event>
<event>
 9    1  0.2951046E-005  0.2619932E+03  0.7546771E-02  0.1106250E+00
         -2   -1    0    0    0  501 -0.00000000000E+00  0.00000000000E+00  0.20160739608E+03  0.20160739608E+03  0.00000000000E+00 0.  1.
          1   -1    0    0  502    0  0.00000000000E+00 -0.00000000000E+00 -0.66231608206E+03  0.66231608206E+03  0.00000000000E+00 0. -1.
         23    2    1    2    0    0 -0.24223288186E+03 -0.15754117139E+02  0.58098023345E+02  0.26519231714E+03  0.89591425329E+02 0.  0.
        -24    2    1    2    0    0  0.26279698029E+03  0.22700386191E+02 -0.48903329728E+03  0.56188568825E+03  0.83572725369E+02 0.  0.
         11    1    4    4    0    0  0.17985173611E+03  0.50890002838E+02 -0.29872560349E+03  0.35238249893E+03  0.00000000000E+00 0. -1.
        -12    1    4    4    0    0  0.82945244177E+02 -0.28189616646E+02 -0.19030769380E+03  0.20950318932E+03  0.00000000000E+00 0.  1.
        -11    1    3    3    0    0 -0.28624848157E+02 -0.33600990764E+02  0.14408686611E+02  0.46432949100E+02  0.00000000000E+00 0. -1.
         11    1    3    3    0    0 -0.21360803371E+03  0.17846873625E+02  0.43689336734E+02  0.21875936804E+03  0.00000000000E+00 0.  1.
         21    1    1    2  502  501 -0.20564098426E+02 -0.69462690527E+01 -0.29773412035E+02  0.36845472748E+02  0.00000000000E+00 0. -1.
<scales pt_clust_5="13000.00000" pt_clust_6="13000.00000" pt_clust_7="13000.00000" pt_clust_8="13000.00000" pt_clust_9="21.70559"></scales>
<clustering>
<clus scale="   21.706">  2  9  1 -1</clus>
<clus scale="   83.573">  5  6 -1 -1</clus>
<clus scale="   89.591">  7  8 -1 -1</clus>
<clus scale="  259.997">  2  5  1 -1</clus>
<clus scale="   21.706">  2  5  1 -1</clus>
</clustering>
</event>
<event>
 9    1  0.2951046E-005  0.2133215E+03  0.7546771E-02  0.1140294E+00
          1   -1    0    0  502    0  0.00000000000E+00  0.00000000000E+00  0.49258499520E+03  0.49258499520E+03  0.00000000000E+00 0. -1.
         -2   -1    0    0    0  501 -0.00000000000E+00 -0.00000000000E+00 -0.85021310161E+03  0.85021310161E+03  0.00000000000E+00 0.  1.
         23    2    1    2    0    0  0.69284669072E+02 -0.17476994450E+03 -0.71740928475E+03  0.74774549330E+03  0.95406194891E+02 0.  0.
        -24    2    1    2    0    0 -0.19745499766E+03  0.20688588929E+03  0.35519255948E+03  0.46284018933E+03  0.79177264781E+02 0.  0.
         11    1    4    4    0    0 -0.13996082113E+03  0.14224165089E+03  0.29970471464E+03  0.36006198727E+03  0.00000000000E+00 0. -1.
        -12    1    4    4    0    0 -0.57494176531E+02  0.64644238397E+02  0.55487844839E+02  0.10277820206E+03  0.00000000000E+00 0.  1.
        -11    1    3    3    0    0  0.25775231082E+02 -0.10360706852E+02 -0.36216753380E+02  0.45643838677E+02  0.00000000000E+00 0. -1.
         11    1    3    3    0    0  0.43509437990E+02 -0.16440923765E+03 -0.68119253137E+03  0.70210165462E+03  0.00000000000E+00 0.  1.
         21    1    1    2  502  501  0.12817032859E+03 -0.32115944786E+02  0.45886188569E+01  0.13221241418E+03  0.00000000000E+00 0. -1.
<scales pt_clust_5="13000.00000" pt_clust_6="13000.00000" pt_clust_7="13000.00000" pt_clust_8="13000.00000" pt_clust_9="132.13276"></scales>
<clustering>
<clus scale="   79.177">  5  6 -1 -1</clus>
<clus scale="   95.406">  7  8 -1 -1</clus>
<clus scale="  132.133">  1  9  2 -1</clus>
<clus scale="  206.574">  1  5  2 -1</clus>
<clus scale="  132.133">  1  5  2 -1</clus>
</clustering>
</event>
<event>
 9    1  0.2951046E-005  0.9888723E+02  0.7546771E-02  0.1290981E+00
         -2   -1    0    0    0  501 -0.00000000000E+00  0.00000000000E+00  0.53059595298E+02  0.53059595298E+02  0.00000000000E+00 0.  1.
          1   -1    0    0  502    0  0.00000000000E+00 -0.00000000000E+00 -0.33846520243E+03  0.33846520243E+03  0.00000000000E+00 0. -1.
        -24    2    1    2    0    0 -0.40517426377E+02  0.42085592000E+02 -0.47404830441E+02  0.10671865828E+03  0.75688804860E+02 0.  0.
         23    2    1    2    0    0 -0.22370828097E+00  0.78045866521E+01 -0.14768280749E+03  0.17387280118E+03  0.91436194933E+02 0.  0.
         11    1    3    3    0    0 -0.40559981652E+02  0.10356905001E+02  0.82389206602E+01  0.42664474759E+02  0.00000000000E+00 0. -1.
        -12    1    3    3    0    0  0.42555274741E-01  0.31728686999E+02 -0.55643751102E+02  0.64054183519E+02  0.00000000000E+00 0.  1.
        -11    1    4    4    0    0  0.38108406128E+02 -0.83663404343E+01 -0.30496412807E+02  0.49520475199E+02  0.00000000000E+00 0.  1.
         11    1    4    4    0    0 -0.38332114409E+02  0.16170927086E+02 -0.11718639469E+03  0.12435232598E+03  0.00000000000E+00 0. -1.
         21    1    1    2  502  501  0.40741134658E+02 -0.49890178652E+02 -0.90317969193E+02  0.11093333826E+03  0.00000000000E+00 0.  1.
<scales pt_clust_5="13000.00000" pt_clust_6="13000.00000" pt_clust_7="13000.00000" pt_clust_8="13000.00000" pt_clust_9="64.41172"></scales>
<clustering>
<clus scale="   64.412">  2  9  1 -1</clus>
<clus scale="   75.689">  5  6 -1 -1</clus>
<clus scale="   84.539">  1  5  2 -1</clus>
<clus scale="   91.436">  7  8 -1 -1</clus>
<clus scale="   64.412">  2  5  1 -1</clus>
</clustering>
</event>
<event>
 9    1  0.2951046E-005  0.1337119E+03  0.7546771E-02  0.1226125E+00
         -2   -1    0    0    0  501 -0.00000000000E+00  0.00000000000E+00  0.22617233694E+03  0.22617233694E+03  0.00000000000E+00 0.  1.
          1   -1    0    0  502    0  0.00000000000E+00 -0.00000000000E+00 -0.29990917506E+03  0.29990917506E+03  0.00000000000E+00 0. -1.
        -24    2    1    2    0    0  0.45960303381E+02 -0.53911186583E+02  0.52300671738E+02  0.11411461375E+03  0.72581122072E+02 0.  0.
         23    2    1    2    0    0 -0.13347243975E+03  0.88990823647E+02  0.68179273900E+02  0.19607545785E+03  0.89793724258E+02 0.  0.
         13    1    3    3    0    0  0.29952118298E+02 -0.31687651123E+02 -0.11148981773E+02  0.45005959814E+02  0.00000000000E+00 0. -1.
        -14    1    3    3    0    0  0.16008185083E+02 -0.22223535461E+02  0.63449653511E+02  0.69108653935E+02  0.00000000000E+00 0.  1.
        -13    1    4    4    0    0 -0.43180430826E+01  0.43962325964E+02  0.32138833786E+02  0.54628163408E+02  0.00000000000E+00 0.  1.
         13    1    4    4    0    0 -0.12915439666E+03  0.45028497683E+02  0.36040440114E+02  0.14144729444E+03  0.00000000000E+00 0. -1.
         21    1    1    2  502  501  0.87512136365E+02 -0.35079637064E+02 -0.19421678376E+03  0.21589144041E+03  0.00000000000E+00 0.  1.
<scales pt_clust_5="13000.00000" pt_clust_6="13000.00000" pt_clust_7="13000.00000" pt_clust_8="13000.00000" pt_clust_9="94.28125"></scales>
<clustering>
<clus scale="   72.581">  5  6 -1 -1</clus>
<clus scale="   89.794">  7  8 -1 -1</clus>
<clus scale="   94.281">  2  9  1 -1</clus>
<clus scale="  122.817">  1  5  2 -1</clus>
<clus scale="   94.281">  2  5  1 -1</clus>
</clustering>
</event>
<event>
 9    1  0.2951046E-005  0.2665397E+03  0.7546771E-02  0.1104491E+00
          1   -1    0    0  502    0  0.00000000000E+00  0.00000000000E+00  0.96630852672E+03  0.96630852672E+03  0.00000000000E+00 0. -1.
         -2   -1    0    0    0  501 -0.00000000000E+00 -0.00000000000E+00 -0.21864680495E+03  0.21864680495E+03  0.00000000000E+00 0.  1.
         23    2    1    2    0    0  0.11281234947E+03  0.18228956311E+03 -0.19493124713E+01  0.23725956634E+03  0.10164738554E+03 0.  0.
        -24    2    1    2    0    0 -0.12023227391E+03 -0.33691965738E+03  0.30355598001E+03  0.47554045960E+03  0.77600518682E+02 0.  0.
         11    1    4    4    0    0 -0.97782540919E+02 -0.20695465373E+03  0.23017641373E+03  0.32461182272E+03  0.00000000000E+00 0. -1.
        -12    1    4    4    0    0 -0.22449732994E+02 -0.12996500364E+03  0.73379566280E+02  0.15092863688E+03  0.00000000000E+00 0.  1.
        -11    1    3    3    0    0  0.29618016143E+02  0.11125789532E+03  0.37322484945E+02  0.12103104575E+03  0.00000000000E+00 0. -1.
         11    1    3    3    0    0  0.83194333329E+02  0.71031667785E+02 -0.39271797416E+02  0.11622852059E+03  0.00000000000E+00 0.  1.
         21    1    1    2  502  501  0.74199244406E+01  0.15463009427E+03  0.44605505422E+03  0.47215530573E+03  0.00000000000E+00 0. -1.
<scales pt_clust_5="13000.00000" pt_clust_6="13000.00000" pt_clust_7="13000.00000" pt_clust_8="13000.00000" pt_clust_9="154.80801"></scales>
<clustering>
<clus scale="   77.601">  5  6 -1 -1</clus>
<clus scale="  101.647">  7  8 -1 -1</clus>
<clus scale="  154.808">  1  9  2 -1</clus>
<clus scale="  258.327">  1  5  2 -1</clus>
<clus scale="  154.808">  1  5  2 -1</clus>
</clustering>
</event>
<event>
 9    1  0.2951046E-005  0.9519720E+02  0.7546771E-02  0.1297685E+00
          1   -1    0    0  502    0  0.00000000000E+00  0.00000000000E+00  0.61817148646E+03  0.61817148646E+03  0.00000000000E+00 0. -1.
         -2   -1    0    0    0  501 -0.00000000000E+00 -0.00000000000E+00 -0.61692046423E+02  0.61692046423E+02  0.00000000000E+00 0.  1.
         23    2    1    2    0    0 -0.27601297815E+02  0.26425077330E+02 -0.19861331110E+01  0.97498096005E+02  0.89676182160E+02 0.  0.
        -24    2    1    2    0    0  0.29568244940E+02  0.30473793277E+02  0.18933656076E+03  0.20887169109E+03  0.77305348535E+02 0.  0.
         11    1    4    4    0    0  0.41767850458E+02 -0.98447670316E+00  0.15577894233E+03  0.16128422552E+03  0.00000000000E+00 0. -1.
        -12    1    4    4    0    0 -0.12199605518E+02  0.31458269981E+02  0.33557618425E+02  0.47587465569E+02  0.00000000000E+00 0.  1.
        -13    1    3    3    0    0 -0.40739994986E+02 -0.99420174742E+01  0.26378848694E+02  0.49542250265E+02  0.00000000000E+00 0. -1.
         13    1    3    3    0    0  0.13138697171E+02  0.36367094805E+02 -0.28364981805E+02  0.47955845740E+02  0.00000000000E+00 0.  1.
         21    1    1    2  502  501 -0.19669471253E+01 -0.56898870608E+02  0.36912901239E+03  0.37349374579E+03  0.00000000000E+00 0. -1.
<scales pt_clust_5="13000.00000" pt_clust_6="13000.00000" pt_clust_7="13000.00000" pt_clust_8="13000.00000" pt_clust_9="56.93286"></scales>
<clustering>
<clus scale="   56.933">  1  9  2 -1</clus>
<clus scale="   77.305">  5  6 -1 -1</clus>
<clus scale="   83.647">  1  5  2 -1</clus>
<clus scale="   89.676">  7  8 -1 -1</clus>
<clus scale="   56.933">  1  5  2 -1</clus>
</clustering>
</event>
<event>
 9    1  0.2951046E-005  0.1746711E+03  0.7546771E-02  0.1177289E+00
          1   -1    0    0  502    0  0.00000000000E+00  0.00000000000E+00  0.57036252575E+03  0.57036252575E+03  0.00000000000E+00 0. -1.
         -2   -1    0    0    0  501 -0.00000000000E+00 -0.00000000000E+00 -0.10152274280E+03  0.10152274280E+03  0.00000000000E+00 0.  1.
        -24    2    1    2    0    0  0.54646256369E+02 -0.12542795943E+03 -0.16903313135E+01  0.15955633141E+03  0.82079104118E+02 0.  0.
         23    2    1    2    0    0 -0.32050057246E+02  0.12881762530E+03  0.35539189438E+03  0.39494543008E+03  0.10980577121E+03 0.  0.
         13    1    3    3    0    0  0.64973026432E+02 -0.78921383561E+02  0.24600356044E+02  0.10514397969E+03  0.00000000000E+00 0. -1.
        -14    1    3    3    0    0 -0.10326770062E+02 -0.46506575867E+02 -0.26290687357E+02  0.54412351728E+02  0.00000000000E+00 0.  1.
        -13    1    4    4    0    0 -0.31965264638E+02 -0.77484946218E+01  0.10091243891E+03  0.10613735270E+03  0.00000000000E+00 0.  1.
         13    1    4    4    0    0 -0.84792607710E-01  0.13656611992E+03  0.25447945548E+03  0.28880807738E+03  0.00000000000E+00 0. -1.
         21    1    1    2  502  501 -0.22596199123E+02 -0.33896658675E+01  0.11513821988E+03  0.11738350705E+03  0.00000000000E+00 0.  1.
<scales pt_clust_5="13000.00000" pt_clust_6="13000.00000" pt_clust_7="13000.00000" pt_clust_8="13000.00000" pt_clust_9="22.84903"></scales>
<clustering>
<clus scale="   22.849">  1  9  2 -1</clus>
<clus scale="   82.079">  5  6 -1 -1</clus>
<clus scale="  109.806">  7  8 -1 -1</clus>
<clus scale="  158.713">  2  5  1 -1</clus>
<clus scale="   22.849">  1  5  2 -1</clus>
</clustering>
</event>
<event>
 9    1  0.2951046E-005  0.1066665E+03  0.7546771E-02  0.1270801E+00
          1   -1    0    0  502    0  0.00000000000E+00  0.00000000000E+00  0.22633215192E+03  0.22633215192E+03  0.00000000000E+00 0. -1.
         -2   -1    0    0    0  501 -0.00000000000E+00 -0.00000000000E+00 -0.12649690540E+03  0.12649690540E+03  0.00000000000E+00 0.  1.
        -24    2    1    2    0    0 -0.21814626635E+02 -0.52028120631E+02 -0.66833648988E+02  0.11880495214E+03  0.80405700939E+02 0.  0.
         23    2    1    2    0    0 -0.14726134165E+02  0.70813119603E+02  0.87313343927E+02  0.14466300093E+03  0.89846574078E+02 0.  0.
         11    1    3    3    0    0 -0.39620420907E+02 -0.13729444985E+02 -0.27069335983E+01  0.42019077833E+02  0.00000000000E+00 0. -1.
        -12    1    3    3    0    0  0.17805794272E+02 -0.38298675647E+02 -0.64126715390E+02  0.76785874304E+02  0.00000000000E+00 0.  1.
        -13    1    4    4    0    0  0.71416399586E+01  0.22364620881E+02 -0.16045739059E+02  0.28436684589E+02  0.00000000000E+00 0.  1.
         13    1    4    4    0    0 -0.21867774123E+02  0.48448498722E+02  0.10335908299E+03  0.11622631634E+03  0.00000000000E+00 0. -1.
         21    1    1    2  502  501  0.36540760800E+02 -0.18784998972E+02  0.79355551580E+02  0.89361104250E+02  0.00000000000E+00 0. -1.
<scales pt_clust_5="13000.00000" pt_clust_6="13000.00000" pt_clust_7="13000.00000" pt_clust_8="13000.00000" pt_clust_9="41.08654"></scales>
<clustering>
<clus scale="   41.087">  1  9  2 -1</clus>
<clus scale="   80.406">  5  6 -1 -1</clus>
<clus scale="   89.847">  7  8 -1 -1</clus>
<clus scale="   98.845">  2  5  1 -1</clus>
<clus scale="   41.087">  1  5  2 -1</clus>
</clustering>
</event>
<event>
 9    1  0.2951046E-005  0.1118061E+03  0.7546771E-02  0.1260508E+00
          1   -1    0    0  502    0  0.00000000000E+00  0.00000000000E+00  0.33774686415E+03  0.33774686415E+03  0.00000000000E+00 0. -1.
         -2   -1    0    0    0  501 -0.00000000000E+00 -0.00000000000E+00 -0.28172037078E+03  0.28172037078E+03  0.00000000000E+00 0.  1.
        -24    2    1    2    0    0  0.16026601383E+02 -0.62689059653E+02 -0.24958745970E+03  0.27068646317E+03  0.82404436479E+02 0.  0.
         23    2    1    2    0    0  0.21690808416E+02  0.75217503170E+02  0.17486321518E+03  0.21212309596E+03  0.91054378611E+02 0.  0.
         11    1    3    3    0    0 -0.30171601543E+02 -0.39178943344E+02 -0.87433301505E+02  0.10044848109E+03  0.00000000000E+00 0. -1.
        -12    1    3    3    0    0  0.46198202926E+02 -0.23510116309E+02 -0.16215415819E+03  0.17023798208E+03  0.00000000000E+00 0.  1.
        -13    1    4    4    0    0  0.20707087918E+02  0.33539845302E+02  0.16451159787E+03  0.16916787681E+03  0.00000000000E+00 0. -1.
         13    1    4    4    0    0  0.98372049852E+00  0.41677657867E+02  0.10351617319E+02  0.42955219152E+02  0.00000000000E+00 0.  1.
         21    1    1    2  502  501 -0.37717409799E+02 -0.12528443517E+02  0.13075073788E+03  0.13665767580E+03  0.00000000000E+00 0. -1.
<scales pt_clust_5="13000.00000" pt_clust_6="13000.00000" pt_clust_7="13000.00000" pt_clust_8="13000.00000" pt_clust_9="39.74374"></scales>
<clustering>
<clus scale="   39.744">  1  9  2 -1</clus>
<clus scale="   82.404">  5  6 -1 -1</clus>
<clus scale="   91.054">  7  8 -1 -1</clus>
<clus scale="  104.882">  2  5  1 -1</clus>
<clus scale="   39.744">  1  5  2 -1</clus>
</clustering>
</event>
<event>
 9    1  0.2951046E-005  0.9481073E+02  0.7546771E-02  0.1298317E+00
         -2   -1    0    0    0  501 -0.00000000000E+00  0.00000000000E+00  0.42783811454E+03  0.42783811454E+03  0.00000000000E+00 0.  1.
          1   -1    0    0  502    0  0.00000000000E+00 -0.00000000000E+00 -0.43715255526E+02  0.43715255526E+02  0.00000000000E+00 0. -1.
        -24    2    1    2    0    0  0.16182091457E+02  0.54350865069E+01  0.32310430754E+03  0.33358635942E+03  0.81191535203E+02 0.  0.
         23    2    1    2    0    0 -0.37867914362E+02 -0.12545365758E+02  0.47825754210E+02  0.11160641722E+03  0.92613845938E+02 0.  0.
         13    1    3    3    0    0  0.42052475031E+02  0.10493134047E+02  0.10077905366E+03  0.10970384758E+03  0.00000000000E+00 0. -1.
        -14    1    3    3    0    0 -0.25870383574E+02 -0.50580475402E+01  0.22232525388E+03  0.22388251183E+03  0.00000000000E+00 0.  1.
        -11    1    4    4    0    0 -0.16873288269E+02  0.34582984139E+02  0.46011659250E+02  0.59981359070E+02  0.00000000000E+00 0.  1.
         11    1    4    4    0    0 -0.20994626092E+02 -0.47128349897E+02  0.18140949606E+01  0.51625058153E+02  0.00000000000E+00 0. -1.
         21    1    1    2  502  501  0.21685822905E+02  0.71102792513E+01  0.13192797259E+02  0.26360593423E+02  0.00000000000E+00 0.  1.
<scales pt_clust_5="13000.00000" pt_clust_6="13000.00000" pt_clust_7="13000.00000" pt_clust_8="13000.00000" pt_clust_9="22.82172"></scales>
<clustering>
<clus scale="   22.822">  2  9  1 -1</clus>
<clus scale="   81.192">  5  6 -1 -1</clus>
<clus scale="   83.689">  1  5  2 -1</clus>
<clus scale="   92.614">  7  8 -1 -1</clus>
<clus scale="   22.822">  2  5  1 -1</clus>
</clustering>
</event>
<event>
 9    1  0.2951046E-005  0.1248561E+03  0.7546771E-02  0.1238366E+00
          1   -1    0    0  502    0  0.00000000000E+00  0.00000000000E+00  0.54356106641E+03  0.54356106641E+03  0.00000000000E+00 0. -1.
         -2   -1    0    0    0  501 -0.00000000000E+00 -0.00000000000E+00 -0.71035399518E+02  0.71035399518E+02  0.00000000000E+00 0.  1.
        -24    2    1    2    0    0  0.10665620487E+03  0.11053451232E+02  0.37780707300E+02  0.13817260710E+03  0.78527464551E+02 0.  0.
         23    2    1    2    0    0 -0.53407999055E+02 -0.31919903365E+01  0.12841333314E+03  0.16539935922E+03  0.89467093041E+02 0.  0.
         13    1    3    3    0    0  0.51102816744E+02 -0.26763991088E+02 -0.59502328870E+01  0.57993226928E+02  0.00000000000E+00 0. -1.
        -14    1    3    3    0    0  0.55553388123E+02  0.37817442321E+02  0.43730940187E+02  0.80179380175E+02  0.00000000000E+00 0.  1.
        -11    1    4    4    0    0 -0.52926232133E+02  0.28860053180E+02  0.11655286345E+03  0.13121988681E+03  0.00000000000E+00 0. -1.
         11    1    4    4    0    0 -0.48176692212E+00 -0.32052043516E+02  0.11860469697E+02  0.34179472412E+02  0.00000000000E+00 0.  1.
         21    1    1    2  502  501 -0.53248205812E+02 -0.78614608958E+01  0.30633162645E+03  0.31102449960E+03  0.00000000000E+00 0. -1.
<scales pt_clust_5="13000.00000" pt_clust_6="13000.00000" pt_clust_7="13000.00000" pt_clust_8="13000.00000" pt_clust_9="53.82540"></scales>
<clustering>
<clus scale="   53.825">  1  9  2 -1</clus>
<clus scale="   78.527">  5  6 -1 -1</clus>
<clus scale="   89.467">  7  8 -1 -1</clus>
<clus scale="  117.266">  2  5  1 -1</clus>
<clus scale="   53.825">  1  5  2 -1</clus>
</clustering>
</event>
<event>
 9    1  0.2951046E-005  0.1071107E+03  0.7546771E-02  0.1275806E+00
          3   -1    0    0  502    0  0.00000000000E+00  0.00000000000E+00  0.50433625623E+03  0.50433625623E+03  0.00000000000E+00 0. -1.
         -4   -1    0    0    0  501 -0.00000000000E+00 -0.00000000000E+00 -0.68926645123E+02  0.68926645123E+02  0.00000000000E+00 0.  1.
         23    2    1    2    0    0  0.14671507077E+02  0.20573627661E+02  0.69144017147E+01  0.10453816674E+03  0.10120223357E+03 0.  0.
        -24    2    1    2    0    0 -0.23874743514E+02 -0.87712230024E+02  0.28522066942E+03  0.31023219443E+03  0.81423249284E+02 0.  0.
         11    1    4    4    0    0  0.51531021738E+01 -0.70155996546E+02  0.25590183469E+03  0.26539436187E+03  0.00000000000E+00 0. -1.
        -12    1    4    4    0    0 -0.29027845688E+02 -0.17556233479E+02  0.29318834734E+02  0.44837832568E+02  0.00000000000E+00 0.  1.
        -13    1    3    3    0    0 -0.35582655071E+02 -0.18525398443E+02  0.77595749201E+01  0.40859842539E+02  0.00000000000E+00 0. -1.
         13    1    3    3    0    0  0.50254162148E+02  0.39099026104E+02 -0.84517320547E+00  0.63678324202E+02  0.00000000000E+00 0.  1.
         21    1    1    2  502  501  0.92032364375E+01  0.67138602363E+02  0.14327453997E+03  0.15849254018E+03  0.00000000000E+00 0.  1.
<scales pt_clust_5="13000.00000" pt_clust_6="13000.00000" pt_clust_7="13000.00000" pt_clust_8="13000.00000" pt_clust_9="67.76645"></scales>
<clustering>
<clus scale="   67.766">  1  9  2 -1</clus>
<clus scale="   81.423">  5  6 -1 -1</clus>
<clus scale="   88.660">  1  5  2 -1</clus>
<clus scale="  101.202">  7  8 -1 -1</clus>
<clus scale="   67.766">  1  5  2 -1</clus>
</clustering>
</event>
<event>
 9    1  0.2951046E-005  0.1023626E+03  0.7546771E-02  0.1280580E+00
          1   -1    0    0  502    0  0.00000000000E+00  0.00000000000E+00  0.12171252573E+03  0.12171252573E+03  0.00000000000E+00 0. -1.
         -2   -1    0    0    0  501 -0.00000000000E+00 -0.00000000000E+00 -0.42488091242E+03  0.42488091242E+03  0.00000000000E+00 0.  1.
        -24    2    1    2    0    0  0.43695475254E+02  0.13640230287E+02 -0.34680277054E+03  0.35887695123E+03  0.80157058532E+02 0.  0.
         23    2    1    2    0    0 -0.43522290428E+02 -0.34308129610E+02 -0.30358549280E+02  0.11089106008E+03  0.91126001613E+02 0.  0.
         13    1    3    3    0    0 -0.62827767357E+01 -0.27058637103E+02 -0.97932342335E+02  0.10179580935E+03  0.00000000000E+00 0. -1.
        -14    1    3    3    0    0  0.49978251990E+02  0.40698867390E+02 -0.24887042820E+03  0.25708114188E+03  0.00000000000E+00 0.  1.
        -11    1    4    4    0    0 -0.42063985256E+02 -0.15265224879E+00 -0.54642051948E+02  0.68957639166E+02  0.00000000000E+00 0.  1.
         11    1    4    4    0    0 -0.14583051713E+01 -0.34155477361E+02  0.24283502668E+02  0.41933420914E+02  0.00000000000E+00 0. -1.
         21    1    1    2  502  501 -0.17318482675E+00  0.20667899323E+02  0.73992933132E+02  0.76825426838E+02  0.00000000000E+00 0. -1.
<scales pt_clust_5="13000.00000" pt_clust_6="13000.00000" pt_clust_7="13000.00000" pt_clust_8="13000.00000" pt_clust_9="20.66862"></scales>
<clustering>
<clus scale="   20.669">  1  9  2 -1</clus>
<clus scale="   80.157">  5  6 -1 -1</clus>
<clus scale="   91.126">  7  8 -1 -1</clus>
<clus scale="   92.732">  2  5  1 -1</clus>
<clus scale="   20.669">  1  5  2 -1</clus>
</clustering>
</event>
<event>
 9    1  0.2951046E-005  0.2328651E+03  0.7546771E-02  0.1125104E+00
         -2   -1    0    0    0  501 -0.00000000000E+00  0.00000000000E+00  0.18353330456E+03  0.18353330456E+03  0.00000000000E+00 0.  1.
          1   -1    0    0  502    0  0.00000000000E+00 -0.00000000000E+00 -0.91318711527E+03  0.91318711527E+03  0.00000000000E+00 0. -1.
         23    2    1    2    0    0 -0.15724798128E+03 -0.15195097415E+03  0.74486589403E+02  0.24797476111E+03  0.90151006563E+02 0.  0.
        -24    2    1    2    0    0  0.10801443555E+03  0.14698914670E+03 -0.74574056280E+03  0.77220088257E+03  0.83019807920E+02 0.  0.
         11    1    4    4    0    0  0.49214384157E+02  0.11664751167E+03 -0.38034639401E+03  0.40086416281E+03  0.00000000000E+00 0. -1.
        -12    1    4    4    0    0  0.58800051390E+02  0.30341635023E+02 -0.36539416879E+03  0.37133671976E+03  0.00000000000E+00 0.  1.
        -13    1    3    3    0    0 -0.20305543169E+02 -0.36146742407E+02 -0.19139085669E+02  0.45664063225E+02  0.00000000000E+00 0. -1.
         13    1    3    3    0    0 -0.13694243811E+03 -0.11580423174E+03  0.93625675072E+02  0.20231069788E+03  0.00000000000E+00 0.  1.
         21    1    1    2  502  501  0.49233545733E+02  0.49618274530E+01 -0.58399837317E+02  0.76544776149E+02  0.00000000000E+00 0. -1.
<scales pt_clust_5="13000.00000" pt_clust_6="13000.00000" pt_clust_7="13000.00000" pt_clust_8="13000.00000" pt_clust_9="49.48294"></scales>
<clustering>
<clus scale="   49.483">  2  9  1 -1</clus>
<clus scale="   83.020">  5  6 -1 -1</clus>
<clus scale="   90.151">  7  8 -1 -1</clus>
<clus scale="  230.198">  2  5  1 -1</clus>
<clus scale="   49.483">  2  5  1 -1</clus>
</clustering>
</event>
<event>
 9    1  0.2951046E-005  0.1135672E+03  0.7546771E-02  0.1255040E+00
          1   -1    0    0  502    0  0.00000000000E+00  0.00000000000E+00  0.55433542048E+03  0.55433542048E+03  0.00000000000E+00 0. -1.
         -2   -1    0    0    0  501 -0.00000000000E+00 -0.00000000000E+00 -0.14976273470E+03  0.14976273470E+03  0.00000000000E+00 0.  1.
         23    2    1    2    0    0 -0.50100691296E+02 -0.44414302920E+02 -0.10336854445E+03  0.15225933839E+03  0.89527317466E+02 0.  0.
        -24    2    1    2    0    0  0.10635528277E+03  0.62439117508E+02  0.41651396397E+03  0.44298837802E+03  0.86860412781E+02 0.  0.
         11    1    4    4    0    0  0.93328145614E+02  0.13353887762E+02  0.32416752196E+03  0.33759895049E+03  0.00000000000E+00 0. -1.
        -12    1    4    4    0    0  0.13027137159E+02  0.49085229746E+02  0.92346442017E+02  0.10538942753E+03  0.00000000000E+00 0.  1.
        -11    1    3    3    0    0 -0.75430109328E+02 -0.23679756503E+02 -0.73267631764E+02  0.10778950842E+03  0.00000000000E+00 0.  1.
         11    1    3    3    0    0  0.25329418031E+02 -0.20734546417E+02 -0.30100912691E+02  0.44469829972E+02  0.00000000000E+00 0. -1.
         21    1    1    2  502  501 -0.56254591477E+02 -0.18024814587E+02  0.91427266260E+02  0.10885043876E+03  0.00000000000E+00 0. -1.
<scales pt_clust_5="13000.00000" pt_clust_6="13000.00000" pt_clust_7="13000.00000" pt_clust_8="13000.00000" pt_clust_9="59.07176"></scales>
<clustering>
<clus scale="   59.072">  1  9  2 -1</clus>
<clus scale="   86.860">  5  6 -1 -1</clus>
<clus scale="   89.527">  7  8 -1 -1</clus>
<clus scale="  111.477">  1  5  2 -1</clus>
<clus scale="   59.072">  1  5  2 -1</clus>
</clustering>
</event>
<event>
 9    1  0.2951046E-005  0.1399797E+03  0.7546771E-02  0.1213644E+00
          1   -1    0    0  502    0  0.00000000000E+00  0.00000000000E+00  0.63039891933E+03  0.63039891933E+03  0.00000000000E+00 0. -1.
         -2   -1    0    0    0  501 -0.00000000000E+00 -0.00000000000E+00 -0.22504658010E+03  0.22504658010E+03  0.00000000000E+00 0.  1.
         23    2    1    2    0    0 -0.91829073036E+02  0.55501005704E+02 -0.18138847937E+03  0.22952601878E+03  0.90925643035E+02 0.  0.
        -24    2    1    2    0    0  0.10375761106E+03  0.35934970231E+01  0.51117307174E+03  0.52925027854E+03  0.89606880266E+02 0.  0.
         13    1    4    4    0    0  0.10122672479E+03  0.29828545778E+02  0.45672579815E+03  0.46875904968E+03  0.00000000000E+00 0. -1.
        -14    1    4    4    0    0  0.25308862641E+01 -0.26235048755E+02  0.54447273585E+02  0.60491228863E+02  0.00000000000E+00 0.  1.
        -13    1    3    3    0    0 -0.28793174449E+01  0.50875417345E+02 -0.55895947724E+02  0.75636998427E+02  0.00000000000E+00 0. -1.
         13    1    3    3    0    0 -0.88949755591E+02  0.46255883589E+01 -0.12549253164E+03  0.15388902035E+03  0.00000000000E+00 0.  1.
         21    1    1    2  502  501 -0.11928538023E+02 -0.59094502727E+02  0.75567746852E+02  0.96669202108E+02  0.00000000000E+00 0. -1.
<scales pt_clust_5="13000.00000" pt_clust_6="13000.00000" pt_clust_7="13000.00000" pt_clust_8="13000.00000" pt_clust_9="60.28640"></scales>
<clustering>
<clus scale="   60.286">  1  9  2 -1</clus>
<clus scale="   89.607">  5  6 -1 -1</clus>
<clus scale="   90.926">  7  8 -1 -1</clus>
<clus scale="  139.127">  1  5  2 -1</clus>
<clus scale="   60.286">  1  5  2 -1</clus>
</clustering>
</event>
<event>
 9    1  0.2951046E-005  0.9157473E+02  0.7546771E-02  0.1315826E+00
          1   -1    0    0  502    0  0.00000000000E+00  0.00000000000E+00  0.25148340452E+03  0.25148340452E+03  0.00000000000E+00 0. -1.
         -2   -1    0    0    0  501 -0.00000000000E+00 -0.00000000000E+00 -0.80099282818E+02  0.80099282818E+02  0.00000000000E+00 0.  1.
        -24    2    1    2    0    0  0.58362087917E+01 -0.66974319544E+01 -0.44574685316E+02  0.80846547435E+02  0.66860636650E+02 0.  0.
         23    2    1    2    0    0 -0.27392539230E+02 -0.11160302583E+02  0.18892406784E+03  0.21182018961E+03  0.91107550499E+02 0.  0.
         11    1    3    3    0    0  0.25746680170E+01 -0.36063262200E+02 -0.15318464424E+02  0.39266310601E+02  0.00000000000E+00 0. -1.
        -12    1    3    3    0    0  0.32615407747E+01  0.29365830246E+02 -0.29256220892E+02  0.41580236834E+02  0.00000000000E+00 0.  1.
        -11    1    4    4    0    0 -0.11218408842E+02 -0.28636819263E+02  0.18517825119E+03  0.18771495633E+03  0.00000000000E+00 0. -1.
         11    1    4    4    0    0 -0.16174130388E+02  0.17476516680E+02  0.37458166438E+01  0.24105233279E+02  0.00000000000E+00 0.  1.
         21    1    1    2  502  501  0.21556330438E+02  0.17857734538E+02  0.27034739179E+02  0.38915950294E+02  0.00000000000E+00 0.  1.
<scales pt_clust_5="13000.00000" pt_clust_6="13000.00000" pt_clust_7="13000.00000" pt_clust_8="13000.00000" pt_clust_9="27.99239"></scales>
<clustering>
<clus scale="   27.992">  1  9  2 -1</clus>
<clus scale="   66.861">  5  6 -1 -1</clus>
<clus scale="   67.496">  2  5  1 -1</clus>
<clus scale="   91.108">  7  8 -1 -1</clus>
<clus scale="   27.992">  1  5  2 -1</clus>
</clustering>
</event>
<event>
 9    1  0.2951046E-005  0.1718591E+03  0.7546771E-02  0.1179610E+00
         -2   -1    0    0    0  501 -0.00000000000E+00  0.00000000000E+00  0.15012472305E+03  0.15012472305E+03  0.00000000000E+00 0.  1.
          1   -1    0    0  502    0  0.00000000000E+00 -0.00000000000E+00 -0.55018366781E+03  0.55018366781E+03  0.00000000000E+00 0. -1.
        -24    2    1    2    0    0  0.81175900367E+02 -0.94935735118E+02 -0.17382203667E+02  0.14969454974E+03  0.80647359634E+02 0.  0.
         23    2    1    2    0    0 -0.15299272085E+03  0.55985246400E+02 -0.39467721844E+02  0.19781470965E+03  0.10503255609E+03 0.  0.
         11    1    3    3    0    0  0.39050274577E+02 -0.35458449191E+02 -0.47357529983E+02  0.70886960787E+02  0.00000000000E+00 0. -1.
        -12    1    3    3    0    0  0.42125625790E+02 -0.59477285927E+02  0.29975326316E+02  0.78807588957E+02  0.00000000000E+00 0.  1.
        -13    1    4    4    0    0 -0.42370161307E+02 -0.22542775701E+02  0.16936995997E+02  0.50894686745E+02  0.00000000000E+00 0.  1.
         13    1    4    4    0    0 -0.11062255954E+03  0.78528022100E+02 -0.56404717841E+02  0.14692002290E+03  0.00000000000E+00 0. -1.
         21    1    1    2  502  501  0.71816820482E+02  0.38950488718E+02 -0.34320901924E+03  0.35279913147E+03  0.00000000000E+00 0. -1.
<scales pt_clust_5="13000.00000" pt_clust_6="13000.00000" pt_clust_7="13000.00000" pt_clust_8="13000.00000" pt_clust_9="81.69943"></scales>
<clustering>
<clus scale="   80.647">  5  6 -1 -1</clus>
<clus scale="   81.699">  2  9  1 -1</clus>
<clus scale="  105.033">  7  8 -1 -1</clus>
<clus scale="  158.138">  1  5  2 -1</clus>
<clus scale="   81.699">  2  5  1 -1</clus>
</clustering>
</event>
<event>
 9    1  0.2951046E-005  0.5559585E+03  0.7546771E-02  0.1000190E+00
         -2   -1    0    0    0  501 -0.00000000000E+00  0.00000000000E+00  0.91715577217E+03  0.91715577217E+03  0.00000000000E+00 0.  1.
          1   -1    0    0  502    0  0.00000000000E+00 -0.00000000000E+00 -0.55603243853E+03  0.55603243853E+03  0.00000000000E+00 0. -1.
        -24    2    1    2    0    0 -0.39324479545E+03  0.38491717104E+03  0.62604335127E+03  0.83773799790E+03  0.84095051915E+02 0.  0.
         23    2    1    2    0    0  0.36800954821E+03 -0.39711621443E+03 -0.24617181789E+03  0.60172886411E+03  0.91349584762E+02 0.  0.
         11    1    3    3    0    0 -0.75581971261E+02  0.12550652107E+03  0.16097118052E+03  0.21766084206E+03  0.00000000000E+00 0. -1.
        -12    1    3    3    0    0 -0.31766282419E+03  0.25941064997E+03  0.46507217075E+03  0.62007715584E+03  0.00000000000E+00 0.  1.
        -13    1    4    4    0    0  0.60804510377E+02 -0.23064804042E+02 -0.28550739025E+02  0.71023364934E+02  0.00000000000E+00 0.  1.
         13    1    4    4    0    0  0.30720503783E+03 -0.37405141039E+03 -0.21762107886E+03  0.53070549917E+03  0.00000000000E+00 0. -1.
         21    1    1    2  502  501  0.25235247241E+02  0.12199043398E+02 -0.18748199744E+02  0.33721348680E+02  0.00000000000E+00 0.  1.
<scales pt_clust_5="13000.00000" pt_clust_6="13000.00000" pt_clust_7="13000.00000" pt_clust_8="13000.00000" pt_clust_9="28.02917"></scales>
<clustering>
<clus scale="   28.029">  2  9  1 -1</clus>
<clus scale="   84.095">  5  6 -1 -1</clus>
<clus scale="   91.350">  7  8 -1 -1</clus>
<clus scale="  554.813">  1  5  2 -1</clus>
<clus scale="   28.029">  2  5  1 -1</clus>
</clustering>
</event>
<event>
 9    1  0.2951046E-005  0.1037828E+03  0.7546771E-02  0.1272679E+00
          3   -1    0    0  502    0  0.00000000000E+00  0.00000000000E+00  0.44954649747E+03  0.44954649747E+03  0.00000000000E+00 0. -1.
         -4   -1    0    0    0  501 -0.00000000000E+00 -0.00000000000E+00 -0.14377649977E+03  0.14377649977E+03  0.00000000000E+00 0.  1.
        -24    2    1    2    0    0 -0.53752425279E+02 -0.13416166488E+02 -0.87910825890E+02  0.13811788824E+03  0.90988576180E+02 0.  0.
         23    2    1    2    0    0 -0.39413173589E+02  0.35226823114E+02  0.31213919019E+03  0.32948887485E+03  0.91311101594E+02 0.  0.
         11    1    3    3    0    0 -0.50210408831E+02 -0.43646409600E+02 -0.30605761288E+02  0.73231187686E+02  0.00000000000E+00 0. -1.
        -12    1    3    3    0    0 -0.35420164488E+01  0.30230243112E+02 -0.57305064602E+02  0.64886700550E+02  0.00000000000E+00 0.  1.
        -13    1    4    4    0    0 -0.62456347144E+02  0.46325862077E+02  0.26056402561E+03  0.27192001073E+03  0.00000000000E+00 0.  1.
         13    1    4    4    0    0  0.23043173556E+02 -0.11099038963E+02  0.51575164588E+02  0.57568864117E+02  0.00000000000E+00 0. -1.
         21    1    1    2  502  501  0.93165598868E+02 -0.21810656626E+02  0.81541633391E+02  0.12571623416E+03  0.00000000000E+00 0. -1.
<scales pt_clust_5="13000.00000" pt_clust_6="13000.00000" pt_clust_7="13000.00000" pt_clust_8="13000.00000" pt_clust_9="95.68455"></scales>
<clustering>
<clus scale="   90.989">  5  6 -1 -1</clus>
<clus scale="   91.311">  7  8 -1 -1</clus>
<clus scale="   95.685">  1  9  2 -1</clus>
<clus scale="  103.499">  2  5  1 -1</clus>
<clus scale="   95.685">  1  5  2 -1</clus>
</clustering>
</event>
<event>
 9    1  0.2951046E-005  0.2387255E+03  0.7546771E-02  0.1146038E+00
          3   -1    0    0  502    0  0.00000000000E+00  0.00000000000E+00  0.38347336546E+03  0.38347336546E+03  0.00000000000E+00 0. -1.
         -4   -1    0    0    0  501 -0.00000000000E+00 -0.00000000000E+00 -0.47591966218E+03  0.47591966218E+03  0.00000000000E+00 0.  1.
        -24    2    1    2    0    0 -0.93569680623E+02  0.15317420697E+02 -0.27952763186E+03  0.30761794549E+03  0.86620984200E+02 0.  0.
         23    2    1    2    0    0 -0.26655217474E+02  0.18740544395E+03 -0.51304096680E+02  0.21654650330E+03  0.91809458760E+02 0.  0.
         11    1    3    3    0    0 -0.19071537655E+02 -0.17185178676E+02 -0.12614985966E+02  0.28604051908E+02  0.00000000000E+00 0. -1.
        -12    1    3    3    0    0 -0.74498142968E+02  0.32502599373E+02 -0.26691264590E+03  0.27901389358E+03  0.00000000000E+00 0.  1.
        -13    1    4    4    0    0 -0.40021387641E+02  0.39894304624E+02 -0.37433487350E+02  0.67782984482E+02  0.00000000000E+00 0. -1.
         13    1    4    4    0    0  0.13366170166E+02  0.14751113932E+03 -0.13870609329E+02  0.14876351882E+03  0.00000000000E+00 0.  1.
         21    1    1    2  502  501  0.12022489810E+03 -0.20272286464E+03  0.23838543182E+03  0.33522857885E+03  0.00000000000E+00 0. -1.
<scales pt_clust_5="13000.00000" pt_clust_6="13000.00000" pt_clust_7="13000.00000" pt_clust_8="13000.00000" pt_clust_9="220.36534"></scales>
<clustering>
<clus scale="   86.621">  5  6 -1 -1</clus>
<clus scale="   91.809">  7  8 -1 -1</clus>
<clus scale="  128.425">  2  5  1 -1</clus>
<clus scale="  220.365">  1  9  2 -1</clus>
<clus scale="  220.365">  1  5  2 -1</clus>
</clustering>
</event>
<event>
 9    1  0.2951046E-005  0.1295192E+03  0.7546771E-02  0.1251892E+00
         -2   -1    0    0    0  501 -0.00000000000E+00  0.00000000000E+00  0.83695600999E+02  0.83695600999E+02  0.00000000000E+00 0.  1.
          1   -1    0    0  502    0  0.00000000000E+00 -0.00000000000E+00 -0.37466793509E+03  0.37466793509E+03  0.00000000000E+00 0. -1.
        -24    2    1    2    0    0  0.91159608862E-01 -0.43690533005E+00  0.15776442044E+02  0.81542556892E+02  0.80000582902E+02 0.  0.
         23    2    1    2    0    0  0.62656265265E+02 -0.61859234602E+02 -0.16353321091E+03  0.20850952237E+03  0.94766752414E+02 0.  0.
         13    1    3    3    0    0 -0.39933247376E+02  0.71028361694E+00  0.69348280465E+01  0.40537150724E+02  0.00000000000E+00 0. -1.
        -14    1    3    3    0    0  0.40024406985E+02 -0.11471889470E+01  0.88416139971E+01  0.41005406168E+02  0.00000000000E+00 0.  1.
        -11    1    4    4    0    0  0.77601216280E+02 -0.39499758854E+02 -0.15893504903E+03  0.18122507974E+03  0.00000000000E+00 0.  1.
         11    1    4    4    0    0 -0.14944951014E+02 -0.22359475749E+02 -0.45981618844E+01  0.27284442624E+02  0.00000000000E+00 0. -1.
         21    1    1    2  502  501 -0.62747424874E+02  0.62296139932E+02 -0.14321556522E+03  0.16831145683E+03  0.00000000000E+00 0. -1.
<scales pt_clust_5="13000.00000" pt_clust_6="13000.00000" pt_clust_7="13000.00000" pt_clust_8="13000.00000" pt_clust_9="88.28636"></scales>
<clustering>
<clus scale="   80.001">  5  6 -1 -1</clus>
<clus scale="   80.002">  1  5  2 -1</clus>
<clus scale="   88.286">  2  9  1 -1</clus>
<clus scale="   94.767">  7  8 -1 -1</clus>
<clus scale="   88.286">  2  5  1 -1</clus>
</clustering>
</event>
<event>
 9    1  0.2951046E-005  0.2045562E+03  0.7546771E-02  0.1180296E+00
          1   -1    0    0  502    0  0.00000000000E+00  0.00000000000E+00  0.89608395230E+03  0.89608395230E+03  0.00000000000E+00 0. -1.
         -2   -1    0    0    0  501 -0.00000000000E+00 -0.00000000000E+00 -0.32850325439E+03  0.32850325439E+03  0.00000000000E+00 0.  1.
        -24    2    1    2    0    0 -0.35569504737E+02  0.28749526915E+02 -0.18965335694E+03  0.21094102379E+03  0.80224651795E+02 0.  0.
         23    2    1    2    0    0 -0.15058572421E+03 -0.38701672316E+02 -0.48882717450E+02  0.18625445883E+03  0.90151669937E+02 0.  0.
         13    1    3    3    0    0 -0.33370566285E+02  0.44489691611E+02 -0.66161749915E+02  0.86430923318E+02  0.00000000000E+00 0. -1.
        -14    1    3    3    0    0 -0.21989384518E+01 -0.15740164696E+02 -0.12349160702E+03  0.12451010047E+03  0.00000000000E+00 0.  1.
        -13    1    4    4    0    0 -0.43314897996E+02 -0.55685063856E+02 -0.12035762581E+02  0.71567215301E+02  0.00000000000E+00 0.  1.
         13    1    4    4    0    0 -0.10727082622E+03  0.16983391540E+02 -0.36846954869E+02  0.11468724353E+03  0.00000000000E+00 0. -1.
         21    1    1    2  502  501  0.18615522895E+03  0.99521454002E+01  0.80611677230E+03  0.82739172406E+03  0.00000000000E+00 0. -1.
<scales pt_clust_5="13000.00000" pt_clust_6="13000.00000" pt_clust_7="13000.00000" pt_clust_8="13000.00000" pt_clust_9="183.61892"></scales>
<clustering>
<clus scale="   80.225">  5  6 -1 -1</clus>
<clus scale="   90.152">  7  8 -1 -1</clus>
<clus scale="   92.346">  2  5  1 -1</clus>
<clus scale="  183.619">  1  9  2 -1</clus>
<clus scale="  183.619">  1  5  2 -1</clus>
</clustering>
</event>
<event>
 9    1  0.2951046E-005  0.1069655E+03  0.7546771E-02  0.1266557E+00
          3   -1    0    0  502    0  0.00000000000E+00  0.00000000000E+00  0.37526241404E+03  0.37526241404E+03  0.00000000000E+00 0. -1.
         -4   -1    0    0    0  501 -0.00000000000E+00 -0.00000000000E+00 -0.50319065237E+02  0.50319065237E+02  0.00000000000E+00 0.  1.
        -24    2    1    2    0    0  0.52820003040E+02  0.27865231123E+02  0.47616663171E+02  0.11991589547E+03  0.92444856796E+02 0.  0.
         23    2    1    2    0    0 -0.41047218217E+02 -0.44073964910E+01  0.19820676735E+03  0.22230594167E+03  0.91813451152E+02 0.  0.
         11    1    3    3    0    0 -0.26703013290E+02  0.77726453209E+01  0.87820384924E+01  0.29164861291E+02  0.00000000000E+00 0. -1.
        -12    1    3    3    0    0  0.79523016330E+02  0.20092585802E+02  0.38834624679E+02  0.90751034178E+02  0.00000000000E+00 0.  1.
        -13    1    4    4    0    0 -0.56444548228E+02 -0.30632916324E+02  0.94686529694E+02  0.11441110738E+03  0.00000000000E+00 0. -1.
         13    1    4    4    0    0  0.15397330011E+02  0.26225519833E+02  0.10352023766E+03  0.10789483429E+03  0.00000000000E+00 0.  1.
         21    1    1    2  502  501 -0.11772784823E+02 -0.23457834632E+02  0.79119918284E+02  0.83359642138E+02  0.00000000000E+00 0. -1.
<scales pt_clust_5="13000.00000" pt_clust_6="13000.00000" pt_clust_7="13000.00000" pt_clust_8="13000.00000" pt_clust_9="26.24630"></scales>
<clustering>
<clus scale="   26.246">  1  9  2 -1</clus>
<clus scale="   91.813">  7  8 -1 -1</clus>
<clus scale="   92.445">  5  6 -1 -1</clus>
<clus scale="  106.420">  1  7  2 -1</clus>
<clus scale="   26.246">  1  5  2 -1</clus>
</clustering>
</event>
<event>
 9    1  0.2951046E-005  0.1488670E+03  0.7546771E-02  0.1205961E+00
         -4   -1    0    0    0  501 -0.00000000000E+00  0.00000000000E+00  0.20799378168E+03  0.20799378168E+03  0.00000000000E+00 0.  1.
          3   -1    0    0  502    0  0.00000000000E+00 -0.00000000000E+00 -0.27097785229E+03  0.27097785229E+03  0.00000000000E+00 0. -1.
        -24    2    1    2    0    0 -0.55621252579E+01 -0.10933600424E+03  0.14132636916E+03  0.19746713642E+03  0.83873883223E+02 0.  0.
         23    2    1    2    0    0 -0.23405331972E+02  0.97704681241E+02 -0.10708205279E+03  0.17938809100E+03  0.10305099156E+03 0.  0.
         11    1    3    3    0    0  0.15765283315E+02 -0.11370226508E+03  0.10766831109E+03  0.15738238292E+03  0.00000000000E+00 0. -1.
        -12    1    3    3    0    0 -0.21327408573E+02  0.43662608383E+01  0.33658058065E+02  0.40084753496E+02  0.00000000000E+00 0.  1.
        -13    1    4    4    0    0 -0.53238793057E+02  0.71034417537E+02 -0.32100516154E+02  0.94396507871E+02  0.00000000000E+00 0.  1.
         13    1    4    4    0    0  0.29833461086E+02  0.26670263704E+02 -0.74981536637E+02  0.84991583130E+02  0.00000000000E+00 0. -1.
         21    1    1    2  502  501  0.28967457230E+02  0.11631322996E+02 -0.97228386974E+02  0.10211640655E+03  0.00000000000E+00 0. -1.
<scales pt_clust_5="13000.00000" pt_clust_6="13000.00000" pt_clust_7="13000.00000" pt_clust_8="13000.00000" pt_clust_9="31.21540"></scales>
<clustering>
<clus scale="   31.215">  2  9  1 -1</clus>
<clus scale="   83.874">  5  6 -1 -1</clus>
<clus scale="  103.051">  7  8 -1 -1</clus>
<clus scale="  136.296">  1  5  2 -1</clus>
<clus scale="   31.215">  2  5  1 -1</clus>
</clustering>
</event>
<event>
 9    1  0.2951046E-005  0.1290442E+03  0.7546771E-02  0.1231643E+00
         -2   -1    0    0    0  501 -0.00000000000E+00  0.00000000000E+00  0.18500603922E+03  0.18500603922E+03  0.00000000000E+00 0.  1.
          1   -1    0    0  502    0  0.00000000000E+00 -0.00000000000E+00 -0.15933396900E+03  0.15933396900E+03  0.00000000000E+00 0. -1.
         23    2    1    2    0    0  0.18336591725E+02 -0.91116301717E+02  0.10215116140E+03  0.16519315371E+03  0.90639435247E+02 0.  0.
        -24    2    1    2    0    0  0.19703061806E+02  0.92248612698E+02 -0.61974739272E+02  0.13842003788E+03  0.80132523922E+02 0.  0.
         13    1    4    4    0    0 -0.12855149819E+02  0.51559350790E+02 -0.67623049853E+02  0.86002897638E+02  0.00000000000E+00 0. -1.
        -14    1    4    4    0    0  0.32558211625E+02  0.40689261908E+02  0.56483105809E+01  0.52417140243E+02  0.00000000000E+00 0.  1.
        -11    1    3    3    0    0 -0.22836014282E+02 -0.79255363507E+02  0.45608128149E+02  0.94249655417E+02  0.00000000000E+00 0. -1.
         11    1    3    3    0    0  0.41172606007E+02 -0.11860938209E+02  0.56543033246E+02  0.70943498288E+02  0.00000000000E+00 0.  1.
         21    1    1    2  502  501 -0.38039653531E+02 -0.11323109818E+01 -0.14504351910E+02  0.40726816635E+02  0.00000000000E+00 0. -1.
<scales pt_clust_5="13000.00000" pt_clust_6="13000.00000" pt_clust_7="13000.00000" pt_clust_8="13000.00000" pt_clust_9="38.05650"></scales>
<clustering>
<clus scale="   38.057">  2  9  1 -1</clus>
<clus scale="   80.133">  5  6 -1 -1</clus>
<clus scale="   90.639">  7  8 -1 -1</clus>
<clus scale="  121.894">  2  5  1 -1</clus>
<clus scale="   38.057">  2  5  1 -1</clus>
</clustering>
</event>
<event>
 9    1  0.2951046E-005  0.9379253E+02  0.7546771E-02  0.1300052E+00
          1   -1    0    0  502    0  0.00000000000E+00  0.00000000000E+00  0.11822886146E+03  0.11822886146E+03  0.00000000000E+00 0. -1.
         -2   -1    0    0    0  501 -0.00000000000E+00 -0.00000000000E+00 -0.15685651530E+03  0.15685651530E+03  0.00000000000E+00 0.  1.
        -24    2    1    2    0    0  0.13329650393E+02 -0.20213977391E+02 -0.98942247565E+02  0.12913799678E+03  0.79377385938E+02 0.  0.
         23    2    1    2    0    0 -0.26397937873E+00  0.46267007331E+02  0.58281721109E+02  0.11673086582E+03  0.89936813189E+02 0.  0.
         11    1    3    3    0    0  0.45227717552E+02 -0.19779712450E+02 -0.46867195360E+02  0.68068476261E+02  0.00000000000E+00 0. -1.
        -12    1    3    3    0    0 -0.31898067160E+02 -0.43426494078E+00 -0.52075052205E+02  0.61069520522E+02  0.00000000000E+00 0.  1.
        -13    1    4    4    0    0 -0.32551064120E+01  0.67451560006E+02  0.65572641662E+02  0.94127997957E+02  0.00000000000E+00 0. -1.
         13    1    4    4    0    0  0.29911270333E+01 -0.21184552675E+02 -0.72909205524E+01  0.22602867860E+02  0.00000000000E+00 0.  1.
         21    1    1    2  502  501 -0.13065671014E+02 -0.26053029940E+02  0.20328726177E+01  0.29216514151E+02  0.00000000000E+00 0.  1.
<scales pt_clust_5="13000.00000" pt_clust_6="13000.00000" pt_clust_7="13000.00000" pt_clust_8="13000.00000" pt_clust_9="29.14571"></scales>
<clustering>
<clus scale="   29.146">  1  9  2 -1</clus>
<clus scale="   79.377">  5  6 -1 -1</clus>
<clus scale="   83.721">  2  5  1 -1</clus>
<clus scale="   89.937">  7  8 -1 -1</clus>
<clus scale="   29.146">  1  5  2 -1</clus>
</clustering>
</event>
<event>
 9    1  0.2951046E-005  0.9377470E+02  0.7546771E-02  0.1299341E+00
          1   -1    0    0  502    0  0.00000000000E+00  0.00000000000E+00  0.41137128929E+03  0.41137128929E+03  0.00000000000E+00 0. -1.
         -2   -1    0    0    0  501 -0.00000000000E+00 -0.00000000000E+00 -0.44743600531E+02  0.44743600531E+02  0.00000000000E+00 0.  1.
        -24    2    1    2    0    0  0.45594461597E+01  0.29731968851E+02  0.21674698447E+02  0.90198010148E+02  0.82225968896E+02 0.  0.
         23    2    1    2    0    0  0.12066140128E+02 -0.16712908421E+02  0.31893090261E+03  0.33240486537E+03  0.91384686027E+02 0.  0.
         13    1    3    3    0    0  0.21614090128E+02 -0.21392842506E+01  0.43039100251E+02  0.48209019691E+02  0.00000000000E+00 0. -1.
        -14    1    3    3    0    0 -0.17054643968E+02  0.31871253101E+02 -0.21364401804E+02  0.41988990457E+02  0.00000000000E+00 0.  1.
        -11    1    4    4    0    0 -0.38475881870E+02 -0.37907361653E+01  0.96911511456E+02  0.10433889121E+03  0.00000000000E+00 0.  1.
         11    1    4    4    0    0  0.50542021998E+02 -0.12922172256E+02  0.22201939115E+03  0.22806597416E+03  0.00000000000E+00 0. -1.
         21    1    1    2  502  501 -0.16625586288E+02 -0.13019060430E+02  0.26022087701E+02  0.33512014296E+02  0.00000000000E+00 0.  1.
<scales pt_clust_5="13000.00000" pt_clust_6="13000.00000" pt_clust_7="13000.00000" pt_clust_8="13000.00000" pt_clust_9="21.11649"></scales>
<clustering>
<clus scale="   21.116">  2  9  1 -1</clus>
<clus scale="   82.226">  5  6 -1 -1</clus>
<clus scale="   84.874">  2  5  1 -1</clus>
<clus scale="   91.385">  7  8 -1 -1</clus>
<clus scale="   93.775">  1  5  2 -1</clus>
</clustering>
</event>
<event>
 9    1  0.2951046E-005  0.9825305E+02  0.7546771E-02  0.1291622E+00
         -2   -1    0    0    0  501 -0.00000000000E+00  0.00000000000E+00  0.12704805396E+03  0.12704805396E+03  0.00000000000E+00 0.  1.
          1   -1    0    0  502    0  0.00000000000E+00 -0.00000000000E+00 -0.21874334314E+03  0.21874334314E+03  0.00000000000E+00 0. -1.
        -24    2    1    2    0    0  0.10876439730E+02 -0.26615505251E+02  0.75879172495E+02  0.11391382579E+03  0.79950164650E+02 0.  0.
         23    2    1    2    0    0  0.11146080036E+02  0.36949502259E+02 -0.52362787124E+02  0.11412565911E+03  0.93772617402E+02 0.  0.
         11    1    3    3    0    0  0.37887856433E+02 -0.36385882274E+02  0.32128507234E+02  0.61576481476E+02  0.00000000000E+00 0. -1.
        -12    1    3    3    0    0 -0.27011416703E+02  0.97703770225E+01  0.43750665261E+02  0.52337344318E+02  0.00000000000E+00 0.  1.
        -11    1    4    4    0    0 -0.33758673215E+02  0.28953821079E+02 -0.52117073479E+02  0.68513948364E+02  0.00000000000E+00 0.  1.
         11    1    4    4    0    0  0.44904753250E+02  0.79956811796E+01 -0.24571364485E+00  0.45611710746E+02  0.00000000000E+00 0. -1.
         21    1    1    2  502  501 -0.22022519765E+02 -0.10333997008E+02 -0.11521167455E+03  0.11775191219E+03  0.00000000000E+00 0. -1.
<scales pt_clust_5="13000.00000" pt_clust_6="13000.00000" pt_clust_7="13000.00000" pt_clust_8="13000.00000" pt_clust_9="24.32659"></scales>
<clustering>
<clus scale="   24.327">  2  9  1 -1</clus>
<clus scale="   79.950">  5  6 -1 -1</clus>
<clus scale="   85.161">  1  5  2 -1</clus>
<clus scale="   93.773">  7  8 -1 -1</clus>
<clus scale="   24.327">  2  5  1 -1</clus>
</clustering>
</event>
<event>
 9    1  0.2951046E-005  0.1056050E+03  0.7546771E-02  0.1277653E+00
         -2   -1    0    0    0  501 -0.00000000000E+00  0.00000000000E+00  0.54982252280E+03  0.54982252280E+03  0.00000000000E+00 0.  1.
          1   -1    0    0  502    0  0.00000000000E+00 -0.00000000000E+00 -0.30430351112E+02  0.30430351112E+02  0.00000000000E+00 0. -1.
        -24    2    1    2    0    0 -0.26571571492E+02  0.20861727025E+02  0.18147317198E+03  0.19827197265E+03  0.72374048687E+02 0.  0.
         23    2    1    2    0    0  0.52954640942E+02 -0.58671258744E+02  0.29542831520E+03  0.31928253357E+03  0.91743862007E+02 0.  0.
         11    1    3    3    0    0 -0.24309385380E+02 -0.22941103659E+02  0.54466421359E+02  0.63904862963E+02  0.00000000000E+00 0. -1.
        -12    1    3    3    0    0 -0.22621861127E+01  0.43802830684E+02  0.12700675062E+03  0.13436710968E+03  0.00000000000E+00 0.  1.
        -13    1    4    4    0    0  0.48034007111E+02  0.56304677445E+01  0.72013202805E+02  0.86746005005E+02  0.00000000000E+00 0. -1.
         13    1    4    4    0    0  0.49206338309E+01 -0.64301726488E+02  0.22341511240E+03  0.23253652856E+03  0.00000000000E+00 0.  1.
         21    1    1    2  502  501 -0.26383069450E+02  0.37809531719E+02  0.42490684502E+02  0.62698367697E+02  0.00000000000E+00 0.  1.
<scales pt_clust_5="13000.00000" pt_clust_6="13000.00000" pt_clust_7="13000.00000" pt_clust_8="13000.00000" pt_clust_9="46.10452"></scales>
<clustering>
<clus scale="   46.105">  2  9  1 -1</clus>
<clus scale="   72.374">  5  6 -1 -1</clus>
<clus scale="   89.294">  1  5  2 -1</clus>
<clus scale="   91.744">  7  8 -1 -1</clus>
<clus scale="   46.105">  2  5  1 -1</clus>
</clustering>
</event>
<event>
 9    1  0.2951046E-005  0.1105085E+03  0.7546771E-02  0.1263982E+00
         -2   -1    0    0    0  501 -0.00000000000E+00  0.00000000000E+00  0.10510307872E+03  0.10510307872E+03  0.00000000000E+00 0.  1.
          1   -1    0    0  502    0  0.00000000000E+00 -0.00000000000E+00 -0.27566438791E+03  0.27566438791E+03  0.00000000000E+00 0. -1.
        -24    2    1    2    0    0  0.56690807457E+02  0.30817151679E+02  0.56834996423E+02  0.11783689463E+03  0.80571536095E+02 0.  0.
         23    2    1    2    0    0 -0.31732222157E+02 -0.27901410253E+02 -0.20793803068E+03  0.23114917820E+03  0.91685851487E+02 0.  0.
         11    1    3    3    0    0  0.34944555476E+02  0.21234382345E+02 -0.13922371512E+02  0.43195524993E+02  0.00000000000E+00 0. -1.
        -12    1    3    3    0    0  0.21746251981E+02  0.95827693346E+01  0.70757367935E+02  0.74641369632E+02  0.00000000000E+00 0.  1.
        -13    1    4    4    0    0 -0.47709391261E+02  0.12784289657E+02 -0.64750881075E+02  0.81438938331E+02  0.00000000000E+00 0.  1.
         13    1    4    4    0    0  0.15977169104E+02 -0.40685699910E+02 -0.14318714961E+03  0.14971023987E+03  0.00000000000E+00 0. -1.
         21    1    1    2  502  501 -0.24958585300E+02 -0.29157414261E+01 -0.19458274933E+02  0.31781393796E+02  0.00000000000E+00 0. -1.
<scales pt_clust_5="13000.00000" pt_clust_6="13000.00000" pt_clust_7="13000.00000" pt_clust_8="13000.00000" pt_clust_9="25.12832"></scales>
<clustering>
<clus scale="   25.128">  2  9  1 -1</clus>
<clus scale="   80.572">  5  6 -1 -1</clus>
<clus scale="   91.686">  7  8 -1 -1</clus>
<clus scale="  101.477">  1  5  2 -1</clus>
<clus scale="   25.128">  2  5  1 -1</clus>
</clustering>
</event>
<event>
 9    1  0.2951046E-005  0.1630093E+03  0.7546771E-02  0.1208965E+00
          1   -1    0    0  502    0  0.00000000000E+00  0.00000000000E+00  0.12841765079E+04  0.12841765079E+04  0.00000000000E+00 0. -1.
         -2   -1    0    0    0  501 -0.00000000000E+00 -0.00000000000E+00 -0.33596751578E+02  0.33596751578E+02  0.00000000000E+00 0.  1.
        -24    2    1    2    0    0  0.14051962983E+02 -0.53505687652E+02  0.22427964874E+03  0.24449009130E+03  0.80085751713E+02 0.  0.
         23    2    1    2    0    0 -0.14431688672E+03  0.45876356494E+02  0.47658639980E+03  0.50829439168E+03  0.91085609522E+02 0.  0.
         11    1    3    3    0    0 -0.18302278373E+01 -0.72525681613E+02  0.16843264832E+03  0.18339269682E+03  0.00000000000E+00 0. -1.
        -12    1    3    3    0    0  0.15882190821E+02  0.19019993960E+02  0.55847000421E+02  0.61097394474E+02  0.00000000000E+00 0.  1.
        -11    1    4    4    0    0 -0.66998367615E+02  0.44378492629E+02  0.12725838008E+03  0.15050889400E+03  0.00000000000E+00 0. -1.
         11    1    4    4    0    0 -0.77318519106E+02  0.14978638642E+01  0.34932801971E+03  0.35778549768E+03  0.00000000000E+00 0.  1.
         21    1    1    2  502  501  0.13026492374E+03  0.76293311589E+01  0.54971370777E+03  0.56498877649E+03  0.00000000000E+00 0. -1.
<scales pt_clust_5="13000.00000" pt_clust_6="13000.00000" pt_clust_7="13000.00000" pt_clust_8="13000.00000" pt_clust_9="135.18672"></scales>
<clustering>
<clus scale="   80.086">  5  6 -1 -1</clus>
<clus scale="   91.086">  7  8 -1 -1</clus>
<clus scale="   97.335">  2  5  1 -1</clus>
<clus scale="  135.187">  1  9  2 -1</clus>
<clus scale="  135.187">  1  5  2 -1</clus>
</clustering>
</event>
<event>
 9    1  0.2951046E-005  0.9578190E+02  0.7546771E-02  0.1295201E+00
          3   -1    0    0  502    0  0.00000000000E+00  0.00000000000E+00  0.23959744010E+03  0.23959744010E+03  0.00000000000E+00 0. -1.
         -4   -1    0    0    0  501 -0.00000000000E+00 -0.00000000000E+00 -0.10945323687E+03  0.10945323687E+03  0.00000000000E+00 0.  1.
         23    2    1    2    0    0 -0.28676537111E+02  0.43125870814E+01 -0.67145070220E+02  0.11698490583E+03  0.91302056655E+02 0.  0.
        -24    2    1    2    0    0  0.22900828802E+02 -0.30305845189E+02  0.17792822472E+03  0.19914376510E+03  0.80974649203E+02 0.  0.
         11    1    4    4    0    0  0.52632156264E+02 -0.27315870295E+02  0.11094886855E+03  0.12580124036E+03  0.00000000000E+00 0. -1.
        -12    1    4    4    0    0 -0.29731327462E+02 -0.29899748940E+01  0.66979356171E+02  0.73342524742E+02  0.00000000000E+00 0.  1.
        -13    1    3    3    0    0 -0.36476618026E+02  0.27914565184E+02 -0.77474228533E+02  0.90066768004E+02  0.00000000000E+00 0.  1.
         13    1    3    3    0    0  0.78000809147E+01 -0.23601978102E+02  0.10329158313E+02  0.26918137827E+02  0.00000000000E+00 0. -1.
         21    1    1    2  502  501  0.57757083087E+01  0.25993258108E+02  0.19361048738E+02  0.32922006041E+02  0.00000000000E+00 0. -1.
<scales pt_clust_5="13000.00000" pt_clust_6="13000.00000" pt_clust_7="13000.00000" pt_clust_8="13000.00000" pt_clust_9="26.62721"></scales>
<clustering>
<clus scale="   26.627">  1  9  2 -1</clus>
<clus scale="   80.975">  5  6 -1 -1</clus>
<clus scale="   85.994">  1  5  2 -1</clus>
<clus scale="   91.302">  7  8 -1 -1</clus>
<clus scale="   26.627">  1  5  2 -1</clus>
</clustering>
</event>
<event>
 9    1  0.2951046E-005  0.1602314E+03  0.7546771E-02  0.1190511E+00
          1   -1    0    0  502    0  0.00000000000E+00  0.00000000000E+00  0.48454679355E+02  0.48454679355E+02  0.00000000000E+00 0. -1.
         -2   -1    0    0    0  501 -0.00000000000E+00 -0.00000000000E+00 -0.78344071715E+03  0.78344071715E+03  0.00000000000E+00 0.  1.
         23    2    1    2    0    0  0.33494141968E+02 -0.13543462486E+03 -0.57255751939E+03  0.59656531580E+03  0.92755958580E+02 0.  0.
        -24    2    1    2    0    0 -0.10887741121E+02  0.10958634505E+03 -0.13053655551E+03  0.18846559281E+03  0.79698038994E+02 0.  0.
         13    1    4    4    0    0  0.31798765569E+01  0.91789569233E+02 -0.49542643855E+02  0.10435473250E+03  0.00000000000E+00 0. -1.
        -14    1    4    4    0    0 -0.14067617678E+02  0.17796775820E+02 -0.80993911654E+02  0.84110860308E+02  0.00000000000E+00 0.  1.
        -13    1    3    3    0    0  0.16538568137E+01 -0.11459337959E+03 -0.51476923855E+03  0.52737249344E+03  0.00000000000E+00 0.  1.
         13    1    3    3    0    0  0.31840285154E+02 -0.20841245272E+02 -0.57788280846E+02  0.69192822362E+02  0.00000000000E+00 0. -1.
         21    1    1    2  502  501 -0.22606400847E+02  0.25848279808E+02 -0.31891962897E+02  0.46864487895E+02  0.00000000000E+00 0. -1.
<scales pt_clust_5="13000.00000" pt_clust_6="13000.00000" pt_clust_7="13000.00000" pt_clust_8="13000.00000" pt_clust_9="34.33923"></scales>
<clustering>
<clus scale="   34.339">  1  9  2 -1</clus>
<clus scale="   79.698">  5  6 -1 -1</clus>
<clus scale="   92.756">  7  8 -1 -1</clus>
<clus scale="  153.043">  1  5  2 -1</clus>
<clus scale="   34.339">  1  5  2 -1</clus>
</clustering>
</event>
<event>
 9    1  0.2951046E-005  0.9409918E+02  0.7546771E-02  0.1299724E+00
         -2   -1    0    0    0  501 -0.00000000000E+00  0.00000000000E+00  0.21866767072E+03  0.21866767072E+03  0.00000000000E+00 0.  1.
          1   -1    0    0  502    0  0.00000000000E+00 -0.00000000000E+00 -0.32519108670E+03  0.32519108670E+03  0.00000000000E+00 0. -1.
         23    2    1    2    0    0  0.19973529007E+02  0.10684275143E+02  0.19414252466E+03  0.21584629612E+03  0.91570781752E+02 0.  0.
        -24    2    1    2    0    0  0.10693028045E+02 -0.30906262127E+02 -0.15425526519E+03  0.17706395232E+03  0.80544512441E+02 0.  0.
         13    1    4    4    0    0 -0.30821842307E+02 -0.30412162854E+02 -0.98067221222E+02  0.10720105172E+03  0.00000000000E+00 0. -1.
        -14    1    4    4    0    0  0.41514870352E+02 -0.49409927329E+00 -0.56188043972E+02  0.69862900597E+02  0.00000000000E+00 0.  1.
        -13    1    3    3    0    0  0.37046320294E+02  0.35944509881E+02  0.16777967623E+03  0.17554047224E+03  0.00000000000E+00 0.  1.
         13    1    3    3    0    0 -0.17072791287E+02 -0.25260234738E+02  0.26362848430E+02  0.40305823880E+02  0.00000000000E+00 0. -1.
         21    1    1    2  502  501 -0.30666557051E+02  0.20221986984E+02 -0.14641067544E+03  0.15094850898E+03  0.00000000000E+00 0.  1.
<scales pt_clust_5="13000.00000" pt_clust_6="13000.00000" pt_clust_7="13000.00000" pt_clust_8="13000.00000" pt_clust_9="36.73372"></scales>
<clustering>
<clus scale="   36.734">  2  9  1 -1</clus>
<clus scale="   80.545">  5  6 -1 -1</clus>
<clus scale="   83.408">  2  5  1 -1</clus>
<clus scale="   91.571">  7  8 -1 -1</clus>
<clus scale="   36.734">  2  5  1 -1</clus>
</clustering>
</event>
<event>
 9    1  0.2951046E-005  0.1287381E+03  0.7546771E-02  0.1232800E+00
         -2   -1    0    0    0  501 -0.00000000000E+00  0.00000000000E+00  0.35148321007E+02  0.35148321007E+02  0.00000000000E+00 0.  1.
          1   -1    0    0  502    0  0.00000000000E+00 -0.00000000000E+00 -0.61439985243E+03  0.61439985243E+03  0.00000000000E+00 0. -1.
        -24    2    1    2    0    0  0.78909365505E+02 -0.75035888601E+01 -0.19511897705E+03  0.22501247361E+03  0.79222511111E+02 0.  0.
         23    2    1    2    0    0 -0.10210087183E+03  0.86259833969E+01 -0.22577312646E+03  0.26448316424E+03  0.92080638147E+02 0.  0.
         13    1    3    3    0    0  0.78701584455E+01  0.29241206382E+02 -0.73024891348E+02  0.79054552690E+02  0.00000000000E+00 0. -1.
        -14    1    3    3    0    0  0.71039207060E+02 -0.36744795242E+02 -0.12209408570E+03  0.14595792092E+03  0.00000000000E+00 0.  1.
        -13    1    4    4    0    0 -0.75519366081E+02 -0.35820534344E+02 -0.16234041853E+03  0.18259435047E+03  0.00000000000E+00 0. -1.
         13    1    4    4    0    0 -0.26581505745E+02  0.44446517741E+02 -0.63432707927E+02  0.81888813777E+02  0.00000000000E+00 0.  1.
         21    1    1    2  502  501  0.23191506321E+02 -0.11223945368E+01 -0.15835942792E+03  0.16005253558E+03  0.00000000000E+00 0. -1.
<scales pt_clust_5="13000.00000" pt_clust_6="13000.00000" pt_clust_7="13000.00000" pt_clust_8="13000.00000" pt_clust_9="23.21865"></scales>
<clustering>
<clus scale="   23.219">  2  9  1 -1</clus>
<clus scale="   79.223">  5  6 -1 -1</clus>
<clus scale="   92.081">  7  8 -1 -1</clus>
<clus scale="  119.878">  1  5  2 -1</clus>
<clus scale="   23.219">  2  5  1 -1</clus>
</clustering>
</event>
<event>
 9    1  0.2951046E-005  0.1262779E+03  0.7546771E-02  0.1257158E+00
         -4   -1    0    0    0  501 -0.00000000000E+00  0.00000000000E+00  0.91172258151E+03  0.91172258151E+03  0.00000000000E+00 0.  1.
          3   -1    0    0  502    0  0.00000000000E+00 -0.00000000000E+00 -0.33948705736E+02  0.33948705736E+02  0.00000000000E+00 0. -1.
        -24    2    1    2    0    0  0.20199788189E+01  0.97273602778E+00  0.53678541665E+03  0.54238857901E+03  0.77728762967E+02 0.  0.
         23    2    1    2    0    0  0.73883873495E+02 -0.38523037296E+02  0.24454720704E+03  0.27493811339E+03  0.94046682857E+02 0.  0.
         11    1    3    3    0    0  0.26346514347E+02  0.22370772408E+02  0.13700124296E+03  0.14129377499E+03  0.00000000000E+00 0. -1.
        -12    1    3    3    0    0 -0.24326535528E+02 -0.21398036381E+02  0.39978417368E+03  0.40109480403E+03  0.00000000000E+00 0.  1.
        -13    1    4    4    0    0  0.40160940277E+02 -0.54684329044E+02  0.21995397570E+03  0.23018042574E+03  0.00000000000E+00 0. -1.
         13    1    4    4    0    0  0.33722933218E+02  0.16161291748E+02  0.24593231338E+02  0.44757687646E+02  0.00000000000E+00 0.  1.
         21    1    1    2  502  501 -0.75903852314E+02  0.37550301268E+02  0.96441252085E+02  0.12834459484E+03  0.00000000000E+00 0. -1.
<scales pt_clust_5="13000.00000" pt_clust_6="13000.00000" pt_clust_7="13000.00000" pt_clust_8="13000.00000" pt_clust_9="84.26938"></scales>
<clustering>
<clus scale="   77.729">  5  6 -1 -1</clus>
<clus scale="   77.761">  1  5  2 -1</clus>
<clus scale="   84.269">  2  9  1 -1</clus>
<clus scale="   94.047">  7  8 -1 -1</clus>
<clus scale="   84.269">  2  5  1 -1</clus>
</clustering>
</event>
<event>
 9    1  0.2951046E-005  0.1420072E+03  0.7546771E-02  0.1214418E+00
         -2   -1    0    0    0  501 -0.00000000000E+00  0.00000000000E+00  0.32211224729E+03  0.32211224729E+03  0.00000000000E+00 0.  1.
          1   -1    0    0  502    0  0.00000000000E+00 -0.00000000000E+00 -0.49103972592E+03  0.49103972592E+03  0.00000000000E+00 0. -1.
         23    2    1    2    0    0  0.56189883308E+02  0.82448249012E+02  0.25606128527E+03  0.29081508833E+03  0.95136833227E+02 0.  0.
        -24    2    1    2    0    0 -0.10976295001E+03 -0.13788795273E+03 -0.17347636365E+03  0.25927392340E+03  0.77896892816E+02 0.  0.
         11    1    4    4    0    0 -0.58718589370E+02 -0.11336918211E+03 -0.82160278529E+02  0.15182475278E+03  0.00000000000E+00 0. -1.
        -12    1    4    4    0    0 -0.51044360639E+02 -0.24518770620E+02 -0.91316085117E+02  0.10744917062E+03  0.00000000000E+00 0.  1.
        -13    1    3    3    0    0  0.77421216127E+02  0.33225856062E+02  0.15509657014E+03  0.17650197813E+03  0.00000000000E+00 0.  1.
         13    1    3    3    0    0 -0.21231332819E+02  0.49222392951E+02  0.10096471513E+03  0.11431311020E+03  0.00000000000E+00 0. -1.
         21    1    1    2  502  501  0.53573066700E+02  0.55439703717E+02 -0.25151240025E+03  0.26306296148E+03  0.00000000000E+00 0.  1.
<scales pt_clust_5="13000.00000" pt_clust_6="13000.00000" pt_clust_7="13000.00000" pt_clust_8="13000.00000" pt_clust_9="77.09497"></scales>
<clustering>
<clus scale="   77.095">  2  9  1 -1</clus>
<clus scale="   77.897">  5  6 -1 -1</clus>
<clus scale="   95.137">  7  8 -1 -1</clus>
<clus scale="  131.084">  2  5  1 -1</clus>
<clus scale="   77.095">  2  5  1 -1</clus>
</clustering>
</event>
<event>
 9    1  0.2951046E-005  0.1407524E+03  0.7546771E-02  0.1214444E+00
         -2   -1    0    0    0  501 -0.00000000000E+00  0.00000000000E+00  0.13799133052E+03  0.13799133052E+03  0.00000000000E+00 0.  1.
          1   -1    0    0  502    0  0.00000000000E+00 -0.00000000000E+00 -0.54798796212E+03  0.54798796212E+03  0.00000000000E+00 0. -1.
         23    2    1    2    0    0  0.55372044116E+01 -0.10440423196E+03  0.70751503803E+02  0.15549023819E+03  0.90777390347E+02 0.  0.
        -24    2    1    2    0    0 -0.48517153241E+02  0.13500418308E+03 -0.41304864944E+03  0.44465867865E+03  0.80821470466E+02 0.  0.
         13    1    4    4    0    0 -0.35508063830E+02  0.13750383387E+03 -0.40495491607E+03  0.42913472357E+03  0.00000000000E+00 0. -1.
        -14    1    4    4    0    0 -0.13009089411E+02 -0.24996507946E+01 -0.80937333694E+01  0.15523955078E+02  0.00000000000E+00 0.  1.
        -13    1    3    3    0    0 -0.37639850837E+02 -0.34919164847E+02  0.48693536102E+02  0.70761337627E+02  0.00000000000E+00 0.  1.
         13    1    3    3    0    0  0.43177055249E+02 -0.69485067109E+02  0.22057967701E+02  0.84728900561E+02  0.00000000000E+00 0. -1.
         21    1    1    2  502  501  0.42979948829E+02 -0.30599951122E+02 -0.67699485972E+02  0.85830375806E+02  0.00000000000E+00 0.  1.
<scales pt_clust_5="13000.00000" pt_clust_6="13000.00000" pt_clust_7="13000.00000" pt_clust_8="13000.00000" pt_clust_9="52.76015"></scales>
<clustering>
<clus scale="   52.760">  2  9  1 -1</clus>
<clus scale="   80.821">  5  6 -1 -1</clus>
<clus scale="   90.777">  7  8 -1 -1</clus>
<clus scale="  134.547">  2  5  1 -1</clus>
<clus scale="   52.760">  2  5  1 -1</clus>
</clustering>
</event>
<event>
 9    1  0.2951046E-005  0.1393743E+03  0.7546771E-02  0.1216984E+00
          1   -1    0    0  502    0  0.00000000000E+00  0.00000000000E+00  0.97015123801E+03  0.97015123801E+03  0.00000000000E+00 0. -1.
         -2   -1    0    0    0  501 -0.00000000000E+00 -0.00000000000E+00 -0.38885431681E+02  0.38885431681E+02  0.00000000000E+00 0.  1.
         23    2    1    2    0    0  0.10238007796E+03 -0.25657772627E+02  0.13034812363E+03  0.19137398214E+03  0.92159459889E+02 0.  0.
        -24    2    1    2    0    0 -0.10439444801E+03 -0.55302002871E+01  0.58961239230E+03  0.60405867754E+03  0.79469043450E+02 0.  0.
         11    1    4    4    0    0 -0.26538297057E+02  0.33703432201E+02  0.15739624148E+03  0.16313730225E+03  0.00000000000E+00 0. -1.
        -12    1    4    4    0    0 -0.77856150952E+02 -0.39233632488E+02  0.43221615082E+03  0.44092137529E+03  0.00000000000E+00 0.  1.
        -13    1    3    3    0    0  0.22827103147E+01  0.21729613779E+02  0.21361965344E+01  0.21953364594E+02  0.00000000000E+00 0.  1.
         13    1    3    3    0    0  0.10009736765E+03 -0.47387386406E+02  0.12821192709E+03  0.16942061755E+03  0.00000000000E+00 0. -1.
         21    1    1    2  502  501  0.20143700459E+01  0.31187972914E+02  0.21130529040E+03  0.21360401000E+03  0.00000000000E+00 0. -1.
<scales pt_clust_5="13000.00000" pt_clust_6="13000.00000" pt_clust_7="13000.00000" pt_clust_8="13000.00000" pt_clust_9="31.25296"></scales>
<clustering>
<clus scale="   31.253">  1  9  2 -1</clus>
<clus scale="   79.469">  5  6 -1 -1</clus>
<clus scale="   92.159">  7  8 -1 -1</clus>
<clus scale="  131.328">  1  5  2 -1</clus>
<clus scale="   31.253">  1  5  2 -1</clus>
</clustering>
</event>
<event>
 9    1  0.2951046E-005  0.1296594E+03  0.7546771E-02  0.1230853E+00
          1   -1    0    0  502    0  0.00000000000E+00  0.00000000000E+00  0.64150515010E+03  0.64150515010E+03  0.00000000000E+00 0. -1.
         -2   -1    0    0    0  501 -0.00000000000E+00 -0.00000000000E+00 -0.35862669442E+02  0.35862669442E+02  0.00000000000E+00 0.  1.
         23    2    1    2    0    0 -0.50365487614E+02  0.68131635664E+02  0.17746304025E+03  0.21710837877E+03  0.92001713876E+02 0.  0.
        -24    2    1    2    0    0  0.36004890745E+02 -0.97755668677E+02  0.29697540240E+03  0.32498819600E+03  0.81058096382E+02 0.  0.
         11    1    4    4    0    0  0.18752996264E+02 -0.10940426149E+03  0.25599244739E+03  0.27902168450E+03  0.00000000000E+00 0. -1.
        -12    1    4    4    0    0  0.17251894481E+02  0.11648592810E+02  0.40982955013E+02  0.45966511498E+02  0.00000000000E+00 0.  1.
        -13    1    3    3    0    0 -0.57751637675E+02  0.20480389227E+01  0.70451647596E+02  0.91120144680E+02  0.00000000000E+00 0.  1.
         13    1    3    3    0    0  0.73861500607E+01  0.66083596742E+02  0.10701139266E+03  0.12598823409E+03  0.00000000000E+00 0. -1.
         21    1    1    2  502  501  0.14360596869E+02  0.29624033012E+02  0.13120403801E+03  0.13527124478E+03  0.00000000000E+00 0.  1.
<scales pt_clust_5="13000.00000" pt_clust_6="13000.00000" pt_clust_7="13000.00000" pt_clust_8="13000.00000" pt_clust_9="32.92127"></scales>
<clustering>
<clus scale="   32.921">  1  9  2 -1</clus>
<clus scale="   81.058">  5  6 -1 -1</clus>
<clus scale="   92.002">  7  8 -1 -1</clus>
<clus scale="  122.138">  1  5  2 -1</clus>
<clus scale="   32.921">  1  5  2 -1</clus>
</clustering>
</event>
<event>
 9    1  0.2951046E-005  0.1371787E+03  0.7546771E-02  0.1224014E+00
         -2   -1    0    0    0  501 -0.00000000000E+00  0.00000000000E+00  0.20858155555E+03  0.20858155555E+03  0.00000000000E+00 0.  1.
          1   -1    0    0  502    0  0.00000000000E+00 -0.00000000000E+00 -0.17276860639E+03  0.17276860639E+03  0.00000000000E+00 0. -1.
        -24    2    1    2    0    0 -0.90307945250E+02  0.62006277235E+02  0.53300849725E+02  0.14470723663E+03  0.78095456722E+02 0.  0.
         23    2    1    2    0    0  0.82089666421E+02  0.33197832933E+02  0.10959142514E+02  0.13694038292E+03  0.10388337800E+03 0.  0.
         11    1    3    3    0    0 -0.16381577268E+02 -0.11526932338E+02 -0.10348129033E+02  0.22545731689E+02  0.00000000000E+00 0. -1.
        -12    1    3    3    0    0 -0.73926367982E+02  0.73533209573E+02  0.63648978758E+02  0.12216150494E+03  0.00000000000E+00 0.  1.
        -13    1    4    4    0    0  0.56165592669E+02  0.67892585841E+02  0.24687142317E+02  0.91506458831E+02  0.00000000000E+00 0.  1.
         13    1    4    4    0    0  0.25924073752E+02 -0.34694752908E+02 -0.13727999803E+02  0.45433924086E+02  0.00000000000E+00 0. -1.
         21    1    1    2  502  501  0.82182788290E+01 -0.95204110168E+02 -0.28447043084E+02  0.99702542395E+02  0.00000000000E+00 0. -1.
<scales pt_clust_5="13000.00000" pt_clust_6="13000.00000" pt_clust_7="13000.00000" pt_clust_8="13000.00000" pt_clust_9="95.55816"></scales>
<clustering>
<clus scale="   78.095">  5  6 -1 -1</clus>
<clus scale="   95.558">  2  9  1 -1</clus>
<clus scale="  103.883">  7  8 -1 -1</clus>
<clus scale="  118.849">  1  5  2 -1</clus>
<clus scale="   95.558">  2  5  1 -1</clus>
</clustering>
</event>
<event>
 9    1  0.2951046E-005  0.1456678E+03  0.7546771E-02  0.1219784E+00
         -2   -1    0    0    0  501 -0.00000000000E+00  0.00000000000E+00  0.12837319061E+03  0.12837319061E+03  0.00000000000E+00 0.  1.
          1   -1    0    0  502    0  0.00000000000E+00 -0.00000000000E+00 -0.50659962531E+03  0.50659962531E+03  0.00000000000E+00 0. -1.
        -24    2    1    2    0    0 -0.10841951381E+03 -0.51015378104E+02  0.31751398645E+02  0.14855251553E+03  0.81867812819E+02 0.  0.
         23    2    1    2    0    0  0.27158184862E+02 -0.53774599151E+02 -0.28198735532E+03  0.30212188645E+03  0.90174781359E+02 0.  0.
         13    1    3    3    0    0 -0.12175127723E+03 -0.43554012838E+02  0.32244837209E+02  0.13326685660E+03  0.00000000000E+00 0. -1.
        -14    1    3    3    0    0  0.13331763415E+02 -0.74613652657E+01 -0.49343856418E+00  0.15285658932E+02  0.00000000000E+00 0.  1.
        -11    1    4    4    0    0  0.60876622638E+01  0.23324563450E+02 -0.34798365153E+02  0.42332270307E+02  0.00000000000E+00 0.  1.
         11    1    4    4    0    0  0.21070522598E+02 -0.77099162602E+02 -0.24718899017E+03  0.25978961615E+03  0.00000000000E+00 0. -1.
         21    1    1    2  502  501  0.81261328950E+02  0.10478997725E+03 -0.12799047802E+03  0.18429841394E+03  0.00000000000E+00 0.  1.
<scales pt_clust_5="13000.00000" pt_clust_6="13000.00000" pt_clust_7="13000.00000" pt_clust_8="13000.00000" pt_clust_9="120.48556"></scales>
<clustering>
<clus scale="   81.868">  5  6 -1 -1</clus>
<clus scale="   90.175">  7  8 -1 -1</clus>
<clus scale="  108.447">  2  7  1 -1</clus>
<clus scale="  120.486">  2  9  1 -1</clus>
<clus scale="  108.447">  2  5  1 -1</clus>
</clustering>
</event>
<event>
 9    1  0.2951046E-005  0.1061685E+03  0.7546771E-02  0.1271619E+00
          1   -1    0    0  502    0  0.00000000000E+00  0.00000000000E+00  0.74567330735E+02  0.74567330735E+02  0.00000000000E+00 0. -1.
         -2   -1    0    0    0  501 -0.00000000000E+00 -0.00000000000E+00 -0.23233667218E+03  0.23233667218E+03  0.00000000000E+00 0.  1.
        -24    2    1    2    0    0  0.25920518711E+02 -0.23549720087E+02 -0.11857339560E+03  0.14806909881E+03  0.81476041098E+02 0.  0.
         23    2    1    2    0    0 -0.46026539046E+02  0.44998424134E+02 -0.14523340656E+01  0.11099267183E+03  0.90409974303E+02 0.  0.
         11    1    3    3    0    0  0.11693345662E+02 -0.53765316091E+02 -0.79236319824E+02  0.96466771100E+02  0.00000000000E+00 0. -1.
        -12    1    3    3    0    0  0.14227173049E+02  0.30215596004E+02 -0.39337075777E+02  0.51602327714E+02  0.00000000000E+00 0.  1.
        -11    1    4    4    0    0 -0.34899543168E+02 -0.12834166523E+02  0.26639824390E+02  0.45742476837E+02  0.00000000000E+00 0. -1.
         11    1    4    4    0    0 -0.11126995879E+02  0.57832590656E+02 -0.28092158456E+02  0.65250194988E+02  0.00000000000E+00 0.  1.
         21    1    1    2  502  501  0.20106020335E+02 -0.21448704047E+02 -0.37743611781E+02  0.47842232278E+02  0.00000000000E+00 0.  1.
<scales pt_clust_5="13000.00000" pt_clust_6="13000.00000" pt_clust_7="13000.00000" pt_clust_8="13000.00000" pt_clust_9="29.39896"></scales>
<clustering>
<clus scale="   29.399">  2  9  1 -1</clus>
<clus scale="   81.476">  5  6 -1 -1</clus>
<clus scale="   90.410">  7  8 -1 -1</clus>
<clus scale="   98.672">  2  5  1 -1</clus>
<clus scale="  106.168">  1  5  2 -1</clus>
</clustering>
</event>
<event>
 9    1  0.2951046E-005  0.1019473E+03  0.7546771E-02  0.1282145E+00
          1   -1    0    0  502    0  0.00000000000E+00  0.00000000000E+00  0.25082403007E+03  0.25082403007E+03  0.00000000000E+00 0. -1.
         -2   -1    0    0    0  501 -0.00000000000E+00 -0.00000000000E+00 -0.10068347072E+03  0.10068347072E+03  0.00000000000E+00 0.  1.
        -24    2    1    2    0    0  0.19125477893E+02  0.88043717486E+01 -0.50654328827E+02  0.10456521074E+03  0.89020904296E+02 0.  0.
         23    2    1    2    0    0 -0.18893591848E+02  0.20596210670E+02  0.10915504976E+03  0.15070140475E+03  0.10007455620E+03 0.  0.
         11    1    3    3    0    0 -0.26537333895E+02 -0.11420484158E+00  0.97922809709E+01  0.28286602829E+02  0.00000000000E+00 0. -1.
        -12    1    3    3    0    0  0.45662811788E+02  0.89185765902E+01 -0.60446609798E+02  0.76278607911E+02  0.00000000000E+00 0.  1.
        -13    1    4    4    0    0 -0.30203539862E+02 -0.63533587689E+01  0.11653867673E+03  0.12055655172E+03  0.00000000000E+00 0. -1.
         13    1    4    4    0    0  0.11309948014E+02  0.26949569439E+02 -0.73836269715E+01  0.30144853032E+02  0.00000000000E+00 0.  1.
         21    1    1    2  502  501 -0.23188604496E+00 -0.29400582419E+02  0.91639838422E+02  0.96240885303E+02  0.00000000000E+00 0. -1.
<scales pt_clust_5="13000.00000" pt_clust_6="13000.00000" pt_clust_7="13000.00000" pt_clust_8="13000.00000" pt_clust_9="29.40150"></scales>
<clustering>
<clus scale="   29.401">  1  9  2 -1</clus>
<clus scale="   89.021">  5  6 -1 -1</clus>
<clus scale="   91.121">  2  5  1 -1</clus>
<clus scale="  100.075">  7  8 -1 -1</clus>
<clus scale="   29.401">  1  5  2 -1</clus>
</clustering>
</event>
<event>
 9    1  0.2951046E-005  0.1561145E+03  0.7546771E-02  0.1207925E+00
         -2   -1    0    0    0  501 -0.00000000000E+00  0.00000000000E+00  0.70171154993E+02  0.70171154993E+02  0.00000000000E+00 0.  1.
          1   -1    0    0  502    0  0.00000000000E+00 -0.00000000000E+00 -0.61962141833E+03  0.61962141833E+03  0.00000000000E+00 0. -1.
         23    2    1    2    0    0  0.21406850905E+02  0.15258424853E+03 -0.20920919755E+03  0.27556413052E+03  0.91798123743E+02 0.  0.
        -24    2    1    2    0    0 -0.51143040859E+02 -0.42166084639E+02 -0.22479099941E+03  0.25173188981E+03  0.91893207623E+02 0.  0.
         11    1    4    4    0    0 -0.44680237027E+02  0.18375789574E+02 -0.66999205422E+02  0.82600767251E+02  0.00000000000E+00 0. -1.
        -12    1    4    4    0    0 -0.64628038314E+01 -0.60541874213E+02 -0.15779179399E+03  0.16913112256E+03  0.00000000000E+00 0.  1.
        -11    1    3    3    0    0 -0.21147275149E+02  0.48897661853E+02 -0.22570802334E+02  0.57858704608E+02  0.00000000000E+00 0.  1.
         11    1    3    3    0    0  0.42554126055E+02  0.10368658668E+03 -0.18663839522E+03  0.21770542591E+03  0.00000000000E+00 0. -1.
         21    1    1    2  502  501  0.29736189953E+02 -0.11041816389E+03 -0.11545006637E+03  0.16249655299E+03  0.00000000000E+00 0. -1.
<scales pt_clust_5="13000.00000" pt_clust_6="13000.00000" pt_clust_7="13000.00000" pt_clust_8="13000.00000" pt_clust_9="126.27284"></scales>
<clustering>
<clus scale="   91.798">  7  8 -1 -1</clus>
<clus scale="   91.893">  5  6 -1 -1</clus>
<clus scale="  113.305">  2  5  1 -1</clus>
<clus scale="  126.273">  1  9  2 -1</clus>
<clus scale="  113.305">  2  5  1 -1</clus>
</clustering>
</event>
<event>
 9    1  0.2951046E-005  0.1854391E+03  0.7546771E-02  0.1163743E+00
          1   -1    0    0  502    0  0.00000000000E+00  0.00000000000E+00  0.48588610838E+03  0.48588610838E+03  0.00000000000E+00 0. -1.
         -2   -1    0    0    0  501 -0.00000000000E+00 -0.00000000000E+00 -0.12444845358E+03  0.12444845358E+03  0.00000000000E+00 0.  1.
         23    2    1    2    0    0  0.88164637573E+02 -0.14329502644E+03 -0.49471443852E+01  0.19068160124E+03  0.89602069692E+02 0.  0.
        -24    2    1    2    0    0 -0.81552483766E+02  0.12035168252E+03  0.24385186263E+03  0.29481531356E+03  0.79479576674E+02 0.  0.
         11    1    4    4    0    0 -0.39440985703E+02  0.11620947162E+03  0.16943338814E+03  0.20920780498E+03  0.00000000000E+00 0. -1.
        -12    1    4    4    0    0 -0.42111498063E+02  0.41422109008E+01  0.74418474494E+02  0.85607508586E+02  0.00000000000E+00 0.  1.
        -11    1    3    3    0    0  0.94698107821E+01 -0.99220046133E+02 -0.11032472794E+02  0.10027966058E+03  0.00000000000E+00 0.  1.
         11    1    3    3    0    0  0.78694826791E+02 -0.44074980310E+02  0.60853284090E+01  0.90401940659E+02  0.00000000000E+00 0. -1.
         21    1    1    2  502  501 -0.66121538073E+01  0.22943343922E+02  0.12253293655E+03  0.12483764716E+03  0.00000000000E+00 0. -1.
<scales pt_clust_5="13000.00000" pt_clust_6="13000.00000" pt_clust_7="13000.00000" pt_clust_8="13000.00000" pt_clust_9="23.87714"></scales>
<clustering>
<clus scale="   23.877">  1  9  2 -1</clus>
<clus scale="   79.480">  5  6 -1 -1</clus>
<clus scale="   89.602">  7  8 -1 -1</clus>
<clus scale="  180.765">  1  5  2 -1</clus>
<clus scale="   23.877">  1  5  2 -1</clus>
</clustering>
</event>
<event>
 9    1  0.2951046E-005  0.1085317E+03  0.7546771E-02  0.1277370E+00
          1   -1    0    0  502    0  0.00000000000E+00  0.00000000000E+00  0.35415295757E+03  0.35415295757E+03  0.00000000000E+00 0. -1.
         -2   -1    0    0    0  501 -0.00000000000E+00 -0.00000000000E+00 -0.14832667824E+03  0.14832667824E+03  0.00000000000E+00 0.  1.
        -24    2    1    2    0    0 -0.45189975503E+02  0.62030593773E+02 -0.93331366182E+02  0.13399960563E+03  0.57924277680E+02 0.  0.
         23    2    1    2    0    0 -0.10079847431E+02  0.83356330036E+00  0.47382014368E+02  0.10315452441E+03  0.91068668973E+02 0.  0.
         13    1    3    3    0    0 -0.13523520172E+02  0.48186479688E+02 -0.21866242867E+02  0.54616435253E+02  0.00000000000E+00 0. -1.
        -14    1    3    3    0    0 -0.31666455332E+02  0.13844114084E+02 -0.71465123316E+02  0.79383170374E+02  0.00000000000E+00 0.  1.
        -11    1    4    4    0    0  0.34610701902E+01 -0.44218332843E+02  0.19329691046E+02  0.48382609709E+02  0.00000000000E+00 0. -1.
         11    1    4    4    0    0 -0.13540917621E+02  0.45051896144E+02  0.28052323322E+02  0.54771914700E+02  0.00000000000E+00 0.  1.
         21    1    1    2  502  501  0.55269822934E+02 -0.62864157073E+02  0.25177563115E+03  0.26532550577E+03  0.00000000000E+00 0. -1.
<scales pt_clust_5="13000.00000" pt_clust_6="13000.00000" pt_clust_7="13000.00000" pt_clust_8="13000.00000" pt_clust_9="83.70577"></scales>
<clustering>
<clus scale="   57.924">  5  6 -1 -1</clus>
<clus scale="   83.706">  1  9  2 -1</clus>
<clus scale="   82.709">  2  5  1 -1</clus>
<clus scale="   91.069">  7  8 -1 -1</clus>
<clus scale="   83.706">  1  5  2 -1</clus>
</clustering>
</event>
<event>
 9    1  0.2951046E-005  0.1058264E+03  0.7546771E-02  0.1279850E+00
          1   -1    0    0  502    0  0.00000000000E+00  0.00000000000E+00  0.28454361985E+03  0.28454361985E+03  0.00000000000E+00 0. -1.
         -2   -1    0    0    0  501 -0.00000000000E+00 -0.00000000000E+00 -0.11140427631E+03  0.11140427631E+03  0.00000000000E+00 0.  1.
        -24    2    1    2    0    0 -0.21821205651E+02 -0.25824638219E+02 -0.68585536620E+02  0.10869148546E+03  0.77244975384E+02 0.  0.
         23    2    1    2    0    0  0.18145490083E+02  0.58815159254E+02  0.21425696732E+03  0.24417077970E+03  0.99623490437E+02 0.  0.
         11    1    3    3    0    0 -0.29905319240E+02 -0.24584629145E+02  0.90231785761E+00  0.38723975604E+02  0.00000000000E+00 0. -1.
        -12    1    3    3    0    0  0.80841135893E+01 -0.12400090744E+01 -0.69487854477E+02  0.69967509852E+02  0.00000000000E+00 0.  1.
        -11    1    4    4    0    0 -0.32291957731E+02  0.56219813635E+02  0.14100238459E+03  0.15519378351E+03  0.00000000000E+00 0.  1.
         11    1    4    4    0    0  0.50437447815E+02  0.25953456194E+01  0.73254582726E+02  0.88976996192E+02  0.00000000000E+00 0. -1.
         21    1    1    2  502  501  0.36757155678E+01 -0.32990521035E+02  0.27467912848E+02  0.43085631007E+02  0.00000000000E+00 0.  1.
<scales pt_clust_5="13000.00000" pt_clust_6="13000.00000" pt_clust_7="13000.00000" pt_clust_8="13000.00000" pt_clust_9="33.19466"></scales>
<clustering>
<clus scale="   33.195">  1  9  2 -1</clus>
<clus scale="   77.245">  5  6 -1 -1</clus>
<clus scale="   85.095">  2  5  1 -1</clus>
<clus scale="   99.623">  7  8 -1 -1</clus>
<clus scale="   33.195">  1  5  2 -1</clus>
</clustering>
</event>
<event>
 9    1  0.2951046E-005  0.1017624E+03  0.7546771E-02  0.1283379E+00
         -4   -1    0    0    0  501 -0.00000000000E+00  0.00000000000E+00  0.25001487285E+03  0.25001487285E+03  0.00000000000E+00 0.  1.
          3   -1    0    0  502    0  0.00000000000E+00 -0.00000000000E+00 -0.17179274681E+03  0.17179274681E+03  0.00000000000E+00 0. -1.
         23    2    1    2    0    0 -0.40841022687E+02 -0.66781137974E+01  0.18619129380E+03  0.21222097065E+03  0.93048138938E+02 0.  0.
        -24    2    1    2    0    0  0.42330574599E+02 -0.17587301618E+02  0.70755251884E+01  0.92001316048E+02  0.79454316269E+02 0.  0.
         11    1    4    4    0    0  0.25710688449E+02 -0.41098060809E+02 -0.20034775392E+02  0.52454573945E+02  0.00000000000E+00 0. -1.
        -12    1    4    4    0    0  0.16619886150E+02  0.23510759191E+02  0.27110300581E+02  0.39546742103E+02  0.00000000000E+00 0.  1.
        -13    1    3    3    0    0 -0.14058375366E+02 -0.43149560882E+02  0.44815728695E+02  0.63780655850E+02  0.00000000000E+00 0. -1.
         13    1    3    3    0    0 -0.26782647322E+02  0.36471447084E+02  0.14137556510E+03  0.14844031480E+03  0.00000000000E+00 0.  1.
         21    1    1    2  502  501 -0.14895519116E+01  0.24265415415E+02 -0.11504469295E+03  0.11758533296E+03  0.00000000000E+00 0. -1.
<scales pt_clust_5="13000.00000" pt_clust_6="13000.00000" pt_clust_7="13000.00000" pt_clust_8="13000.00000" pt_clust_9="24.31109"></scales>
<clustering>
<clus scale="   24.311">  2  9  1 -1</clus>
<clus scale="   79.454">  5  6 -1 -1</clus>
<clus scale="   89.502">  2  5  1 -1</clus>
<clus scale="   93.048">  7  8 -1 -1</clus>
<clus scale="   24.311">  2  5  1 -1</clus>
</clustering>
</event>
<event>
 9    1  0.2951046E-005  0.1001398E+03  0.7546771E-02  0.1289384E+00
          1   -1    0    0  502    0  0.00000000000E+00  0.00000000000E+00  0.25410578970E+03  0.25410578970E+03  0.00000000000E+00 0. -1.
         -2   -1    0    0    0  501 -0.00000000000E+00 -0.00000000000E+00 -0.86567158172E+02  0.86567158172E+02  0.00000000000E+00 0.  1.
         23    2    1    2    0    0  0.27240831472E+02 -0.18163449550E+02 -0.35259538998E+02  0.10504444410E+03  0.93376262228E+02 0.  0.
        -24    2    1    2    0    0 -0.48930864209E+02  0.15781123723E+02  0.12547803992E+03  0.15528837934E+03  0.75673436009E+02 0.  0.
         11    1    4    4    0    0 -0.34235570443E+02 -0.19939791239E+02  0.23089024036E+02  0.45855998399E+02  0.00000000000E+00 0. -1.
        -12    1    4    4    0    0 -0.14695293766E+02  0.35720914963E+02  0.10238901588E+03  0.10943238094E+03  0.00000000000E+00 0.  1.
        -11    1    3    3    0    0  0.18031127230E+02  0.30120919366E+02  0.11759314077E+02  0.37022598507E+02  0.00000000000E+00 0. -1.
         11    1    3    3    0    0  0.92097042412E+01 -0.48284368916E+02 -0.47018853075E+02  0.68021845596E+02  0.00000000000E+00 0.  1.
         21    1    1    2  502  501  0.21690032738E+02  0.23823258273E+01  0.77320130606E+02  0.80340124430E+02  0.00000000000E+00 0. -1.
<scales pt_clust_5="13000.00000" pt_clust_6="13000.00000" pt_clust_7="13000.00000" pt_clust_8="13000.00000" pt_clust_9="21.82047"></scales>
<clustering>
<clus scale="   21.820">  1  9  2 -1</clus>
<clus scale="   75.673">  5  6 -1 -1</clus>
<clus scale="   83.877">  1  5  2 -1</clus>
<clus scale="   93.376">  7  8 -1 -1</clus>
<clus scale="   21.820">  1  5  2 -1</clus>
</clustering>
</event>
<event>
 9    1  0.2951046E-005  0.1415145E+03  0.7546771E-02  0.1213000E+00
         -2   -1    0    0    0  501 -0.00000000000E+00  0.00000000000E+00  0.50230071018E+02  0.50230071018E+02  0.00000000000E+00 0.  1.
          1   -1    0    0  502    0  0.00000000000E+00 -0.00000000000E+00 -0.81857332395E+03  0.81857332395E+03  0.00000000000E+00 0. -1.
         23    2    1    2    0    0  0.92147631770E+02  0.25565202953E+01 -0.25472294136E+03  0.28527724552E+03  0.89451708308E+02 0.  0.
        -24    2    1    2    0    0 -0.10478591569E+03  0.10040647032E+03 -0.25054236001E+03  0.30073450839E+03  0.81290977136E+02 0.  0.
         11    1    4    4    0    0 -0.35141663567E+02  0.40845197546E+00 -0.10602034652E+03  0.11169340727E+03  0.00000000000E+00 0. -1.
        -12    1    4    4    0    0 -0.69644252125E+02  0.99998018349E+02 -0.14452201349E+03  0.18904110112E+03  0.00000000000E+00 0.  1.
        -11    1    3    3    0    0  0.65518777561E+02 -0.25550018004E+02 -0.80893200469E+02  0.10718779555E+03  0.00000000000E+00 0. -1.
         11    1    3    3    0    0  0.26628854209E+02  0.28106538299E+02 -0.17382974089E+03  0.17808944997E+03  0.00000000000E+00 0.  1.
         21    1    1    2  502  501  0.12638283922E+02 -0.10296299062E+03 -0.26307795156E+03  0.28279164106E+03  0.00000000000E+00 0. -1.
<scales pt_clust_5="13000.00000" pt_clust_6="13000.00000" pt_clust_7="13000.00000" pt_clust_8="13000.00000" pt_clust_9="103.73574"></scales>
<clustering>
<clus scale="   81.291">  5  6 -1 -1</clus>
<clus scale="   89.452">  7  8 -1 -1</clus>
<clus scale="  103.736">  2  9  1 -1</clus>
<clus scale="  136.503">  2  5  1 -1</clus>
<clus scale="  103.736">  2  5  1 -1</clus>
</clustering>
</event>
<event>
 9    1  0.2951046E-005  0.1928250E+03  0.7546771E-02  0.1157579E+00
          1   -1    0    0  502    0  0.00000000000E+00  0.00000000000E+00  0.16831534790E+03  0.16831534790E+03  0.00000000000E+00 0. -1.
         -2   -1    0    0    0  501 -0.00000000000E+00 -0.00000000000E+00 -0.10992707094E+04  0.10992707094E+04  0.00000000000E+00 0.  1.
        -24    2    1    2    0    0  0.13259306562E+03 -0.10109710731E+03 -0.91529797283E+03  0.93346608267E+03  0.76072348890E+02 0.  0.
         23    2    1    2    0    0 -0.17319416085E+03  0.81368252215E+02 -0.10274238077E+03  0.23603086964E+03  0.92398943706E+02 0.  0.
         11    1    3    3    0    0  0.75376173014E+02 -0.38456500804E+02 -0.27937835897E+03  0.29191220833E+03  0.00000000000E+00 0. -1.
        -12    1    3    3    0    0  0.57216892608E+02 -0.62640606509E+02 -0.63591961386E+03  0.64155387433E+03  0.00000000000E+00 0.  1.
        -13    1    4    4    0    0 -0.58161519590E+02  0.13106747858E+02 -0.80903362375E+02  0.10049827483E+03  0.00000000000E+00 0.  1.
         13    1    4    4    0    0 -0.11503264126E+03  0.68261504357E+02 -0.21839018391E+02  0.13553259481E+03  0.00000000000E+00 0. -1.
         21    1    1    2  502  501  0.40601095224E+02  0.19728855099E+02  0.87084992129E+02  0.98089104956E+02  0.00000000000E+00 0. -1.
<scales pt_clust_5="13000.00000" pt_clust_6="13000.00000" pt_clust_7="13000.00000" pt_clust_8="13000.00000" pt_clust_9="45.14063"></scales>
<clustering>
<clus scale="   45.141">  1  9  2 -1</clus>
<clus scale="   76.072">  5  6 -1 -1</clus>
<clus scale="   92.399">  7  8 -1 -1</clus>
<clus scale="  185.556">  2  5  1 -1</clus>
<clus scale="   45.141">  1  5  2 -1</clus>
</clustering>
</event>
<event>
 9    1  0.2951046E-005  0.3625453E+03  0.7546771E-02  0.1096466E+00
          1   -1    0    0  502    0  0.00000000000E+00  0.00000000000E+00  0.88424587835E+03  0.88424587835E+03  0.00000000000E+00 0. -1.
         -2   -1    0    0    0  501 -0.00000000000E+00 -0.00000000000E+00 -0.49376795849E+03  0.49376795849E+03  0.00000000000E+00 0.  1.
         23    2    1    2    0    0  0.79840797352E+02 -0.35720338306E+03 -0.36019681515E+03  0.52164422691E+03  0.91663209785E+02 0.  0.
        -24    2    1    2    0    0 -0.34373592099E+02  0.91494721858E+02  0.36143497026E+03  0.38289737859E+03  0.80139483683E+02 0.  0.
         11    1    4    4    0    0 -0.60397265033E+02  0.62552746959E+02  0.26514825943E+03  0.27904170881E+03  0.00000000000E+00 0. -1.
        -12    1    4    4    0    0  0.26023672935E+02  0.28941974899E+02  0.96286710825E+02  0.10385566978E+03  0.00000000000E+00 0.  1.
        -13    1    3    3    0    0  0.45542669824E+02 -0.77690648877E+02 -0.51275994756E+02  0.10363010825E+03  0.00000000000E+00 0. -1.
         13    1    3    3    0    0  0.34298127528E+02 -0.27951273418E+03 -0.30892082040E+03  0.41801411866E+03  0.00000000000E+00 0.  1.
         21    1    1    2  502  501 -0.45467205254E+02  0.26570866120E+03  0.38923976475E+03  0.47347223135E+03  0.00000000000E+00 0. -1.
<scales pt_clust_5="13000.00000" pt_clust_6="13000.00000" pt_clust_7="13000.00000" pt_clust_8="13000.00000" pt_clust_9="350.76625"></scales>
<clustering>
<clus scale="   80.139">  5  6 -1 -1</clus>
<clus scale="   91.663">  7  8 -1 -1</clus>
<clus scale="  126.393">  1  5  2 -1</clus>
<clus scale="  350.766">  1  9  2 -1</clus>
<clus scale="  126.393">  1  5  2 -1</clus>
</clustering>
</event>
<event>
 9    1  0.2951046E-005  0.1340358E+03  0.7546771E-02  0.1223871E+00
          1   -1    0    0  502    0  0.00000000000E+00  0.00000000000E+00  0.24333462440E+03  0.24333462440E+03  0.00000000000E+00 0. -1.
         -2   -1    0    0    0  501 -0.00000000000E+00 -0.00000000000E+00 -0.16510364012E+03  0.16510364012E+03  0.00000000000E+00 0.  1.
         23    2    1    2    0    0  0.75498516741E+02 -0.66335278035E+02 -0.38667263066E+02  0.14045414686E+03  0.90176576758E+02 0.  0.
        -24    2    1    2    0    0 -0.10125193166E+03  0.24270365143E+02 -0.97894403178E+01  0.13203388602E+03  0.80598446803E+02 0.  0.
         13    1    4    4    0    0 -0.66640505662E+02  0.14456379764E+02  0.33311145910E+02  0.75891872770E+02  0.00000000000E+00 0. -1.
        -14    1    4    4    0    0 -0.34611425994E+02  0.98139853789E+01 -0.43100586227E+02  0.56142013248E+02  0.00000000000E+00 0.  1.
        -13    1    3    3    0    0  0.43544396720E+02 -0.64499156085E+02 -0.63098737443E+02  0.10018835406E+03  0.00000000000E+00 0.  1.
         13    1    3    3    0    0  0.31954120021E+02 -0.18361219501E+01  0.24431474378E+02  0.40265792807E+02  0.00000000000E+00 0. -1.
         21    1    1    2  502  501  0.25753414915E+02  0.42064912892E+02  0.12668768766E+03  0.13595023163E+03  0.00000000000E+00 0. -1.
<scales pt_clust_5="13000.00000" pt_clust_6="13000.00000" pt_clust_7="13000.00000" pt_clust_8="13000.00000" pt_clust_9="49.32236"></scales>
<clustering>
<clus scale="   49.322">  1  9  2 -1</clus>
<clus scale="   80.598">  5  6 -1 -1</clus>
<clus scale="   90.177">  7  8 -1 -1</clus>
<clus scale="  127.788">  1  5  2 -1</clus>
<clus scale="   49.322">  1  5  2 -1</clus>
</clustering>
</event>
<event>
 9    1  0.2951046E-005  0.1883637E+03  0.7546771E-02  0.1161018E+00
          1   -1    0    0  502    0  0.00000000000E+00  0.00000000000E+00  0.11009238048E+04  0.11009238048E+04  0.00000000000E+00 0. -1.
         -2   -1    0    0    0  501 -0.00000000000E+00 -0.00000000000E+00 -0.25747896245E+03  0.25747896245E+03  0.00000000000E+00 0.  1.
        -24    2    1    2    0    0 -0.14558708138E+03  0.94490598812E+02 -0.17153368234E+03  0.25662650897E+03  0.79431035495E+02 0.  0.
         23    2    1    2    0    0  0.16636219422E+03  0.62855741683E+02  0.24561432161E+03  0.31621228687E+03  0.89647038231E+02 0.  0.
         13    1    3    3    0    0 -0.21536081324E+02  0.90717241888E+01  0.56853973698E+01  0.24050420408E+02  0.00000000000E+00 0. -1.
        -14    1    3    3    0    0 -0.12405100005E+03  0.85418874623E+02 -0.17721907971E+03  0.23257608856E+03  0.00000000000E+00 0.  1.
        -13    1    4    4    0    0  0.90708541995E+02 -0.11578531605E+02  0.93990907708E+02  0.13113501713E+03  0.00000000000E+00 0. -1.
         13    1    4    4    0    0  0.75653652224E+02  0.74434273288E+02  0.15162341390E+03  0.18507726975E+03  0.00000000000E+00 0.  1.
         21    1    1    2  502  501 -0.20775112843E+02 -0.15734634049E+03  0.76936420311E+03  0.78556397143E+03  0.00000000000E+00 0. -1.
<scales pt_clust_5="13000.00000" pt_clust_6="13000.00000" pt_clust_7="13000.00000" pt_clust_8="13000.00000" pt_clust_9="158.71193"></scales>
<clustering>
<clus scale="   79.431">  5  6 -1 -1</clus>
<clus scale="   89.647">  7  8 -1 -1</clus>
<clus scale="  158.712">  1  9  2 -1</clus>
<clus scale="  183.721">  2  5  1 -1</clus>
<clus scale="  158.712">  1  5  2 -1</clus>
</clustering>
</event>
<event>
 9    1  0.2951046E-005  0.9994294E+02  0.7546771E-02  0.1285983E+00
         -2   -1    0    0    0  501 -0.00000000000E+00  0.00000000000E+00  0.15491672901E+03  0.15491672901E+03  0.00000000000E+00 0.  1.
          1   -1    0    0  502    0  0.00000000000E+00 -0.00000000000E+00 -0.15831976560E+03  0.15831976560E+03  0.00000000000E+00 0. -1.
         23    2    1    2    0    0  0.18335224003E+02  0.40446160029E+02  0.10792454738E+03  0.14813148360E+03  0.91231333465E+02 0.  0.
        -24    2    1    2    0    0  0.10011989825E+02 -0.25803828059E+02 -0.10031193536E+03  0.13135138999E+03  0.80153763448E+02 0.  0.
         13    1    4    4    0    0 -0.47119141363E+01 -0.27957736694E+02 -0.10999992678E+03  0.11359498698E+03  0.00000000000E+00 0. -1.
        -14    1    4    4    0    0  0.14723903961E+02  0.21539086351E+01  0.96879914181E+01  0.17756403014E+02  0.00000000000E+00 0.  1.
        -13    1    3    3    0    0 -0.21449403218E+02  0.51204040847E+02  0.39070564049E+02  0.67885489411E+02  0.00000000000E+00 0. -1.
         13    1    3    3    0    0  0.39784627221E+02 -0.10757880818E+02  0.68853983327E+02  0.80245994185E+02  0.00000000000E+00 0.  1.
         21    1    1    2  502  501 -0.28347213828E+02 -0.14642331970E+02 -0.11015648613E+02  0.33753621016E+02  0.00000000000E+00 0. -1.
<scales pt_clust_5="13000.00000" pt_clust_6="13000.00000" pt_clust_7="13000.00000" pt_clust_8="13000.00000" pt_clust_9="31.90552"></scales>
<clustering>
<clus scale="   31.906">  2  9  1 -1</clus>
<clus scale="   80.154">  5  6 -1 -1</clus>
<clus scale="   89.945">  2  5  1 -1</clus>
<clus scale="   91.231">  7  8 -1 -1</clus>
<clus scale="   31.906">  2  5  1 -1</clus>
</clustering>
</event>
<event>
 9    1  0.2951046E-005  0.1002665E+03  0.7546771E-02  0.1284179E+00
          3   -1    0    0  502    0  0.00000000000E+00  0.00000000000E+00  0.21561732830E+03  0.21561732830E+03  0.00000000000E+00 0. -1.
         -4   -1    0    0    0  501 -0.00000000000E+00 -0.00000000000E+00 -0.30552488069E+03  0.30552488069E+03  0.00000000000E+00 0.  1.
        -24    2    1    2    0    0  0.37034493130E+02 -0.28035357872E+02 -0.24816112500E+03  0.26529275426E+03  0.81478626202E+02 0.  0.
         23    2    1    2    0    0 -0.31991644438E+02 -0.44632311100E+01  0.19812168562E+01  0.96154001497E+02  0.90544359504E+02 0.  0.
         11    1    3    3    0    0 -0.35383740426E+01  0.25412391872E+02 -0.52280349126E+02  0.58236969841E+02  0.00000000000E+00 0. -1.
        -12    1    3    3    0    0  0.40572867173E+02 -0.53447749744E+02 -0.19588077588E+03  0.20705578442E+03  0.00000000000E+00 0.  1.
        -11    1    4    4    0    0  0.39167352333E+01 -0.29171333706E+02  0.31809052139E+02  0.43337320211E+02  0.00000000000E+00 0. -1.
         11    1    4    4    0    0 -0.35908379671E+02  0.24708102596E+02 -0.29827835282E+02  0.52816681287E+02  0.00000000000E+00 0.  1.
         21    1    1    2  502  501 -0.50428486919E+01  0.32498588982E+02  0.15627235575E+03  0.15969545323E+03  0.00000000000E+00 0. -1.
<scales pt_clust_5="13000.00000" pt_clust_6="13000.00000" pt_clust_7="13000.00000" pt_clust_8="13000.00000" pt_clust_9="32.88751"></scales>
<clustering>
<clus scale="   32.888">  1  9  2 -1</clus>
<clus scale="   81.479">  5  6 -1 -1</clus>
<clus scale="   90.544">  7  8 -1 -1</clus>
<clus scale="   92.162">  2  5  1 -1</clus>
<clus scale="   32.888">  1  5  2 -1</clus>
</clustering>
</event>
<event>
 9    1  0.2951046E-005  0.1044121E+03  0.7546771E-02  0.1284120E+00
          1   -1    0    0  502    0  0.00000000000E+00  0.00000000000E+00  0.54237231988E+02  0.54237231988E+02  0.00000000000E+00 0. -1.
         -2   -1    0    0    0  501 -0.00000000000E+00 -0.00000000000E+00 -0.10124763446E+04  0.10124763446E+04  0.00000000000E+00 0.  1.
        -24    2    1    2    0    0  0.21216776256E+02  0.16805492604E+02 -0.90037594736E+03  0.90409563365E+03  0.77327175156E+02 0.  0.
         23    2    1    2    0    0 -0.27365005365E+02  0.88889857248E+01 -0.76791759331E+02  0.13011719507E+03  0.10102302987E+03 0.  0.
         11    1    3    3    0    0  0.91335063270E+01  0.33117381909E+02 -0.16993590246E+03  0.17337356450E+03  0.00000000000E+00 0. -1.
        -12    1    3    3    0    0  0.12083269929E+02 -0.16311889305E+02 -0.73044004490E+03  0.73072206915E+03  0.00000000000E+00 0.  1.
        -11    1    4    4    0    0 -0.88743516299E+01 -0.29303066264E+02 -0.81845245423E+02  0.87384598229E+02  0.00000000000E+00 0.  1.
         11    1    4    4    0    0 -0.18490653735E+02  0.38192051989E+02  0.50534860923E+01  0.42732596836E+02  0.00000000000E+00 0. -1.
         21    1    1    2  502  501  0.61482291090E+01 -0.25694478329E+02  0.18928594088E+02  0.32500747867E+02  0.00000000000E+00 0.  1.
<scales pt_clust_5="13000.00000" pt_clust_6="13000.00000" pt_clust_7="13000.00000" pt_clust_8="13000.00000" pt_clust_9="26.41982"></scales>
<clustering>
<clus scale="   26.420">  1  9  2 -1</clus>
<clus scale="   77.327">  5  6 -1 -1</clus>
<clus scale="   81.705">  2  5  1 -1</clus>
<clus scale="  101.023">  7  8 -1 -1</clus>
<clus scale="   26.420">  1  5  2 -1</clus>
</clustering>
</event>
<event>
 9    1  0.2951046E-005  0.9234153E+02  0.7546771E-02  0.1304526E+00
          1   -1    0    0  502    0  0.00000000000E+00  0.00000000000E+00  0.53830534874E+03  0.53830534874E+03  0.00000000000E+00 0. -1.
         -2   -1    0    0    0  501 -0.00000000000E+00 -0.00000000000E+00 -0.54743792516E+02  0.54743792516E+02  0.00000000000E+00 0.  1.
         23    2    1    2    0    0 -0.68449312530E+01  0.95267802030E+01 -0.48905032216E+01  0.92421003852E+02  0.91542953340E+02 0.  0.
        -24    2    1    2    0    0  0.27499207696E+02  0.33256929674E+01  0.40330547205E+03  0.41207461377E+03  0.79893159125E+02 0.  0.
         11    1    4    4    0    0  0.46826338410E+02 -0.20560079287E+02  0.29883651028E+03  0.30318094054E+03  0.00000000000E+00 0. -1.
        -12    1    4    4    0    0 -0.19327130714E+02  0.23885772255E+02  0.10446896177E+03  0.10889367324E+03  0.00000000000E+00 0.  1.
        -13    1    3    3    0    0 -0.32041976976E+02 -0.28598409416E+02 -0.15226308719E+02  0.45567508017E+02  0.00000000000E+00 0.  1.
         13    1    3    3    0    0  0.25197045723E+02  0.38125189619E+02  0.10335805498E+02  0.46853495835E+02  0.00000000000E+00 0. -1.
         21    1    1    2  502  501 -0.20654276443E+02 -0.12852473170E+02  0.85146587392E+02  0.88553523626E+02  0.00000000000E+00 0.  1.
<scales pt_clust_5="13000.00000" pt_clust_6="13000.00000" pt_clust_7="13000.00000" pt_clust_8="13000.00000" pt_clust_9="24.32664"></scales>
<clustering>
<clus scale="   24.327">  1  9  2 -1</clus>
<clus scale="   79.893">  5  6 -1 -1</clus>
<clus scale="   80.807">  1  5  2 -1</clus>
<clus scale="   91.543">  7  8 -1 -1</clus>
<clus scale="   24.327">  1  5  2 -1</clus>
</clustering>
</event>
<event>
 9    1  0.2951046E-005  0.1239529E+03  0.7546771E-02  0.1256834E+00
         -2   -1    0    0    0  501 -0.00000000000E+00  0.00000000000E+00  0.11731790027E+04  0.11731790027E+04  0.00000000000E+00 0.  1.
          1   -1    0    0  502    0  0.00000000000E+00 -0.00000000000E+00 -0.23127010710E+02  0.23127010710E+02  0.00000000000E+00 0. -1.
        -24    2    1    2    0    0 -0.14804822347E+02 -0.13019156617E+02  0.61285188362E+03  0.61841313224E+03  0.80365973361E+02 0.  0.
         23    2    1    2    0    0  0.74452918437E+02 -0.45087123892E+02  0.37406468725E+03  0.39473338557E+03  0.91180971867E+02 0.  0.
         13    1    3    3    0    0 -0.20240496126E+01  0.22077527631E+02  0.54829743768E+02  0.59142326677E+02  0.00000000000E+00 0. -1.
        -14    1    3    3    0    0 -0.12780772734E+02 -0.35096684248E+02  0.55802213985E+03  0.55927080557E+03  0.00000000000E+00 0.  1.
        -13    1    4    4    0    0  0.77767713081E+02 -0.21429074506E+01  0.18257151992E+03  0.19845596272E+03  0.00000000000E+00 0.  1.
         13    1    4    4    0    0 -0.33147946435E+01 -0.42944216441E+02  0.19149316733E+03  0.19627742286E+03  0.00000000000E+00 0. -1.
         21    1    1    2  502  501 -0.59648096091E+02  0.58106280509E+02  0.16313542109E+03  0.18315949557E+03  0.00000000000E+00 0. -1.
<scales pt_clust_5="13000.00000" pt_clust_6="13000.00000" pt_clust_7="13000.00000" pt_clust_8="13000.00000" pt_clust_9="83.96632"></scales>
<clustering>
<clus scale="   80.366">  5  6 -1 -1</clus>
<clus scale="   82.749">  1  5  2 -1</clus>
<clus scale="   83.966">  2  9  1 -1</clus>
<clus scale="   91.181">  7  8 -1 -1</clus>
<clus scale="   83.966">  2  5  1 -1</clus>
</clustering>
</event>
<event>
 9    1  0.2951046E-005  0.4530483E+03  0.7546771E-02  0.1026817E+00
         -2   -1    0    0    0  501 -0.00000000000E+00  0.00000000000E+00  0.28200420396E+03  0.28200420396E+03  0.00000000000E+00 0.  1.
          1   -1    0    0  502    0  0.00000000000E+00 -0.00000000000E+00 -0.87790679091E+03  0.87790679091E+03  0.00000000000E+00 0. -1.
        -24    2    1    2    0    0 -0.20657942909E+03  0.45731691098E+02 -0.19328241708E+03  0.29732910448E+03  0.79246801366E+02 0.  0.
         23    2    1    2    0    0 -0.17500376828E+03  0.30337193822E+02 -0.42922105755E+03  0.47258212245E+03  0.86928027531E+02 0.  0.
         13    1    3    3    0    0 -0.85422661998E+02  0.55932881636E+02 -0.10921370729E+03  0.14950970635E+03  0.00000000000E+00 0. -1.
        -14    1    3    3    0    0 -0.12115676709E+03 -0.10201190538E+02 -0.84068709789E+02  0.14781939814E+03  0.00000000000E+00 0.  1.
        -11    1    4    4    0    0 -0.24620031457E+02  0.25456544071E+02 -0.16281949240E+03  0.16662643455E+03  0.00000000000E+00 0.  1.
         11    1    4    4    0    0 -0.15038373682E+03  0.48806497517E+01 -0.26640156515E+03  0.30595568790E+03  0.00000000000E+00 0. -1.
         21    1    1    2  502  501  0.38158319737E+03 -0.76068884920E+02  0.26600887680E+02  0.38999976794E+03  0.00000000000E+00 0.  1.
<scales pt_clust_5="13000.00000" pt_clust_6="13000.00000" pt_clust_7="13000.00000" pt_clust_8="13000.00000" pt_clust_9="389.09152"></scales>
<clustering>
<clus scale="   79.247">  5  6 -1 -1</clus>
<clus scale="   86.928">  7  8 -1 -1</clus>
<clus scale="  171.600">  5  7 -1 -1</clus>
<clus scale="  389.092">  1  9  2 -1</clus>
<clus scale="  453.048">  2  5  1 -1</clus>
</clustering>
</event>
<event>
 9    1  0.2951046E-005  0.1236524E+03  0.7546771E-02  0.1243864E+00
          1   -1    0    0  502    0  0.00000000000E+00  0.00000000000E+00  0.47632023351E+02  0.47632023351E+02  0.00000000000E+00 0. -1.
         -2   -1    0    0    0  501 -0.00000000000E+00 -0.00000000000E+00 -0.48925192531E+03  0.48925192531E+03  0.00000000000E+00 0.  1.
        -24    2    1    2    0    0 -0.36466842504E+02 -0.74686726197E+02 -0.31678623997E+03  0.33477071349E+03  0.69353955226E+02 0.  0.
         23    2    1    2    0    0  0.59222120392E+01  0.86342668079E+02 -0.10130413193E+03  0.16183328711E+03  0.91855085556E+02 0.  0.
         11    1    3    3    0    0 -0.52408311557E+02 -0.29329888778E+02 -0.16822863329E+03  0.17862739586E+03  0.00000000000E+00 0. -1.
        -12    1    3    3    0    0  0.15941469053E+02 -0.45356837419E+02 -0.14855760668E+03  0.15614331763E+03  0.00000000000E+00 0.  1.
        -13    1    4    4    0    0 -0.16836281454E+01  0.64537353617E+02 -0.11719496494E+03  0.13380046496E+03  0.00000000000E+00 0.  1.
         13    1    4    4    0    0  0.76058401847E+01  0.21805314462E+02  0.15890833010E+02  0.28032822146E+02  0.00000000000E+00 0. -1.
         21    1    1    2  502  501  0.30544630465E+02 -0.11655941882E+02 -0.23529530060E+02  0.40279948067E+02  0.00000000000E+00 0. -1.
<scales pt_clust_5="13000.00000" pt_clust_6="13000.00000" pt_clust_7="13000.00000" pt_clust_8="13000.00000" pt_clust_9="32.69305"></scales>
<clustering>
<clus scale="   32.693">  1  9  2 -1</clus>
<clus scale="   69.354">  5  6 -1 -1</clus>
<clus scale="   91.855">  7  8 -1 -1</clus>
<clus scale="  107.993">  2  5  1 -1</clus>
<clus scale="   32.693">  1  5  2 -1</clus>
</clustering>
</event>
<event>
 9    1  0.2951046E-005  0.1417606E+03  0.7546771E-02  0.1212975E+00
         -2   -1    0    0    0  501 -0.00000000000E+00  0.00000000000E+00  0.31478113169E+03  0.31478113169E+03  0.00000000000E+00 0.  1.
          1   -1    0    0  502    0  0.00000000000E+00 -0.00000000000E+00 -0.16944878237E+03  0.16944878237E+03  0.00000000000E+00 0. -1.
         23    2    1    2    0    0  0.96470505788E+02 -0.16369492518E+02  0.22588022481E+03  0.26258263377E+03  0.91396087586E+02 0.  0.
        -24    2    1    2    0    0 -0.89544905639E+02  0.66080185019E+02 -0.96975695665E+02  0.16883638972E+03  0.81954621384E+02 0.  0.
         13    1    4    4    0    0 -0.10012330142E+03  0.55113230193E+02 -0.10159184893E+03  0.15291516406E+03  0.00000000000E+00 0. -1.
        -14    1    4    4    0    0  0.10578395783E+02  0.10966954826E+02  0.46161532694E+01  0.15921225660E+02  0.00000000000E+00 0.  1.
        -13    1    3    3    0    0  0.28574848669E+02 -0.53356996655E+01  0.28759351667E+01  0.29210660219E+02  0.00000000000E+00 0. -1.
         13    1    3    3    0    0  0.67895657119E+02 -0.11033792852E+02  0.22300428964E+03  0.23337197355E+03  0.00000000000E+00 0.  1.
         21    1    1    2  502  501 -0.69256001486E+01 -0.49710692501E+02  0.16427820177E+02  0.52810890564E+02  0.00000000000E+00 0. -1.
<scales pt_clust_5="13000.00000" pt_clust_6="13000.00000" pt_clust_7="13000.00000" pt_clust_8="13000.00000" pt_clust_9="50.19080"></scales>
<clustering>
<clus scale="   50.191">  1  9  2 -1</clus>
<clus scale="   81.955">  5  6 -1 -1</clus>
<clus scale="   91.396">  7  8 -1 -1</clus>
<clus scale="  135.865">  2  5  1 -1</clus>
<clus scale="  135.865">  2  5  1 -1</clus>
</clustering>
</event>
<event>
 9    1  0.2951046E-005  0.2154258E+03  0.7546771E-02  0.1138137E+00
         -2   -1    0    0    0  501 -0.00000000000E+00  0.00000000000E+00  0.73371888301E+03  0.73371888301E+03  0.00000000000E+00 0.  1.
          1   -1    0    0  502    0  0.00000000000E+00 -0.00000000000E+00 -0.22912216747E+03  0.22912216747E+03  0.00000000000E+00 0. -1.
        -24    2    1    2    0    0  0.14026711813E+03 -0.18215648570E+03  0.59397557900E+03  0.64199680032E+03  0.80604301760E+02 0.  0.
         23    2    1    2    0    0 -0.10071574453E+03  0.51425425795E+02  0.19249478530E+02  0.14633053191E+03  0.90850682613E+02 0.  0.
         11    1    3    3    0    0  0.30031152188E+02 -0.51267081644E+02  0.75896112534E+02  0.96386740063E+02  0.00000000000E+00 0. -1.
        -12    1    3    3    0    0  0.11023596594E+03 -0.13088940405E+03  0.51807946646E+03  0.54561006025E+03  0.00000000000E+00 0.  1.
        -13    1    4    4    0    0  0.56096752909E+00  0.28431511845E+02  0.30700233308E+02  0.41846981678E+02  0.00000000000E+00 0. -1.
         13    1    4    4    0    0 -0.10127671206E+03  0.22993913950E+02 -0.11450754778E+02  0.10448355023E+03  0.00000000000E+00 0.  1.
         21    1    1    2  502  501 -0.39551373597E+02  0.13073105990E+03 -0.10862834199E+03  0.17451371826E+03  0.00000000000E+00 0. -1.
<scales pt_clust_5="13000.00000" pt_clust_6="13000.00000" pt_clust_7="13000.00000" pt_clust_8="13000.00000" pt_clust_9="136.58302"></scales>
<clustering>
<clus scale="   80.604">  5  6 -1 -1</clus>
<clus scale="   90.851">  7  8 -1 -1</clus>
<clus scale="  136.583">  2  9  1 -1</clus>
<clus scale="  211.309">  1  5  2 -1</clus>
<clus scale="  136.583">  2  5  1 -1</clus>
</clustering>
</event>
<event>
 9    1  0.2951046E-005  0.1438928E+03  0.7546771E-02  0.1210199E+00
         -4   -1    0    0    0  501 -0.00000000000E+00  0.00000000000E+00  0.25386190844E+03  0.25386190844E+03  0.00000000000E+00 0.  1.
          3   -1    0    0  502    0  0.00000000000E+00 -0.00000000000E+00 -0.11614976239E+03  0.11614976239E+03  0.00000000000E+00 0. -1.
         23    2    1    2    0    0  0.98620324565E+02  0.51114483794E+02  0.11561255238E+03  0.18401124400E+03  0.90306238868E+02 0.  0.
        -24    2    1    2    0    0 -0.90245237367E+02 -0.70474412970E+02  0.52177185809E+02  0.14926338161E+03  0.80288558460E+02 0.  0.
         13    1    4    4    0    0 -0.71879969157E+02 -0.85273565384E+02  0.26968945904E+02  0.11474160084E+03  0.00000000000E+00 0. -1.
        -14    1    4    4    0    0 -0.18365268210E+02  0.14799152414E+02  0.25208239905E+02  0.34521780773E+02  0.00000000000E+00 0.  1.
        -11    1    3    3    0    0  0.30379529776E+02  0.52943138507E+01 -0.11268891247E+02  0.32831897576E+02  0.00000000000E+00 0. -1.
         11    1    3    3    0    0  0.68240794790E+02  0.45820169944E+02  0.12688144363E+03  0.15117934642E+03  0.00000000000E+00 0.  1.
         21    1    1    2  502  501 -0.83750871980E+01  0.19359929176E+02 -0.30077592141E+02  0.36737045231E+02  0.00000000000E+00 0.  1.
<scales pt_clust_5="13000.00000" pt_clust_6="13000.00000" pt_clust_7="13000.00000" pt_clust_8="13000.00000" pt_clust_9="21.09381"></scales>
<clustering>
<clus scale="   21.094">  2  9  1 -1</clus>
<clus scale="   80.289">  5  6 -1 -1</clus>
<clus scale="   90.306">  7  8 -1 -1</clus>
<clus scale="  137.827">  2  5  1 -1</clus>
<clus scale="   21.094">  2  5  1 -1</clus>
</clustering>
</event>
<event>
 9    1  0.2951046E-005  0.1071724E+03  0.7546771E-02  0.1268203E+00
         -2   -1    0    0    0  501 -0.00000000000E+00  0.00000000000E+00  0.17243743606E+03  0.17243743606E+03  0.00000000000E+00 0.  1.
          1   -1    0    0  502    0  0.00000000000E+00 -0.00000000000E+00 -0.66505613465E+03  0.66505613465E+03  0.00000000000E+00 0. -1.
         23    2    1    2    0    0 -0.44959994994E+02  0.41288228739E+02  0.14383331122E+03  0.18019154049E+03  0.89748820969E+02 0.  0.
        -24    2    1    2    0    0 -0.24587790180E+02 -0.34199011943E+02 -0.38410966098E+03  0.39545510466E+03  0.84085529664E+02 0.  0.
         11    1    4    4    0    0  0.30489542117E+02 -0.29571251209E+01 -0.11718904548E+03  0.12112650060E+03  0.00000000000E+00 0. -1.
        -12    1    4    4    0    0 -0.55077332297E+02 -0.31241886822E+02 -0.26692061550E+03  0.27432860406E+03  0.00000000000E+00 0.  1.
        -11    1    3    3    0    0 -0.14903883130E+02  0.14908188029E+02 -0.84753299729E+01  0.22720277746E+02  0.00000000000E+00 0. -1.
         11    1    3    3    0    0 -0.30056111863E+02  0.26380040709E+02  0.15230864119E+03  0.15747126274E+03  0.00000000000E+00 0.  1.
         21    1    1    2  502  501  0.69547785174E+02 -0.70892167953E+01 -0.25234234883E+03  0.26184692557E+03  0.00000000000E+00 0. -1.
<scales pt_clust_5="13000.00000" pt_clust_6="13000.00000" pt_clust_7="13000.00000" pt_clust_8="13000.00000" pt_clust_9="69.90816"></scales>
<clustering>
<clus scale="   69.908">  2  9  1 -1</clus>
<clus scale="   84.086">  5  6 -1 -1</clus>
<clus scale="   89.749">  7  8 -1 -1</clus>
<clus scale="  102.477">  2  5  1 -1</clus>
<clus scale="   69.908">  2  5  1 -1</clus>
</clustering>
</event>
<event>
 9    1  0.2951046E-005  0.1464368E+03  0.7546771E-02  0.1207521E+00
          1   -1    0    0  502    0  0.00000000000E+00  0.00000000000E+00  0.40250319974E+03  0.40250319974E+03  0.00000000000E+00 0. -1.
         -2   -1    0    0    0  501 -0.00000000000E+00 -0.00000000000E+00 -0.15125400085E+03  0.15125400085E+03  0.00000000000E+00 0.  1.
        -24    2    1    2    0    0  0.11253387672E+03 -0.39713352216E+02 -0.93425375809E+02  0.17077579699E+03  0.78708628752E+02 0.  0.
         23    2    1    2    0    0 -0.78457319469E+02  0.23516193882E+02  0.21343582243E+03  0.24642676328E+03  0.91993135687E+02 0.  0.
         11    1    3    3    0    0  0.46043533962E+02 -0.57133452762E+02 -0.38966536917E+02  0.83082064512E+02  0.00000000000E+00 0. -1.
        -12    1    3    3    0    0  0.66490342759E+02  0.17420100546E+02 -0.54458838893E+02  0.87693732483E+02  0.00000000000E+00 0.  1.
        -11    1    4    4    0    0 -0.22855624360E+02  0.17413823056E+02  0.32400369932E+01  0.28915716108E+02  0.00000000000E+00 0.  1.
         11    1    4    4    0    0 -0.55601695110E+02  0.61023708256E+01  0.21019578543E+03  0.21751104717E+03  0.00000000000E+00 0. -1.
         21    1    1    2  502  501 -0.34076557252E+02  0.16197158334E+02  0.13123875227E+03  0.13655464031E+03  0.00000000000E+00 0. -1.
<scales pt_clust_5="13000.00000" pt_clust_6="13000.00000" pt_clust_7="13000.00000" pt_clust_8="13000.00000" pt_clust_9="37.73009"></scales>
<clustering>
<clus scale="   37.730">  1  9  2 -1</clus>
<clus scale="   78.709">  5  6 -1 -1</clus>
<clus scale="   91.993">  7  8 -1 -1</clus>
<clus scale="  138.478">  2  5  1 -1</clus>
<clus scale="   37.730">  1  5  2 -1</clus>
</clustering>
</event>
<event>
 9    1  0.2951046E-005  0.1273487E+03  0.7546771E-02  0.1236345E+00
          1   -1    0    0  502    0  0.00000000000E+00  0.00000000000E+00  0.21297820131E+03  0.21297820131E+03  0.00000000000E+00 0. -1.
         -2   -1    0    0    0  501 -0.00000000000E+00 -0.00000000000E+00 -0.10021992516E+03  0.10021992516E+03  0.00000000000E+00 0.  1.
         23    2    1    2    0    0 -0.66502670950E+02  0.27779716618E+02  0.12188229232E+02  0.12134154730E+03  0.96855047727E+02 0.  0.
        -24    2    1    2    0    0  0.85468660246E+02 -0.55603415053E+02  0.79083632620E+02  0.15191245641E+03  0.80165714697E+02 0.  0.
         13    1    4    4    0    0  0.98694437054E+02 -0.34863174107E+02  0.58982711471E+02  0.12014571597E+03  0.00000000000E+00 0. -1.
        -14    1    4    4    0    0 -0.13225776808E+02 -0.20740240946E+02  0.20100921150E+02  0.31766740433E+02  0.00000000000E+00 0.  1.
        -13    1    3    3    0    0 -0.16406410053E+02  0.55284059212E+02  0.24869981437E+02  0.62801381119E+02  0.00000000000E+00 0. -1.
         13    1    3    3    0    0 -0.50096260897E+02 -0.27504342594E+02 -0.12681752205E+02  0.58540166180E+02  0.00000000000E+00 0.  1.
         21    1    1    2  502  501 -0.18965989297E+02  0.27823698435E+02  0.21486414292E+02  0.39944122768E+02  0.00000000000E+00 0. -1.
<scales pt_clust_5="13000.00000" pt_clust_6="13000.00000" pt_clust_7="13000.00000" pt_clust_8="13000.00000" pt_clust_9="33.67294"></scales>
<clustering>
<clus scale="   33.673">  1  9  2 -1</clus>
<clus scale="   80.166">  5  6 -1 -1</clus>
<clus scale="   96.855">  7  8 -1 -1</clus>
<clus scale="  115.166">  1  5  2 -1</clus>
<clus scale="   33.673">  1  5  2 -1</clus>
</clustering>
</event>
<event>
 9    1  0.2951046E-005  0.1008922E+03  0.7546771E-02  0.1285236E+00
          1   -1    0    0  502    0  0.00000000000E+00  0.00000000000E+00  0.24205184370E+03  0.24205184370E+03  0.00000000000E+00 0. -1.
         -2   -1    0    0    0  501 -0.00000000000E+00 -0.00000000000E+00 -0.65514824716E+02  0.65514824716E+02  0.00000000000E+00 0.  1.
        -24    2    1    2    0    0 -0.30315662372E+02  0.22328978623E+02 -0.28484889473E+01  0.87479433530E+02  0.78910802366E+02 0.  0.
         23    2    1    2    0    0  0.49712835496E+02 -0.17092015553E+02  0.13929125535E+03  0.17524054941E+03  0.92432101212E+02 0.  0.
         13    1    3    3    0    0  0.37471221779E+01 -0.27093848167E+02  0.57540295779E+00  0.27357789050E+02  0.00000000000E+00 0. -1.
        -14    1    3    3    0    0 -0.34062784550E+02  0.49422826790E+02 -0.34238919051E+01  0.60121644480E+02  0.00000000000E+00 0.  1.
        -13    1    4    4    0    0  0.73741535169E+02 -0.10759743151E+02  0.72473931196E+02  0.10395218509E+03  0.00000000000E+00 0. -1.
         13    1    4    4    0    0 -0.24028699672E+02 -0.63322724020E+01  0.66817324149E+02  0.71288364325E+02  0.00000000000E+00 0.  1.
         21    1    1    2  502  501 -0.19397173124E+02 -0.52369630702E+01  0.40094252583E+02  0.44846685470E+02  0.00000000000E+00 0.  1.
<scales pt_clust_5="13000.00000" pt_clust_6="13000.00000" pt_clust_7="13000.00000" pt_clust_8="13000.00000" pt_clust_9="20.09169"></scales>
<clustering>
<clus scale="   20.092">  1  9  2 -1</clus>
<clus scale="   78.911">  5  6 -1 -1</clus>
<clus scale="   88.670">  2  5  1 -1</clus>
<clus scale="   92.432">  7  8 -1 -1</clus>
<clus scale="   20.092">  1  5  2 -1</clus>
</clustering>
</event>
<event>
 9    1  0.2951046E-005  0.2027695E+03  0.7546771E-02  0.1148269E+00
         -2   -1    0    0    0  501 -0.00000000000E+00  0.00000000000E+00  0.32666432824E+03  0.32666432824E+03  0.00000000000E+00 0.  1.
          1   -1    0    0  502    0  0.00000000000E+00 -0.00000000000E+00 -0.31265023618E+03  0.31265023618E+03  0.00000000000E+00 0. -1.
         23    2    1    2    0    0  0.12636829806E+03 -0.71467599079E+02  0.19875684194E+03  0.26234013691E+03  0.90782711699E+02 0.  0.
        -24    2    1    2    0    0 -0.18988105759E+03  0.14369408753E+02 -0.20262086638E+03  0.28971790333E+03  0.81363087933E+02 0.  0.
         11    1    4    4    0    0 -0.13262315449E+03  0.24084381350E+02 -0.18525018177E+03  0.22909951632E+03  0.00000000000E+00 0. -1.
        -12    1    4    4    0    0 -0.57257903096E+02 -0.97149725975E+01 -0.17370684608E+02  0.60618387007E+02  0.00000000000E+00 0.  1.
        -13    1    3    3    0    0  0.74422789128E+02  0.54459868308E+01  0.61759108220E+02  0.96863810385E+02  0.00000000000E+00 0. -1.
         13    1    3    3    0    0  0.51945508928E+02 -0.76913585910E+02  0.13699773372E+03  0.16547632652E+03  0.00000000000E+00 0.  1.
         21    1    1    2  502  501  0.63512759532E+02  0.57098190326E+02  0.17878116507E+02  0.87256524179E+02  0.00000000000E+00 0.  1.
<scales pt_clust_5="13000.00000" pt_clust_6="13000.00000" pt_clust_7="13000.00000" pt_clust_8="13000.00000" pt_clust_9="85.40535"></scales>
<clustering>
<clus scale="   81.363">  5  6 -1 -1</clus>
<clus scale="   85.405">  1  9  2 -1</clus>
<clus scale="   90.783">  7  8 -1 -1</clus>
<clus scale="  198.731">  2  5  1 -1</clus>
<clus scale="  198.731">  2  5  1 -1</clus>
</clustering>
</event>
<event>
 9    1  0.2951046E-005  0.1475215E+03  0.7546771E-02  0.1207626E+00
          1   -1    0    0  502    0  0.00000000000E+00  0.00000000000E+00  0.45321601928E+03  0.45321601928E+03  0.00000000000E+00 0. -1.
         -2   -1    0    0    0  501 -0.00000000000E+00 -0.00000000000E+00 -0.56739212040E+02  0.56739212040E+02  0.00000000000E+00 0.  1.
        -24    2    1    2    0    0  0.10898396298E+03  0.37353859680E+02  0.10037463394E+03  0.17337879000E+03  0.81928765788E+02 0.  0.
         23    2    1    2    0    0 -0.87433275703E+02 -0.30420279217E+02  0.24602679068E+03  0.28162145424E+03  0.10105192066E+03 0.  0.
         13    1    3    3    0    0  0.37342002964E+02  0.41630294583E+02  0.82068639892E+02  0.99311470970E+02  0.00000000000E+00 0. -1.
        -14    1    3    3    0    0  0.71641960019E+02 -0.42764349021E+01  0.18305994053E+02  0.74067319035E+02  0.00000000000E+00 0.  1.
        -11    1    4    4    0    0 -0.78199116170E+02  0.19120491717E+02  0.18951230967E+03  0.20590194387E+03  0.00000000000E+00 0. -1.
         11    1    4    4    0    0 -0.92341595337E+01 -0.49540770934E+02  0.56514481016E+02  0.75719510376E+02  0.00000000000E+00 0.  1.
         21    1    1    2  502  501 -0.21550687280E+02 -0.69335804633E+01  0.50075382614E+02  0.54954987073E+02  0.00000000000E+00 0. -1.
<scales pt_clust_5="13000.00000" pt_clust_6="13000.00000" pt_clust_7="13000.00000" pt_clust_8="13000.00000" pt_clust_9="22.63861"></scales>
<clustering>
<clus scale="   22.639">  1  9  2 -1</clus>
<clus scale="   81.929">  5  6 -1 -1</clus>
<clus scale="  101.052">  7  8 -1 -1</clus>
<clus scale="  135.142">  2  5  1 -1</clus>
<clus scale="   22.639">  1  5  2 -1</clus>
</clustering>
</event>
<event>
 9    1  0.2951046E-005  0.1194371E+03  0.7546771E-02  0.1246349E+00
         -2   -1    0    0    0  501 -0.00000000000E+00  0.00000000000E+00  0.19301077695E+03  0.19301077695E+03  0.00000000000E+00 0.  1.
          1   -1    0    0  502    0  0.00000000000E+00 -0.00000000000E+00 -0.79222382833E+03  0.79222382833E+03  0.00000000000E+00 0. -1.
        -24    2    1    2    0    0 -0.23476320765E+01  0.77681447628E+02  0.13926673963E+03  0.18017795967E+03  0.83838855560E+02 0.  0.
         23    2    1    2    0    0 -0.79868323533E+02 -0.70861952922E+02 -0.13099087310E+03  0.19199159666E+03  0.91114207877E+02 0.  0.
         11    1    3    3    0    0  0.30223670849E+02  0.82126378783E+01  0.70507202996E+02  0.77150394522E+02  0.00000000000E+00 0. -1.
        -12    1    3    3    0    0 -0.32571302926E+02  0.69468809749E+02  0.68759536637E+02  0.10302756515E+03  0.00000000000E+00 0.  1.
        -13    1    4    4    0    0 -0.96400888959E+02 -0.49938181613E+02 -0.81431214392E+02  0.13571291778E+03  0.00000000000E+00 0.  1.
         13    1    4    4    0    0  0.16532565426E+02 -0.20923771308E+02 -0.49559658710E+02  0.56278678882E+02  0.00000000000E+00 0. -1.
         21    1    1    2  502  501  0.82215955610E+02 -0.68194947061E+01 -0.60748891791E+03  0.61306504895E+03  0.00000000000E+00 0. -1.
<scales pt_clust_5="13000.00000" pt_clust_6="13000.00000" pt_clust_7="13000.00000" pt_clust_8="13000.00000" pt_clust_9="82.49830"></scales>
<clustering>
<clus scale="   82.498">  2  9  1 -1</clus>
<clus scale="   83.839">  5  6 -1 -1</clus>
<clus scale="   91.114">  7  8 -1 -1</clus>
<clus scale="  113.984">  1  5  2 -1</clus>
<clus scale="   82.498">  2  5  1 -1</clus>
</clustering>
</event>
<event>
 9    1  0.2951046E-005  0.9545479E+02  0.7546771E-02  0.1305688E+00
         -2   -1    0    0    0  501 -0.00000000000E+00  0.00000000000E+00  0.45641454624E+03  0.45641454624E+03  0.00000000000E+00 0.  1.
          1   -1    0    0  502    0  0.00000000000E+00 -0.00000000000E+00 -0.66336452939E+02  0.66336452939E+02  0.00000000000E+00 0. -1.
        -24    2    1    2    0    0 -0.26318957549E+02  0.11471047855E+02  0.32096969145E+03  0.32869600922E+03  0.64770758716E+02 0.  0.
         23    2    1    2    0    0  0.64215144809E+02  0.39155401910E+02  0.51569539407E+02  0.12842900333E+03  0.90431527577E+02 0.  0.
         11    1    3    3    0    0 -0.22215882522E+02  0.46035272098E+01  0.29983359959E+02  0.37599731029E+02  0.00000000000E+00 0. -1.
        -12    1    3    3    0    0 -0.41030750274E+01  0.68675206450E+01  0.29098633149E+03  0.29109627820E+03  0.00000000000E+00 0.  1.
        -13    1    4    4    0    0  0.36007684941E+02  0.67924047811E+02  0.39122079276E+02  0.86259879044E+02  0.00000000000E+00 0.  1.
         13    1    4    4    0    0  0.28207459868E+02 -0.28768645901E+02  0.12447460132E+02  0.42169124285E+02  0.00000000000E+00 0. -1.
         21    1    1    2  502  501 -0.37896187260E+02 -0.50626449765E+02  0.17538862443E+02  0.65625986624E+02  0.00000000000E+00 0. -1.
<scales pt_clust_5="13000.00000" pt_clust_6="13000.00000" pt_clust_7="13000.00000" pt_clust_8="13000.00000" pt_clust_9="63.23890"></scales>
<clustering>
<clus scale="   63.239">  2  9  1 -1</clus>
<clus scale="   64.771">  5  6 -1 -1</clus>
<clus scale="   71.617">  1  5  2 -1</clus>
<clus scale="   90.432">  7  8 -1 -1</clus>
<clus scale="   63.239">  2  5  1 -1</clus>
</clustering>
</event>
<event>
 9    1  0.2951046E-005  0.1187427E+03  0.7546771E-02  0.1247713E+00
          1   -1    0    0  502    0  0.00000000000E+00  0.00000000000E+00  0.89208217875E+03  0.89208217875E+03  0.00000000000E+00 0. -1.
         -2   -1    0    0    0  501 -0.00000000000E+00 -0.00000000000E+00 -0.80732520093E+02  0.80732520093E+02  0.00000000000E+00 0.  1.
        -24    2    1    2    0    0  0.74380596147E+02  0.22502042524E+02 -0.15948780693E+02  0.11322880507E+03  0.80793463167E+02 0.  0.
         23    2    1    2    0    0 -0.10657701879E+03  0.54377936059E+02  0.49111008168E+03  0.51321939342E+03  0.88822365356E+02 0.  0.
         13    1    3    3    0    0  0.62309946866E+02  0.48149457605E+01  0.24767851661E+02  0.67224695292E+02  0.00000000000E+00 0. -1.
        -14    1    3    3    0    0  0.12070649280E+02  0.17687096764E+02 -0.40716632354E+02  0.46004109775E+02  0.00000000000E+00 0.  1.
        -11    1    4    4    0    0 -0.51556173420E+01 -0.21558935358E+02  0.81602323814E+02  0.84559489921E+02  0.00000000000E+00 0.  1.
         11    1    4    4    0    0 -0.10142140145E+03  0.75936871417E+02  0.40950775787E+03  0.42865990350E+03  0.00000000000E+00 0. -1.
         21    1    1    2  502  501  0.32196422644E+02 -0.76879978583E+02  0.33618835767E+03  0.34636650036E+03  0.00000000000E+00 0.  1.
<scales pt_clust_5="13000.00000" pt_clust_6="13000.00000" pt_clust_7="13000.00000" pt_clust_8="13000.00000" pt_clust_9="83.34951"></scales>
<clustering>
<clus scale="   80.793">  5  6 -1 -1</clus>
<clus scale="   83.350">  1  9  2 -1</clus>
<clus scale="   88.822">  7  8 -1 -1</clus>
<clus scale="  112.863">  2  5  1 -1</clus>
<clus scale="   83.350">  1  5  2 -1</clus>
</clustering>
</event>
<event>
 9    1  0.2951046E-005  0.1066749E+03  0.7546771E-02  0.1271007E+00
          1   -1    0    0  502    0  0.00000000000E+00  0.00000000000E+00  0.10375388400E+03  0.10375388400E+03  0.00000000000E+00 0. -1.
         -2   -1    0    0    0  501 -0.00000000000E+00 -0.00000000000E+00 -0.32357595038E+03  0.32357595038E+03  0.00000000000E+00 0.  1.
        -24    2    1    2    0    0 -0.17670694396E+01  0.51777025999E+02 -0.25088733556E+03  0.26881871362E+03  0.81455894168E+02 0.  0.
         23    2    1    2    0    0  0.68988251909E+01 -0.82845972699E+02  0.19530895802E+02  0.12497522753E+03  0.91248576004E+02 0.  0.
         11    1    3    3    0    0 -0.33519070959E+02  0.24009985420E+02 -0.19203581984E+03  0.19641222879E+03  0.00000000000E+00 0. -1.
        -12    1    3    3    0    0  0.31752001519E+02  0.27767040579E+02 -0.58851515715E+02  0.72406484827E+02  0.00000000000E+00 0.  1.
        -11    1    4    4    0    0  0.12815177940E+02 -0.53688484366E+02  0.55514462711E+02  0.78284977545E+02  0.00000000000E+00 0. -1.
         11    1    4    4    0    0 -0.59163527494E+01 -0.29157488333E+02 -0.35983566909E+02  0.46690249980E+02  0.00000000000E+00 0.  1.
         21    1    1    2  502  501 -0.51317557513E+01  0.31068946700E+02  0.11534373376E+02  0.33535893239E+02  0.00000000000E+00 0. -1.
<scales pt_clust_5="13000.00000" pt_clust_6="13000.00000" pt_clust_7="13000.00000" pt_clust_8="13000.00000" pt_clust_9="31.48991"></scales>
<clustering>
<clus scale="   31.490">  1  9  2 -1</clus>
<clus scale="   81.456">  5  6 -1 -1</clus>
<clus scale="   91.249">  7  8 -1 -1</clus>
<clus scale="   98.429">  2  5  1 -1</clus>
<clus scale="   31.490">  1  5  2 -1</clus>
</clustering>
</event>
<event>
 9    1  0.2951046E-005  0.2135224E+03  0.7546771E-02  0.1139578E+00
          1   -1    0    0  502    0  0.00000000000E+00  0.00000000000E+00  0.15291172767E+03  0.15291172767E+03  0.00000000000E+00 0. -1.
         -2   -1    0    0    0  501 -0.00000000000E+00 -0.00000000000E+00 -0.50047859406E+03  0.50047859406E+03  0.00000000000E+00 0.  1.
         23    2    1    2    0    0  0.71332257261E+02  0.18904732361E+03 -0.36795260529E+03  0.42911871776E+03  0.89031301828E+02 0.  0.
        -24    2    1    2    0    0 -0.70062034321E+02 -0.15380133378E+03  0.76095170593E+01  0.18675993766E+03  0.79106451294E+02 0.  0.
         11    1    4    4    0    0 -0.44505468093E+02 -0.73185022882E+02  0.42081450339E+02  0.95433918117E+02  0.00000000000E+00 0. -1.
        -12    1    4    4    0    0 -0.25556566228E+02 -0.80616310902E+02 -0.34471933280E+02  0.91326019539E+02  0.00000000000E+00 0.  1.
        -13    1    3    3    0    0  0.41151352456E+02  0.94329547509E+02 -0.27256288878E+03  0.29134520021E+03  0.00000000000E+00 0.  1.
         13    1    3    3    0    0  0.30180904805E+02  0.94717776100E+02 -0.95389716504E+02  0.13777351755E+03  0.00000000000E+00 0. -1.
         21    1    1    2  502  501 -0.12702229396E+01 -0.35245989825E+02  0.12776221838E+02  0.37511666312E+02  0.00000000000E+00 0. -1.
<scales pt_clust_5="13000.00000" pt_clust_6="13000.00000" pt_clust_7="13000.00000" pt_clust_8="13000.00000" pt_clust_9="35.26887"></scales>
<clustering>
<clus scale="   35.269">  1  9  2 -1</clus>
<clus scale="   79.106">  5  6 -1 -1</clus>
<clus scale="   89.031">  7  8 -1 -1</clus>
<clus scale="  209.578">  1  5  2 -1</clus>
<clus scale="   35.269">  1  5  2 -1</clus>
</clustering>
</event>
<event>
 9    1  0.2951046E-005  0.1036351E+03  0.7546771E-02  0.1277386E+00
          1   -1    0    0  502    0  0.00000000000E+00  0.00000000000E+00  0.65904055732E+02  0.65904055732E+02  0.00000000000E+00 0. -1.
         -2   -1    0    0    0  501 -0.00000000000E+00 -0.00000000000E+00 -0.26442851378E+03  0.26442851378E+03  0.00000000000E+00 0.  1.
        -24    2    1    2    0    0 -0.28029530891E+01  0.47694867514E+02 -0.14698882640E+03  0.17421544422E+03  0.80390602588E+02 0.  0.
         23    2    1    2    0    0  0.36148100477E+02 -0.52677713642E+02 -0.52108657998E+02  0.12239686478E+03  0.90465759191E+02 0.  0.
         13    1    3    3    0    0  0.99651976700E+01  0.64395758241E+02 -0.13527092711E+03  0.15014773580E+03  0.00000000000E+00 0. -1.
        -14    1    3    3    0    0 -0.12768150759E+02 -0.16700890727E+02 -0.11717899294E+02  0.24067708423E+02  0.00000000000E+00 0.  1.
        -11    1    4    4    0    0  0.30246701990E+02  0.20713926617E+02 -0.12127791996E+02  0.38613638470E+02  0.00000000000E+00 0. -1.
         11    1    4    4    0    0  0.59013984870E+01 -0.73391640259E+02 -0.39980866002E+02  0.83783226306E+02  0.00000000000E+00 0.  1.
         21    1    1    2  502  501 -0.33345147388E+02  0.49828461287E+01  0.57302635559E+00  0.33720260513E+02  0.00000000000E+00 0.  1.
<scales pt_clust_5="13000.00000" pt_clust_6="13000.00000" pt_clust_7="13000.00000" pt_clust_8="13000.00000" pt_clust_9="33.71539"></scales>
<clustering>
<clus scale="   33.715">  1  9  2 -1</clus>
<clus scale="   80.391">  5  6 -1 -1</clus>
<clus scale="   90.466">  7  8 -1 -1</clus>
<clus scale="   94.967">  2  5  1 -1</clus>
<clus scale="   33.715">  1  5  2 -1</clus>
</clustering>
</event>
<event>
 9    1  0.2951046E-005  0.9696818E+02  0.7546771E-02  0.1294126E+00
          1   -1    0    0  502    0  0.00000000000E+00  0.00000000000E+00  0.87716979087E+02  0.87716979087E+02  0.00000000000E+00 0. -1.
         -2   -1    0    0    0  501 -0.00000000000E+00 -0.00000000000E+00 -0.31172169456E+03  0.31172169456E+03  0.00000000000E+00 0.  1.
         23    2    1    2    0    0 -0.44984090974E+02  0.90648252051E+01 -0.25090196645E+03  0.27197137299E+03  0.94397518283E+02 0.  0.
        -24    2    1    2    0    0  0.19661946032E+02 -0.31587824137E+01  0.45480371210E+02  0.95507564686E+02  0.81588361417E+02 0.  0.
         13    1    4    4    0    0  0.32452441135E+02 -0.14567125957E+02  0.62142949731E+02  0.71603828777E+02  0.00000000000E+00 0. -1.
        -14    1    4    4    0    0 -0.12790495104E+02  0.11408343544E+02 -0.16662578521E+02  0.23903735908E+02  0.00000000000E+00 0.  1.
        -13    1    3    3    0    0 -0.28070851050E+02  0.41014113276E+02 -0.21627794914E+03  0.22191503205E+03  0.00000000000E+00 0.  1.
         13    1    3    3    0    0 -0.16913239924E+02 -0.31949288071E+02 -0.34624017314E+02  0.50056340936E+02  0.00000000000E+00 0. -1.
         21    1    1    2  502  501  0.25322144943E+02 -0.59060427914E+01 -0.18583120228E+02  0.31959735972E+02  0.00000000000E+00 0. -1.
<scales pt_clust_5="13000.00000" pt_clust_6="13000.00000" pt_clust_7="13000.00000" pt_clust_8="13000.00000" pt_clust_9="26.00178"></scales>
<clustering>
<clus scale="   26.002">  2  9  1 -1</clus>
<clus scale="   81.588">  5  6 -1 -1</clus>
<clus scale="   84.549">  1  5  2 -1</clus>
<clus scale="   94.398">  7  8 -1 -1</clus>
<clus scale="   84.549">  1  5  2 -1</clus>
</clustering>
</event>
<event>
 9    1  0.2951046E-005  0.1458745E+03  0.7546771E-02  0.1207868E+00
         -2   -1    0    0    0  501 -0.00000000000E+00  0.00000000000E+00  0.17723226042E+03  0.17723226042E+03  0.00000000000E+00 0.  1.
          1   -1    0    0  502    0  0.00000000000E+00 -0.00000000000E+00 -0.27135528837E+03  0.27135528837E+03  0.00000000000E+00 0. -1.
        -24    2    1    2    0    0 -0.10297050244E+03 -0.55283801778E+02  0.99933159375E+02  0.17397133770E+03  0.81364407997E+02 0.  0.
         23    2    1    2    0    0  0.79821172463E+02  0.79654367997E+02 -0.19173543468E+03  0.24092345417E+03  0.92549424311E+02 0.  0.
         11    1    3    3    0    0 -0.50901385964E+02  0.14189356971E+02  0.54776041594E+02  0.76109813276E+02  0.00000000000E+00 0. -1.
        -12    1    3    3    0    0 -0.52069116475E+02 -0.69473158750E+02  0.45157117781E+02  0.97861524428E+02  0.00000000000E+00 0.  1.
        -11    1    4    4    0    0 -0.28424751753E+01  0.42361955020E+02 -0.20479123681E+02  0.47138194757E+02  0.00000000000E+00 0.  1.
         11    1    4    4    0    0  0.82663647638E+02  0.37292412977E+02 -0.17125631100E+03  0.19378525941E+03  0.00000000000E+00 0. -1.
         21    1    1    2  502  501  0.23149329975E+02 -0.24370566219E+02 -0.23207526407E+01  0.33692756921E+02  0.00000000000E+00 0.  1.
<scales pt_clust_5="13000.00000" pt_clust_6="13000.00000" pt_clust_7="13000.00000" pt_clust_8="13000.00000" pt_clust_9="33.61274"></scales>
<clustering>
<clus scale="   33.613">  1  9  2 -1</clus>
<clus scale="   81.364">  5  6 -1 -1</clus>
<clus scale="   92.549">  7  8 -1 -1</clus>
<clus scale="  139.047">  1  5  2 -1</clus>
<clus scale="  145.875">  2  5  1 -1</clus>
</clustering>
</event>
<event>
 9    1  0.2951046E-005  0.3411696E+03  0.7546771E-02  0.1066324E+00
         -2   -1    0    0    0  501 -0.00000000000E+00  0.00000000000E+00  0.23933187105E+03  0.23933187105E+03  0.00000000000E+00 0.  1.
          1   -1    0    0  502    0  0.00000000000E+00 -0.00000000000E+00 -0.61434016065E+03  0.61434016065E+03  0.00000000000E+00 0. -1.
        -24    2    1    2    0    0 -0.28938376055E+03  0.13687510026E+03 -0.39305488039E+02  0.33450945192E+03  0.88734988005E+02 0.  0.
         23    2    1    2    0    0  0.32026750994E+03 -0.13577804488E+03 -0.27863048139E+03  0.45426065964E+03  0.87811424859E+02 0.  0.
         11    1    3    3    0    0 -0.17892561252E+03  0.40476377813E+02 -0.40647017247E+02  0.18789596054E+03  0.00000000000E+00 0. -1.
        -12    1    3    3    0    0 -0.11045814803E+03  0.96398722442E+02  0.13415292082E+01  0.14661349138E+03  0.00000000000E+00 0.  1.
        -11    1    4    4    0    0  0.42408190792E+02 -0.54025151916E+02 -0.44621319122E+02  0.81903808251E+02  0.00000000000E+00 0.  1.
         11    1    4    4    0    0  0.27785931915E+03 -0.81752892962E+02 -0.23400916227E+03  0.37235685138E+03  0.00000000000E+00 0. -1.
         21    1    1    2  502  501 -0.30883749397E+02 -0.10970553767E+01 -0.57072320174E+02  0.64901920136E+02  0.00000000000E+00 0.  1.
<scales pt_clust_5="13000.00000" pt_clust_6="13000.00000" pt_clust_7="13000.00000" pt_clust_8="13000.00000" pt_clust_9="30.90323"></scales>
<clustering>
<clus scale="   30.903">  2  9  1 -1</clus>
<clus scale="   87.811">  7  8 -1 -1</clus>
<clus scale="   88.735">  5  6 -1 -1</clus>
<clus scale="  340.931">  2  7  1 -1</clus>
<clus scale="   30.903">  2  5  1 -1</clus>
</clustering>
</event>
<event>
 9    1  0.2951046E-005  0.1060113E+03  0.7546771E-02  0.1274411E+00
         -2   -1    0    0    0  501 -0.00000000000E+00  0.00000000000E+00  0.14162101713E+03  0.14162101713E+03  0.00000000000E+00 0.  1.
          1   -1    0    0  502    0  0.00000000000E+00 -0.00000000000E+00 -0.17980440677E+03  0.17980440677E+03  0.00000000000E+00 0. -1.
         23    2    1    2    0    0  0.30665927543E+02  0.34244354078E+02  0.74501905689E+02  0.12748447271E+03  0.92675141939E+02 0.  0.
        -24    2    1    2    0    0 -0.60545442102E+02 -0.33177676721E+02 -0.34337203681E+02  0.11008186309E+03  0.78565031871E+02 0.  0.
         13    1    4    4    0    0 -0.38839706564E+01  0.23053647239E+02 -0.15535648864E+02  0.28069774932E+02  0.00000000000E+00 0. -1.
        -14    1    4    4    0    0 -0.56661471446E+02 -0.56231323960E+02 -0.18801554817E+02  0.82012088159E+02  0.00000000000E+00 0.  1.
        -13    1    3    3    0    0  0.63041197615E+02  0.26441808827E+02  0.60750328011E+02  0.91454711220E+02  0.00000000000E+00 0.  1.
         13    1    3    3    0    0 -0.32375270072E+02  0.78025452502E+01  0.13751577678E+02  0.36029761494E+02  0.00000000000E+00 0. -1.
         21    1    1    2  502  501  0.29879514559E+02 -0.10666773564E+01 -0.78348091651E+02  0.83859088096E+02  0.00000000000E+00 0. -1.
<scales pt_clust_5="13000.00000" pt_clust_6="13000.00000" pt_clust_7="13000.00000" pt_clust_8="13000.00000" pt_clust_9="29.89855"></scales>
<clustering>
<clus scale="   29.899">  2  9  1 -1</clus>
<clus scale="   78.565">  5  6 -1 -1</clus>
<clus scale="   92.675">  7  8 -1 -1</clus>
<clus scale="   93.927">  2  5  1 -1</clus>
<clus scale="   29.899">  2  5  1 -1</clus>
</clustering>
</event>
<event>
 9    1  0.2951046E-005  0.1706494E+03  0.7546771E-02  0.1178503E+00
          1   -1    0    0  502    0  0.00000000000E+00  0.00000000000E+00  0.24801171876E+03  0.24801171876E+03  0.00000000000E+00 0. -1.
         -2   -1    0    0    0  501 -0.00000000000E+00 -0.00000000000E+00 -0.19113499409E+03  0.19113499409E+03  0.00000000000E+00 0.  1.
         23    2    1    2    0    0  0.17280418922E+03  0.17723683866E+02 -0.41615467424E+02  0.20096055725E+03  0.92075412896E+02 0.  0.
        -24    2    1    2    0    0 -0.11148891503E+03  0.13379928576E+02  0.32718490854E+02  0.14303796944E+03  0.82344158218E+02 0.  0.
         11    1    4    4    0    0 -0.71553349974E+02  0.45427963670E+02  0.52200033273E+01  0.84916607389E+02  0.00000000000E+00 0. -1.
        -12    1    4    4    0    0 -0.39935565059E+02 -0.32048035094E+02  0.27498487526E+02  0.58121362047E+02  0.00000000000E+00 0.  1.
        -11    1    3    3    0    0  0.11631486459E+03  0.42339905031E+02  0.47076091905E+01  0.12387080717E+03  0.00000000000E+00 0. -1.
         11    1    3    3    0    0  0.56489324624E+02 -0.24616221165E+02 -0.46323076615E+02  0.77089750084E+02  0.00000000000E+00 0.  1.
         21    1    1    2  502  501 -0.61315274186E+02 -0.31103612442E+02  0.65773701235E+02  0.95148186160E+02  0.00000000000E+00 0.  1.
<scales pt_clust_5="13000.00000" pt_clust_6="13000.00000" pt_clust_7="13000.00000" pt_clust_8="13000.00000" pt_clust_9="68.75316"></scales>
<clustering>
<clus scale="   68.753">  1  9  2 -1</clus>
<clus scale="   82.344">  5  6 -1 -1</clus>
<clus scale="   92.075">  7  8 -1 -1</clus>
<clus scale="  165.602">  1  5  2 -1</clus>
<clus scale="   68.753">  1  5  2 -1</clus>
</clustering>
</event>
<event>
 9    1  0.2951046E-005  0.9653430E+02  0.7546771E-02  0.1299100E+00
         -2   -1    0    0    0  501 -0.00000000000E+00  0.00000000000E+00  0.37285396068E+03  0.37285396068E+03  0.00000000000E+00 0.  1.
          1   -1    0    0  502    0  0.00000000000E+00 -0.00000000000E+00 -0.13288051244E+03  0.13288051244E+03  0.00000000000E+00 0. -1.
        -24    2    1    2    0    0 -0.82989849816E+01 -0.22803495681E+02  0.29712013512E+03  0.30708359154E+03  0.73695894931E+02 0.  0.
         23    2    1    2    0    0  0.51085415605E+02  0.49693047464E+02 -0.81351621740E+02  0.14261869876E+03  0.92967135174E+02 0.  0.
         11    1    3    3    0    0 -0.31394042685E+02  0.90325931510E+01  0.79708420112E+02  0.86142938723E+02  0.00000000000E+00 0. -1.
        -12    1    3    3    0    0  0.23095057703E+02 -0.31836088832E+02  0.21741171501E+03  0.22094065281E+03  0.00000000000E+00 0.  1.
        -13    1    4    4    0    0 -0.68132841479E+01  0.40289052556E+02  0.17523743294E+01  0.40898648052E+02  0.00000000000E+00 0.  1.
         13    1    4    4    0    0  0.57898699753E+02  0.94039949086E+01 -0.83103996069E+02  0.10172005071E+03  0.00000000000E+00 0. -1.
         21    1    1    2  502  501 -0.42786430624E+02 -0.26889551783E+02  0.24204934860E+02  0.56032182826E+02  0.00000000000E+00 0.  1.
<scales pt_clust_5="13000.00000" pt_clust_6="13000.00000" pt_clust_7="13000.00000" pt_clust_8="13000.00000" pt_clust_9="50.53441"></scales>
<clustering>
<clus scale="   50.534">  2  9  1 -1</clus>
<clus scale="   73.696">  5  6 -1 -1</clus>
<clus scale="   78.148">  1  5  2 -1</clus>
<clus scale="   92.967">  7  8 -1 -1</clus>
<clus scale="   50.534">  2  5  1 -1</clus>
</clustering>
</event>
<event>
 9    1  0.2951046E-005  0.2512708E+03  0.7546771E-02  0.1128764E+00
          3   -1    0    0  502    0  0.00000000000E+00  0.00000000000E+00  0.28601875755E+03  0.28601875755E+03  0.00000000000E+00 0. -1.
         -4   -1    0    0    0  501 -0.00000000000E+00 -0.00000000000E+00 -0.77540194857E+03  0.77540194857E+03  0.00000000000E+00 0.  1.
        -24    2    1    2    0    0 -0.20915644304E+03  0.79848040328E+02 -0.48823086730E+03  0.54285815458E+03  0.78762103808E+02 0.  0.
         23    2    1    2    0    0 -0.13499131176E+03 -0.31956668653E+02 -0.29399929086E+02  0.16995218478E+03  0.93677672678E+02 0.  0.
         11    1    3    3    0    0 -0.95325461674E+02  0.71093285695E+02 -0.19780909526E+03  0.23080216005E+03  0.00000000000E+00 0. -1.
        -12    1    3    3    0    0 -0.11383098136E+03  0.87547546330E+01 -0.29042177204E+03  0.31205599453E+03  0.00000000000E+00 0.  1.
        -13    1    4    4    0    0 -0.56783485790E+02  0.16174629076E+01  0.31820118281E+02  0.65111445784E+02  0.00000000000E+00 0.  1.
         13    1    4    4    0    0 -0.78207825967E+02 -0.33574131560E+02 -0.61220047367E+02  0.10484073899E+03  0.00000000000E+00 0. -1.
         21    1    1    2  502  501  0.34414775479E+03 -0.47891371675E+02  0.28247605366E+02  0.34861036677E+03  0.00000000000E+00 0. -1.
<scales pt_clust_5="13000.00000" pt_clust_6="13000.00000" pt_clust_7="13000.00000" pt_clust_8="13000.00000" pt_clust_9="238.60755"></scales>
<clustering>
<clus scale="   78.762">  5  6 -1 -1</clus>
<clus scale="   93.678">  7  8 -1 -1</clus>
<clus scale="  167.390">  1  7  2 -1</clus>
<clus scale="  238.608">  1  9  2 -1</clus>
<clus scale="  167.390">  1  5  2 -1</clus>
</clustering>
</event>
<event>
 9    1  0.2951046E-005  0.1905742E+03  0.7546771E-02  0.1158974E+00
         -4   -1    0    0    0  501 -0.00000000000E+00  0.00000000000E+00  0.23170637655E+03  0.23170637655E+03  0.00000000000E+00 0.  1.
          3   -1    0    0  502    0  0.00000000000E+00 -0.00000000000E+00 -0.19878137970E+03  0.19878137970E+03  0.00000000000E+00 0. -1.
         23    2    1    2    0    0  0.19162279403E+02 -0.17495219841E+03  0.89717862777E+02  0.21692614720E+03  0.89622506986E+02 0.  0.
        -24    2    1    2    0    0 -0.36060085100E+02  0.14987918100E+03 -0.59036988936E+02  0.18324283388E+03  0.79551690556E+02 0.  0.
         13    1    4    4    0    0 -0.43697157861E+01  0.81793059364E+02 -0.69494547390E+02  0.10741829962E+03  0.00000000000E+00 0. -1.
        -14    1    4    4    0    0 -0.31690369313E+02  0.68086121638E+02  0.10457558454E+02  0.75824534260E+02  0.00000000000E+00 0.  1.
        -13    1    3    3    0    0  0.22154789778E+02 -0.24202479527E+01  0.22698055322E+02  0.31810281760E+02  0.00000000000E+00 0. -1.
         13    1    3    3    0    0 -0.29925103753E+01 -0.17253195046E+03  0.67019807455E+02  0.18511586544E+03  0.00000000000E+00 0.  1.
         21    1    1    2  502  501  0.16897805697E+02  0.25073017411E+02  0.22441230097E+01  0.30318775166E+02  0.00000000000E+00 0.  1.
<scales pt_clust_5="13000.00000" pt_clust_6="13000.00000" pt_clust_7="13000.00000" pt_clust_8="13000.00000" pt_clust_9="30.23561"></scales>
<clustering>
<clus scale="   30.236">  2  9  1 -1</clus>
<clus scale="   79.552">  5  6 -1 -1</clus>
<clus scale="   89.623">  7  8 -1 -1</clus>
<clus scale="  186.051">  2  5  1 -1</clus>
<clus scale="   30.236">  2  5  1 -1</clus>
</clustering>
</event>
<event>
 9    1  0.2951046E-005  0.1069854E+03  0.7546771E-02  0.1271376E+00
          1   -1    0    0  502    0  0.00000000000E+00  0.00000000000E+00  0.25903191748E+03  0.25903191748E+03  0.00000000000E+00 0. -1.
         -2   -1    0    0    0  501 -0.00000000000E+00 -0.00000000000E+00 -0.17994124562E+03  0.17994124562E+03  0.00000000000E+00 0.  1.
         23    2    1    2    0    0  0.12115439892E+02  0.45629922940E+02 -0.14545901357E+03  0.18018020686E+03  0.95277009627E+02 0.  0.
        -24    2    1    2    0    0 -0.53390556339E+01 -0.64510832978E+02  0.16584905958E+03  0.19675932325E+03  0.83774504677E+02 0.  0.
         13    1    4    4    0    0  0.15989413383E+02 -0.73465650442E+02  0.89013597177E+02  0.11651731038E+03  0.00000000000E+00 0. -1.
        -14    1    4    4    0    0 -0.21328469017E+02  0.89548174636E+01  0.76835462405E+02  0.80242012870E+02  0.00000000000E+00 0.  1.
        -13    1    3    3    0    0 -0.23028949669E+02  0.26860673850E+02 -0.69534100893E+01  0.36057984337E+02  0.00000000000E+00 0. -1.
         13    1    3    3    0    0  0.35144389562E+02  0.18769249089E+02 -0.13850560348E+03  0.14412222252E+03  0.00000000000E+00 0.  1.
         21    1    1    2  502  501 -0.67763842586E+01  0.18880910039E+02  0.58700625847E+02  0.62033632993E+02  0.00000000000E+00 0. -1.
<scales pt_clust_5="13000.00000" pt_clust_6="13000.00000" pt_clust_7="13000.00000" pt_clust_8="13000.00000" pt_clust_9="20.06011"></scales>
<clustering>
<clus scale="   20.060">  1  9  2 -1</clus>
<clus scale="   83.775">  5  6 -1 -1</clus>
<clus scale="   95.277">  7  8 -1 -1</clus>
<clus scale="   96.883">  1  5  2 -1</clus>
<clus scale="   20.060">  1  5  2 -1</clus>
</clustering>
</event>
<event>
 9    1  0.2951046E-005  0.1138638E+03  0.7546771E-02  0.1257904E+00
          1   -1    0    0  502    0  0.00000000000E+00  0.00000000000E+00  0.44934604785E+03  0.44934604785E+03  0.00000000000E+00 0. -1.
         -2   -1    0    0    0  501 -0.00000000000E+00 -0.00000000000E+00 -0.33888197089E+03  0.33888197089E+03  0.00000000000E+00 0.  1.
        -24    2    1    2    0    0  0.40014101551E+02  0.53237731138E+02 -0.30135015434E+03  0.31866972026E+03  0.79392006811E+02 0.  0.
         23    2    1    2    0    0 -0.22563378958E+02 -0.12065481682E+03  0.24581283050E+03  0.28954147641E+03  0.91343461889E+02 0.  0.
         13    1    3    3    0    0  0.42189610145E+02  0.10352043754E+01 -0.20260660451E+03  0.20695523922E+03  0.00000000000E+00 0. -1.
        -14    1    3    3    0    0 -0.21755085944E+01  0.52202526762E+02 -0.98743549837E+02  0.11171448103E+03  0.00000000000E+00 0.  1.
        -13    1    4    4    0    0 -0.38541868848E+02 -0.45978628243E+02  0.45903100975E+02  0.75542071646E+02  0.00000000000E+00 0.  1.
         13    1    4    4    0    0  0.15978489890E+02 -0.74676188575E+02  0.19990972952E+03  0.21399940476E+03  0.00000000000E+00 0. -1.
         21    1    1    2  502  501 -0.17450722592E+02  0.67417085681E+02  0.16600140081E+03  0.18001682208E+03  0.00000000000E+00 0. -1.
<scales pt_clust_5="13000.00000" pt_clust_6="13000.00000" pt_clust_7="13000.00000" pt_clust_8="13000.00000" pt_clust_9="69.63901"></scales>
<clustering>
<clus scale="   69.639">  1  9  2 -1</clus>
<clus scale="   79.392">  5  6 -1 -1</clus>
<clus scale="   91.343">  7  8 -1 -1</clus>
<clus scale="  104.520">  2  5  1 -1</clus>
<clus scale="   69.639">  1  5  2 -1</clus>
</clustering>
</event>
<event>
 9    1  0.2951046E-005  0.1305011E+03  0.7546771E-02  0.1229463E+00
          1   -1    0    0  502    0  0.00000000000E+00  0.00000000000E+00  0.12346047604E+03  0.12346047604E+03  0.00000000000E+00 0. -1.
         -2   -1    0    0    0  501 -0.00000000000E+00 -0.00000000000E+00 -0.16787190338E+03  0.16787190338E+03  0.00000000000E+00 0.  1.
        -24    2    1    2    0    0  0.72479220901E+02  0.71688548642E+02 -0.65377773243E+02  0.14551222645E+03  0.80666407778E+02 0.  0.
         23    2    1    2    0    0 -0.57751334243E+02 -0.53111877545E+02  0.14664648518E+02  0.12129027844E+03  0.91324649381E+02 0.  0.
         11    1    3    3    0    0  0.69795459332E+02  0.14331635308E+02 -0.46441515644E+02  0.85050668952E+02  0.00000000000E+00 0. -1.
        -12    1    3    3    0    0  0.26837615692E+01  0.57356913334E+02 -0.18936257599E+02  0.60461557499E+02  0.00000000000E+00 0.  1.
        -11    1    4    4    0    0 -0.58300749960E+02  0.25853449517E+01 -0.11933275005E+02  0.59565631926E+02  0.00000000000E+00 0.  1.
         11    1    4    4    0    0  0.54941571717E+00 -0.55697222497E+02  0.26597923522E+02  0.61724646513E+02  0.00000000000E+00 0. -1.
         21    1    1    2  502  501 -0.14727886658E+02 -0.18576671097E+02  0.63016973916E+01  0.24529874530E+02  0.00000000000E+00 0.  1.
<scales pt_clust_5="13000.00000" pt_clust_6="13000.00000" pt_clust_7="13000.00000" pt_clust_8="13000.00000" pt_clust_9="23.70661"></scales>
<clustering>
<clus scale="   23.707">  1  9  2 -1</clus>
<clus scale="   80.666">  5  6 -1 -1</clus>
<clus scale="   91.325">  7  8 -1 -1</clus>
<clus scale="  123.278">  2  5  1 -1</clus>
<clus scale="   23.707">  1  5  2 -1</clus>
</clustering>
</event>
<event>
 9    1  0.2951046E-005  0.9330750E+02  0.7546771E-02  0.1302427E+00
         -2   -1    0    0    0  501 -0.00000000000E+00  0.00000000000E+00  0.51788959210E+02  0.51788959210E+02  0.00000000000E+00 0.  1.
          1   -1    0    0  502    0  0.00000000000E+00 -0.00000000000E+00 -0.21828425052E+03  0.21828425052E+03  0.00000000000E+00 0. -1.
        -24    2    1    2    0    0 -0.14782478279E+02  0.33565813383E+01 -0.24914712181E+02  0.85959003898E+02  0.80860491995E+02 0.  0.
         23    2    1    2    0    0 -0.85507067898E+01 -0.88627909371E+01 -0.11524621321E+03  0.14850164207E+03  0.92840639743E+02 0.  0.
         11    1    3    3    0    0 -0.24769544512E+02 -0.17848903734E+02 -0.45479551624E+02  0.54776850181E+02  0.00000000000E+00 0. -1.
        -12    1    3    3    0    0  0.99870662330E+01  0.21205485073E+02  0.20564839443E+02  0.31182153717E+02  0.00000000000E+00 0.  1.
        -11    1    4    4    0    0 -0.17884267077E+02 -0.44576326323E+02 -0.94876719196E+02  0.10634137352E+03  0.00000000000E+00 0. -1.
         11    1    4    4    0    0  0.93335602876E+01  0.35713535386E+02 -0.20369494016E+02  0.42160268547E+02  0.00000000000E+00 0.  1.
         21    1    1    2  502  501  0.23333185069E+02  0.55062095988E+01 -0.26334365921E+02  0.35612563767E+02  0.00000000000E+00 0.  1.
<scales pt_clust_5="13000.00000" pt_clust_6="13000.00000" pt_clust_7="13000.00000" pt_clust_8="13000.00000" pt_clust_9="23.97407"></scales>
<clustering>
<clus scale="   23.974">  2  9  1 -1</clus>
<clus scale="   80.860">  5  6 -1 -1</clus>
<clus scale="   81.396">  1  5  2 -1</clus>
<clus scale="   92.841">  7  8 -1 -1</clus>
<clus scale="   23.974">  2  5  1 -1</clus>
</clustering>
</event>
<event>
 9    1  0.2951046E-005  0.1502815E+03  0.7546771E-02  0.1202069E+00
          1   -1    0    0  502    0  0.00000000000E+00  0.00000000000E+00  0.35928727650E+03  0.35928727650E+03  0.00000000000E+00 0. -1.
         -2   -1    0    0    0  501 -0.00000000000E+00 -0.00000000000E+00 -0.10336035512E+03  0.10336035512E+03  0.00000000000E+00 0.  1.
         23    2    1    2    0    0  0.10515664853E+03  0.73011124676E+02  0.51835622040E+01  0.15594137342E+03  0.88894868065E+02 0.  0.
        -24    2    1    2    0    0 -0.10221475446E+03 -0.36250304973E+02  0.15796840423E+03  0.20687036852E+03  0.77970455915E+02 0.  0.
         13    1    4    4    0    0 -0.34700938312E+02 -0.56685172710E+01  0.32444083062E+01  0.35310244874E+02  0.00000000000E+00 0. -1.
        -14    1    4    4    0    0 -0.67513816147E+02 -0.30581787702E+02  0.15472399592E+03  0.17156012364E+03  0.00000000000E+00 0.  1.
        -13    1    3    3    0    0  0.13782306463E+02  0.22565074868E+02 -0.35201672601E+02  0.44026041488E+02  0.00000000000E+00 0.  1.
         13    1    3    3    0    0  0.91374342071E+02  0.50446049808E+02  0.40385234805E+02  0.11191533193E+03  0.00000000000E+00 0. -1.
         21    1    1    2  502  501 -0.29418940746E+01 -0.36760819703E+02  0.92774954944E+02  0.99835889693E+02  0.00000000000E+00 0. -1.
<scales pt_clust_5="13000.00000" pt_clust_6="13000.00000" pt_clust_7="13000.00000" pt_clust_8="13000.00000" pt_clust_9="36.87835"></scales>
<clustering>
<clus scale="   36.878">  1  9  2 -1</clus>
<clus scale="   77.970">  5  6 -1 -1</clus>
<clus scale="   88.895">  7  8 -1 -1</clus>
<clus scale="  144.089">  1  5  2 -1</clus>
<clus scale="   36.878">  1  5  2 -1</clus>
</clustering>
</event>
<event>
 9    1  0.2951046E-005  0.1898717E+03  0.7546771E-02  0.1178145E+00
         -2   -1    0    0    0  501 -0.00000000000E+00  0.00000000000E+00  0.24913861868E+03  0.24913861868E+03  0.00000000000E+00 0.  1.
          1   -1    0    0  502    0  0.00000000000E+00 -0.00000000000E+00 -0.49637238185E+03  0.49637238185E+03  0.00000000000E+00 0. -1.
        -24    2    1    2    0    0  0.90199956098E+02 -0.21628421304E+02  0.15086346905E+03  0.19351763562E+03  0.78009411701E+02 0.  0.
         23    2    1    2    0    0  0.29886485288E+02 -0.14232688606E+03 -0.22805946750E+03  0.28701235117E+03  0.95993877445E+02 0.  0.
         13    1    3    3    0    0  0.31626069407E+02  0.26673976943E+02  0.31268610558E+02  0.51859765891E+02  0.00000000000E+00 0. -1.
        -14    1    3    3    0    0  0.58573886691E+02 -0.48302398247E+02  0.11959485849E+03  0.14165786973E+03  0.00000000000E+00 0.  1.
        -13    1    4    4    0    0  0.55339025397E+02 -0.12739350595E+03 -0.21191131432E+03  0.25337308110E+03  0.00000000000E+00 0.  1.
         13    1    4    4    0    0 -0.25452540109E+02 -0.14933380110E+02 -0.16148153188E+02  0.33639270071E+02  0.00000000000E+00 0. -1.
         21    1    1    2  502  501 -0.12008644139E+03  0.16395530736E+03 -0.17003776471E+03  0.26498101374E+03  0.00000000000E+00 0. -1.
<scales pt_clust_5="13000.00000" pt_clust_6="13000.00000" pt_clust_7="13000.00000" pt_clust_8="13000.00000" pt_clust_9="163.81826"></scales>
<clustering>
<clus scale="   78.009">  5  6 -1 -1</clus>
<clus scale="   95.994">  7  8 -1 -1</clus>
<clus scale="  121.199">  1  5  2 -1</clus>
<clus scale="  163.818">  1  9  2 -1</clus>
<clus scale="  189.872">  2  5  1 -1</clus>
</clustering>
</event>
<event>
 9    1  0.2951046E-005  0.1189272E+03  0.7546771E-02  0.1247649E+00
          1   -1    0    0  502    0  0.00000000000E+00  0.00000000000E+00  0.91003542648E+03  0.91003542648E+03  0.00000000000E+00 0. -1.
         -2   -1    0    0    0  501 -0.00000000000E+00 -0.00000000000E+00 -0.81838405413E+02  0.81838405413E+02  0.00000000000E+00 0.  1.
         23    2    1    2    0    0  0.70774144490E+02 -0.16474434366E+02 -0.14661041596E+02  0.11616704696E+03  0.89439645253E+02 0.  0.
        -24    2    1    2    0    0 -0.13774972389E+03 -0.64589874547E+01  0.47646592323E+03  0.50253809666E+03  0.80672533370E+02 0.  0.
         13    1    4    4    0    0 -0.79775098541E+02 -0.37856150197E+02  0.33534255130E+03  0.34677338589E+03  0.00000000000E+00 0. -1.
        -14    1    4    4    0    0 -0.57974625349E+02  0.31397162742E+02  0.14112337194E+03  0.15576471076E+03  0.00000000000E+00 0.  1.
        -11    1    3    3    0    0  0.21835388007E+02  0.34052226309E+02 -0.20931824058E+02  0.45546454795E+02  0.00000000000E+00 0.  1.
         11    1    3    3    0    0  0.48938756483E+02 -0.50526660675E+02  0.62707824624E+01  0.70620592166E+02  0.00000000000E+00 0. -1.
         21    1    1    2  502  501  0.66975579400E+02  0.22933421821E+02  0.36639213943E+03  0.37316868827E+03  0.00000000000E+00 0. -1.
<scales pt_clust_5="13000.00000" pt_clust_6="13000.00000" pt_clust_7="13000.00000" pt_clust_8="13000.00000" pt_clust_9="70.79315"></scales>
<clustering>
<clus scale="   70.793">  1  9  2 -1</clus>
<clus scale="   80.673">  5  6 -1 -1</clus>
<clus scale="   89.440">  7  8 -1 -1</clus>
<clus scale="  112.482">  1  5  2 -1</clus>
<clus scale="   70.793">  1  5  2 -1</clus>
</clustering>
</event>
<event>
 9    1  0.2951046E-005  0.8578903E+02  0.7546771E-02  0.1316323E+00
          1   -1    0    0  502    0  0.00000000000E+00  0.00000000000E+00  0.44280532315E+03  0.44280532315E+03  0.00000000000E+00 0. -1.
         -2   -1    0    0    0  501 -0.00000000000E+00 -0.00000000000E+00 -0.77227067318E+02  0.77227067318E+02  0.00000000000E+00 0.  1.
        -24    2    1    2    0    0  0.13849956814E+02  0.16317341239E+01 -0.36729989608E+02  0.90002771331E+02  0.80974828500E+02 0.  0.
         23    2    1    2    0    0  0.35821505798E+02  0.63773570201E+01  0.18523249097E+03  0.20719945305E+03  0.85420645476E+02 0.  0.
         13    1    3    3    0    0  0.41519270032E+02 -0.88511279673E+01  0.48967799195E+00  0.42455059001E+02  0.00000000000E+00 0. -1.
        -14    1    3    3    0    0 -0.27669313217E+02  0.10482862091E+02 -0.37219667600E+02  0.47547712330E+02  0.00000000000E+00 0.  1.
        -13    1    4    4    0    0  0.59814284136E+02  0.17653948620E+02  0.99202849988E+02  0.11717771091E+03  0.00000000000E+00 0. -1.
         13    1    4    4    0    0 -0.23992778338E+02 -0.11276591600E+02  0.86029640979E+02  0.90021742138E+02  0.00000000000E+00 0.  1.
         21    1    1    2  502  501 -0.49671462613E+02 -0.80090911440E+01  0.21707575448E+03  0.22283016609E+03  0.00000000000E+00 0.  1.
<scales pt_clust_5="13000.00000" pt_clust_6="13000.00000" pt_clust_7="13000.00000" pt_clust_8="13000.00000" pt_clust_9="50.31302"></scales>
<clustering>
<clus scale="   50.313">  1  9  2 -1</clus>
<clus scale="   80.975">  5  6 -1 -1</clus>
<clus scale="   81.363">  2  5  1 -1</clus>
<clus scale="   85.421">  7  8 -1 -1</clus>
<clus scale="   50.313">  1  5  2 -1</clus>
</clustering>
</event>
<event>
 9    1  0.2951046E-005  0.1256554E+03  0.7546771E-02  0.1237284E+00
         -2   -1    0    0    0  501 -0.00000000000E+00  0.00000000000E+00  0.72220990444E+02  0.72220990444E+02  0.00000000000E+00 0.  1.
          1   -1    0    0  502    0  0.00000000000E+00 -0.00000000000E+00 -0.33338420573E+03  0.33338420573E+03  0.00000000000E+00 0. -1.
        -24    2    1    2    0    0 -0.90362157264E+02 -0.49369335959E+02 -0.61786647225E+02  0.14388632201E+03  0.79265585774E+02 0.  0.
         23    2    1    2    0    0  0.74835226439E+02  0.29728684764E+02 -0.20291874361E+03  0.23643275608E+03  0.90776240419E+02 0.  0.
         11    1    3    3    0    0 -0.28731109027E+02 -0.48243357470E+02 -0.60061385055E+02  0.82220849793E+02  0.00000000000E+00 0. -1.
        -12    1    3    3    0    0 -0.61631048237E+02 -0.11259784891E+01 -0.17252621693E+01  0.61665472218E+02  0.00000000000E+00 0.  1.
        -11    1    4    4    0    0  0.46767152300E+02 -0.29819146541E+02 -0.89478160468E+02  0.10527435222E+03  0.00000000000E+00 0. -1.
         11    1    4    4    0    0  0.28068074139E+02  0.59547831305E+02 -0.11344058314E+03  0.13115840386E+03  0.00000000000E+00 0.  1.
         21    1    1    2  502  501  0.15526930825E+02  0.19640651195E+02  0.35421755486E+01  0.25286118085E+02  0.00000000000E+00 0. -1.
<scales pt_clust_5="13000.00000" pt_clust_6="13000.00000" pt_clust_7="13000.00000" pt_clust_8="13000.00000" pt_clust_9="25.03679"></scales>
<clustering>
<clus scale="   25.037">  1  9  2 -1</clus>
<clus scale="   79.266">  5  6 -1 -1</clus>
<clus scale="   90.776">  7  8 -1 -1</clus>
<clus scale="  117.609">  1  5  2 -1</clus>
<clus scale="  125.655">  2  5  1 -1</clus>
</clustering>
</event>
<event>
 9    1  0.2951046E-005  0.1124929E+03  0.7546771E-02  0.1271461E+00
          1   -1    0    0  502    0  0.00000000000E+00  0.00000000000E+00  0.39666630890E+03  0.39666630890E+03  0.00000000000E+00 0. -1.
         -2   -1    0    0    0  501 -0.00000000000E+00 -0.00000000000E+00 -0.17966625266E+03  0.17966625266E+03  0.00000000000E+00 0.  1.
         23    2    1    2    0    0  0.27929736050E+02 -0.55026256362E+02 -0.13660267118E+03  0.17569117066E+03  0.91646814608E+02 0.  0.
        -24    2    1    2    0    0 -0.86916485061E+02  0.71446278032E+02  0.19911980646E+03  0.23446670409E+03  0.51641959495E+02 0.  0.
         11    1    4    4    0    0 -0.19710087286E+02  0.22386499525E+02  0.10350047213E+03  0.10771253703E+03  0.00000000000E+00 0. -1.
        -12    1    4    4    0    0 -0.67206397775E+02  0.49059778507E+02  0.95619334330E+02  0.12675416706E+03  0.00000000000E+00 0.  1.
        -13    1    3    3    0    0 -0.96427085370E+01 -0.54235409272E+02 -0.12461066407E+03  0.13624345506E+03  0.00000000000E+00 0.  1.
         13    1    3    3    0    0  0.37572444587E+02 -0.79084709021E+00 -0.11992007114E+02  0.39447715599E+02  0.00000000000E+00 0. -1.
         21    1    1    2  502  501  0.58986749011E+02 -0.16420021670E+02  0.15448292096E+03  0.16617468682E+03  0.00000000000E+00 0. -1.
<scales pt_clust_5="13000.00000" pt_clust_6="13000.00000" pt_clust_7="13000.00000" pt_clust_8="13000.00000" pt_clust_9="61.22952"></scales>
<clustering>
<clus scale="   51.642">  5  6 -1 -1</clus>
<clus scale="   61.230">  1  9  2 -1</clus>
<clus scale="   83.201">  1  5  2 -1</clus>
<clus scale="   91.647">  7  8 -1 -1</clus>
<clus scale="   61.230">  1  5  2 -1</clus>
</clustering>
</event>
<event>
 9    1  0.2951046E-005  0.1073027E+03  0.7546771E-02  0.1270281E+00
          1   -1    0    0  502    0  0.00000000000E+00  0.00000000000E+00  0.28880501963E+03  0.28880501963E+03  0.00000000000E+00 0. -1.
         -2   -1    0    0    0  501 -0.00000000000E+00 -0.00000000000E+00 -0.16912100344E+03  0.16912100344E+03  0.00000000000E+00 0.  1.
         23    2    1    2    0    0 -0.45514262585E+02 -0.20371966559E+02 -0.11652753434E+03  0.15655461441E+03  0.91891870762E+02 0.  0.
        -24    2    1    2    0    0  0.98549597958E+02  0.26873248340E+02  0.13964887063E+03  0.19101125004E+03  0.80927719842E+02 0.  0.
         11    1    4    4    0    0  0.34598728311E+01  0.33988151857E+02  0.46577137744E+02  0.57763266416E+02  0.00000000000E+00 0. -1.
        -12    1    4    4    0    0  0.95089725127E+02 -0.71149035175E+01  0.93071732888E+02  0.13324798362E+03  0.00000000000E+00 0.  1.
        -13    1    3    3    0    0  0.11046143081E+02  0.26855050960E+02 -0.20643676638E+02  0.35628253174E+02  0.00000000000E+00 0. -1.
         13    1    3    3    0    0 -0.56560405666E+02 -0.47227017520E+02 -0.95883857706E+02  0.12092636123E+03  0.00000000000E+00 0.  1.
         21    1    1    2  502  501 -0.53035335374E+02 -0.65012817805E+01  0.96562679901E+02  0.11036015863E+03  0.00000000000E+00 0.  1.
<scales pt_clust_5="13000.00000" pt_clust_6="13000.00000" pt_clust_7="13000.00000" pt_clust_8="13000.00000" pt_clust_9="53.43233"></scales>
<clustering>
<clus scale="   53.432">  1  9  2 -1</clus>
<clus scale="   80.928">  5  6 -1 -1</clus>
<clus scale="   91.892">  7  8 -1 -1</clus>
<clus scale="   98.077">  1  5  2 -1</clus>
<clus scale="   53.432">  1  5  2 -1</clus>
</clustering>
</event>
<event>
 9    1  0.2951046E-005  0.1483943E+03  0.7546771E-02  0.1222900E+00
         -2   -1    0    0    0  501 -0.00000000000E+00  0.00000000000E+00  0.68093218334E+02  0.68093218334E+02  0.00000000000E+00 0.  1.
          1   -1    0    0  502    0  0.00000000000E+00 -0.00000000000E+00 -0.11434518292E+04  0.11434518292E+04  0.00000000000E+00 0. -1.
         23    2    1    2    0    0  0.24307702419E+02 -0.11852487815E+02 -0.14415143061E+00  0.96095220517E+02  0.92211304960E+02 0.  0.
        -24    2    1    2    0    0  0.87303642115E+02 -0.58494312377E+02 -0.28447326274E+03  0.31377819557E+03  0.80549415206E+02 0.  0.
         13    1    4    4    0    0  0.69918702829E+02 -0.37856819621E+02 -0.27319858694E+03  0.28453335780E+03  0.00000000000E+00 0. -1.
        -14    1    4    4    0    0  0.17384939286E+02 -0.20637492756E+02 -0.11274675801E+02  0.29244837760E+02  0.00000000000E+00 0.  1.
        -13    1    3    3    0    0 -0.28508908625E+02 -0.11103105311E+02 -0.23264135482E+02  0.38435098780E+02  0.00000000000E+00 0. -1.
         13    1    3    3    0    0  0.52816611043E+02 -0.74938250402E+00  0.23119984051E+02  0.57660121737E+02  0.00000000000E+00 0.  1.
         21    1    1    2  502  501 -0.11161134453E+03  0.70346800192E+02 -0.79074119665E+03  0.80167163141E+03  0.00000000000E+00 0. -1.
<scales pt_clust_5="13000.00000" pt_clust_6="13000.00000" pt_clust_7="13000.00000" pt_clust_8="13000.00000" pt_clust_9="124.63015"></scales>
<clustering>
<clus scale="   80.549">  5  6 -1 -1</clus>
<clus scale="   92.211">  7  8 -1 -1</clus>
<clus scale="   96.095">  1  7  2 -1</clus>
<clus scale="  124.630">  2  9  1 -1</clus>
<clus scale="  124.630">  2  5  1 -1</clus>
</clustering>
</event>
<event>
 9    1  0.2951046E-005  0.9679985E+02  0.7546771E-02  0.1293391E+00
          1   -1    0    0  502    0  0.00000000000E+00  0.00000000000E+00  0.12033579559E+03  0.12033579559E+03  0.00000000000E+00 0. -1.
         -2   -1    0    0    0  501 -0.00000000000E+00 -0.00000000000E+00 -0.23854544957E+03  0.23854544957E+03  0.00000000000E+00 0.  1.
        -24    2    1    2    0    0 -0.19812840959E+01 -0.31892735328E+02 -0.19477917358E+03  0.21306926444E+03  0.80240344804E+02 0.  0.
         23    2    1    2    0    0 -0.18597438786E+02  0.25860165218E+02  0.77837214502E+02  0.12432983027E+03  0.91567799248E+02 0.  0.
         11    1    3    3    0    0 -0.29100559931E+02  0.10400016463E+02 -0.11246952879E+03  0.11663789194E+03  0.00000000000E+00 0. -1.
        -12    1    3    3    0    0  0.27119275835E+02 -0.42292751791E+02 -0.82309644797E+02  0.96431372501E+02  0.00000000000E+00 0.  1.
        -11    1    4    4    0    0  0.23562447034E+02 -0.22087647633E+02  0.33924466251E+02  0.46839326410E+02  0.00000000000E+00 0.  1.
         11    1    4    4    0    0 -0.42159885820E+02  0.47947812851E+02  0.43912748251E+02  0.77490503860E+02  0.00000000000E+00 0. -1.
         21    1    1    2  502  501  0.20578722882E+02  0.60325701102E+01 -0.12676949024E+01  0.21482150450E+02  0.00000000000E+00 0. -1.
<scales pt_clust_5="13000.00000" pt_clust_6="13000.00000" pt_clust_7="13000.00000" pt_clust_8="13000.00000" pt_clust_9="21.44471"></scales>
<clustering>
<clus scale="   21.445">  1  9  2 -1</clus>
<clus scale="   80.240">  5  6 -1 -1</clus>
<clus scale="   86.163">  2  5  1 -1</clus>
<clus scale="   91.568">  7  8 -1 -1</clus>
<clus scale="   21.445">  1  5  2 -1</clus>
</clustering>
</event>
<event>
 9    1  0.2951046E-005  0.1931665E+03  0.7546771E-02  0.1156878E+00
         -2   -1    0    0    0  501 -0.00000000000E+00  0.00000000000E+00  0.72217794788E+02  0.72217794788E+02  0.00000000000E+00 0.  1.
          1   -1    0    0  502    0  0.00000000000E+00 -0.00000000000E+00 -0.12453796560E+04  0.12453796560E+04  0.00000000000E+00 0. -1.
         23    2    1    2    0    0  0.14581681995E+03  0.69756343321E+02 -0.22679805671E+03  0.29319031883E+03  0.91622661576E+02 0.  0.
        -24    2    1    2    0    0 -0.83161938740E+02 -0.20630568814E+03 -0.48965421349E+03  0.54362130829E+03  0.79277569543E+02 0.  0.
         13    1    4    4    0    0 -0.88670870007E+02 -0.14472865576E+03 -0.40195272593E+03  0.43631972321E+03  0.00000000000E+00 0. -1.
        -14    1    4    4    0    0  0.55089312677E+01 -0.61577032380E+02 -0.87701487559E+02  0.10730158508E+03  0.00000000000E+00 0.  1.
        -11    1    3    3    0    0  0.60224696769E+02  0.75385658138E+02 -0.14823890295E+03  0.17687505167E+03  0.00000000000E+00 0. -1.
         11    1    3    3    0    0  0.85592123182E+02 -0.56293148165E+01 -0.78559153755E+02  0.11631526716E+03  0.00000000000E+00 0.  1.
         21    1    1    2  502  501 -0.62654881212E+02  0.13654934482E+03 -0.45670959104E+03  0.48078582369E+03  0.00000000000E+00 0. -1.
<scales pt_clust_5="13000.00000" pt_clust_6="13000.00000" pt_clust_7="13000.00000" pt_clust_8="13000.00000" pt_clust_9="150.23767"></scales>
<clustering>
<clus scale="   79.278">  5  6 -1 -1</clus>
<clus scale="   91.623">  7  8 -1 -1</clus>
<clus scale="  150.238">  2  9  1 -1</clus>
<clus scale="  187.626">  2  5  1 -1</clus>
<clus scale="  150.238">  2  5  1 -1</clus>
</clustering>
</event>
<event>
 9    1  0.2951046E-005  0.9542024E+02  0.7546771E-02  0.1293995E+00
          3   -1    0    0  502    0  0.00000000000E+00  0.00000000000E+00  0.14506576107E+03  0.14506576107E+03  0.00000000000E+00 0. -1.
         -4   -1    0    0    0  501 -0.00000000000E+00 -0.00000000000E+00 -0.17193454358E+03  0.17193454358E+03  0.00000000000E+00 0.  1.
         23    2    1    2    0    0  0.32396531485E+02  0.20323688933E+02 -0.13035458625E+03  0.16147882232E+03  0.87295499977E+02 0.  0.
        -24    2    1    2    0    0 -0.21626517360E+02 -0.39558423919E+02  0.70682277937E+02  0.11599883643E+03  0.80169635659E+02 0.  0.
         13    1    4    4    0    0 -0.96664878794E+01  0.22971878319E+02  0.35154293969E+02  0.43092604538E+02  0.00000000000E+00 0. -1.
        -14    1    4    4    0    0 -0.11960029481E+02 -0.62530302239E+02  0.35527983968E+02  0.72906231888E+02  0.00000000000E+00 0.  1.
        -13    1    3    3    0    0  0.30903644444E+02 -0.30683961555E+02 -0.70020027828E+02  0.82458141100E+02  0.00000000000E+00 0.  1.
         13    1    3    3    0    0  0.14928870416E+01  0.51007650487E+02 -0.60334558422E+02  0.79020681217E+02  0.00000000000E+00 0. -1.
         21    1    1    2  502  501 -0.10770014125E+02  0.19234734987E+02  0.32803525804E+02  0.39522645907E+02  0.00000000000E+00 0. -1.
<scales pt_clust_5="13000.00000" pt_clust_6="13000.00000" pt_clust_7="13000.00000" pt_clust_8="13000.00000" pt_clust_9="22.04469"></scales>
<clustering>
<clus scale="   22.045">  1  9  2 -1</clus>
<clus scale="   80.170">  5  6 -1 -1</clus>
<clus scale="   87.295">  7  8 -1 -1</clus>
<clus scale="   88.948">  1  5  2 -1</clus>
<clus scale="   22.045">  1  5  2 -1</clus>
</clustering>
</event>
<event>
 9    1  0.2951046E-005  0.1140401E+03  0.7546771E-02  0.1260246E+00
          1   -1    0    0  502    0  0.00000000000E+00  0.00000000000E+00  0.49381789314E+03  0.49381789314E+03  0.00000000000E+00 0. -1.
         -2   -1    0    0    0  501 -0.00000000000E+00 -0.00000000000E+00 -0.84475504588E+02  0.84475504588E+02  0.00000000000E+00 0.  1.
        -24    2    1    2    0    0 -0.57456614978E+01  0.57958033460E+02 -0.38997893553E+02  0.10608400711E+03  0.79629357613E+02 0.  0.
         23    2    1    2    0    0  0.27852497257E+02 -0.69461774810E+02  0.35673338940E+03  0.37727324870E+03  0.97343172880E+02 0.  0.
         13    1    3    3    0    0 -0.18872576031E+02 -0.12277076706E+02 -0.24318367201E+02  0.33140363937E+02  0.00000000000E+00 0. -1.
        -14    1    3    3    0    0  0.13126914534E+02  0.70235110166E+02 -0.14679526351E+02  0.72943643171E+02  0.00000000000E+00 0.  1.
        -13    1    4    4    0    0 -0.27489989325E+02  0.69995457022E+01  0.78928345263E+02  0.83871191949E+02  0.00000000000E+00 0. -1.
         13    1    4    4    0    0  0.55342486582E+02 -0.76461320513E+02  0.27780504414E+03  0.29340205675E+03  0.00000000000E+00 0.  1.
         21    1    1    2  502  501 -0.22106835759E+02  0.11503741350E+02  0.91606892702E+02  0.94936141921E+02  0.00000000000E+00 0. -1.
<scales pt_clust_5="13000.00000" pt_clust_6="13000.00000" pt_clust_7="13000.00000" pt_clust_8="13000.00000" pt_clust_9="24.92084"></scales>
<clustering>
<clus scale="   24.921">  1  9  2 -1</clus>
<clus scale="   79.629">  5  6 -1 -1</clus>
<clus scale="   97.343">  7  8 -1 -1</clus>
<clus scale="   99.349">  2  5  1 -1</clus>
<clus scale="   24.921">  1  5  2 -1</clus>
</clustering>
</event>
<event>
 9    1  0.2951046E-005  0.1184873E+03  0.7546771E-02  0.1249920E+00
          3   -1    0    0  502    0  0.00000000000E+00  0.00000000000E+00  0.40178364016E+03  0.40178364016E+03  0.00000000000E+00 0. -1.
         -4   -1    0    0    0  501 -0.00000000000E+00 -0.00000000000E+00 -0.17171498883E+03  0.17171498883E+03  0.00000000000E+00 0.  1.
         23    2    1    2    0    0  0.27261164088E+02  0.77391026570E+02 -0.87592197224E+02  0.15193429573E+03  0.93161661339E+02 0.  0.
        -24    2    1    2    0    0 -0.54690924321E+02 -0.38407801486E+02  0.42798683399E+01  0.10457896713E+03  0.80325504510E+02 0.  0.
         13    1    4    4    0    0 -0.50924755171E+02  0.12983865378E+02 -0.24551532803E+01  0.52611208188E+02  0.00000000000E+00 0. -1.
        -14    1    4    4    0    0 -0.37661691501E+01 -0.51391666864E+02  0.67350216202E+01  0.51967758941E+02  0.00000000000E+00 0.  1.
        -11    1    3    3    0    0 -0.15737320034E+02  0.79487560309E+02 -0.54873756955E+02  0.97862478449E+02  0.00000000000E+00 0. -1.
         11    1    3    3    0    0  0.42998484121E+02 -0.20965337396E+01 -0.32718440269E+02  0.54071817281E+02  0.00000000000E+00 0.  1.
         21    1    1    2  502  501  0.27429760233E+02 -0.38983225084E+02  0.31338098021E+03  0.31698536614E+03  0.00000000000E+00 0. -1.
<scales pt_clust_5="13000.00000" pt_clust_6="13000.00000" pt_clust_7="13000.00000" pt_clust_8="13000.00000" pt_clust_9="47.66638"></scales>
<clustering>
<clus scale="   47.666">  1  9  2 -1</clus>
<clus scale="   80.326">  5  6 -1 -1</clus>
<clus scale="   93.162">  7  8 -1 -1</clus>
<clus scale="  108.685">  1  5  2 -1</clus>
<clus scale="   47.666">  1  5  2 -1</clus>
</clustering>
</event>
<event>
 9    1  0.2951046E-005  0.9449095E+02  0.7546771E-02  0.1298820E+00
         -2   -1    0    0    0  501 -0.00000000000E+00  0.00000000000E+00  0.23080725913E+03  0.23080725913E+03  0.00000000000E+00 0.  1.
          1   -1    0    0  502    0  0.00000000000E+00 -0.00000000000E+00 -0.94415170361E+02  0.94415170361E+02  0.00000000000E+00 0. -1.
        -24    2    1    2    0    0  0.25408397084E+02  0.12191402903E+02  0.17666836628E+03  0.19601779140E+03  0.80106466356E+02 0.  0.
         23    2    1    2    0    0 -0.11891560461E+01  0.62090106680E+01 -0.36719417407E+02  0.98581148582E+02  0.91268621856E+02 0.  0.
         13    1    3    3    0    0 -0.16395608936E+02 -0.22439047227E+02  0.37802647379E+02  0.46918727409E+02  0.00000000000E+00 0. -1.
        -14    1    3    3    0    0  0.41804006020E+02  0.34630450129E+02  0.13886571890E+03  0.14909906399E+03  0.00000000000E+00 0.  1.
        -11    1    4    4    0    0 -0.22271211455E+02  0.40235012444E+02 -0.27289424019E+01  0.46068538209E+02  0.00000000000E+00 0.  1.
         11    1    4    4    0    0  0.21082055408E+02 -0.34026001777E+02 -0.33990475005E+02  0.52512610373E+02  0.00000000000E+00 0. -1.
         21    1    1    2  502  501 -0.24219241038E+02 -0.18400413571E+02 -0.35568601080E+01  0.30623489511E+02  0.00000000000E+00 0. -1.
<scales pt_clust_5="13000.00000" pt_clust_6="13000.00000" pt_clust_7="13000.00000" pt_clust_8="13000.00000" pt_clust_9="30.41623"></scales>
<clustering>
<clus scale="   30.416">  2  9  1 -1</clus>
<clus scale="   80.106">  5  6 -1 -1</clus>
<clus scale="   83.759">  1  5  2 -1</clus>
<clus scale="   91.269">  7  8 -1 -1</clus>
<clus scale="   30.416">  2  5  1 -1</clus>
</clustering>
</event>
<event>
 9    1  0.2951046E-005  0.9754376E+02  0.7546771E-02  0.1293717E+00
          1   -1    0    0  502    0  0.00000000000E+00  0.00000000000E+00  0.52036195914E+02  0.52036195914E+02  0.00000000000E+00 0. -1.
         -2   -1    0    0    0  501 -0.00000000000E+00 -0.00000000000E+00 -0.36385805849E+03  0.36385805849E+03  0.00000000000E+00 0.  1.
         23    2    1    2    0    0 -0.22219642346E+02  0.13846348891E+02 -0.28324834581E+03  0.29990174289E+03  0.95005242488E+02 0.  0.
        -24    2    1    2    0    0  0.14340060618E+02  0.14251576990E+02 -0.22091720680E+02  0.86099453334E+02  0.80723769464E+02 0.  0.
         13    1    4    4    0    0  0.35068721419E+02 -0.22037195117E+02 -0.11563021108E+02  0.43001821446E+02  0.00000000000E+00 0. -1.
        -14    1    4    4    0    0 -0.20728660800E+02  0.36288772107E+02 -0.10528699572E+02  0.43097631888E+02  0.00000000000E+00 0.  1.
        -11    1    3    3    0    0 -0.12168452220E+02 -0.35762600109E+02 -0.19079928834E+03  0.19450296457E+03  0.00000000000E+00 0. -1.
         11    1    3    3    0    0 -0.10051190125E+02  0.49608949000E+02 -0.92449057470E+02  0.10539877832E+03  0.00000000000E+00 0.  1.
         21    1    1    2  502  501  0.78795817274E+01 -0.28097925881E+02 -0.64817960886E+01  0.29893058183E+02  0.00000000000E+00 0. -1.
<scales pt_clust_5="13000.00000" pt_clust_6="13000.00000" pt_clust_7="13000.00000" pt_clust_8="13000.00000" pt_clust_9="29.18187"></scales>
<clustering>
<clus scale="   29.182">  1  9  2 -1</clus>
<clus scale="   80.724">  5  6 -1 -1</clus>
<clus scale="   83.697">  1  5  2 -1</clus>
<clus scale="   95.005">  7  8 -1 -1</clus>
<clus scale="   29.182">  1  5  2 -1</clus>
</clustering>
</event>
<event>
 9    1  0.2951046E-005  0.9077889E+02  0.7546771E-02  0.1307837E+00
          1   -1    0    0  502    0  0.00000000000E+00  0.00000000000E+00  0.25728606118E+03  0.25728606118E+03  0.00000000000E+00 0. -1.
         -2   -1    0    0    0  501 -0.00000000000E+00 -0.00000000000E+00 -0.10964226675E+03  0.10964226675E+03  0.00000000000E+00 0.  1.
         23    2    1    2    0    0 -0.42954537226E+01 -0.16348486941E+01 -0.72637291278E+02  0.11630997913E+03  0.90723268836E+02 0.  0.
        -24    2    1    2    0    0 -0.26227181820E+02  0.14451070421E+02  0.17247697320E+03  0.19247094995E+03  0.80000386173E+02 0.  0.
         13    1    4    4    0    0  0.15014664143E+02 -0.24088627824E+02  0.47441539456E+02  0.55284733839E+02  0.00000000000E+00 0. -1.
        -14    1    4    4    0    0 -0.41241845963E+02  0.38539698244E+02  0.12503543374E+03  0.13718621611E+03  0.00000000000E+00 0.  1.
        -11    1    3    3    0    0  0.11765658442E+01  0.28751557604E+02  0.80805441717E+01  0.29888652796E+02  0.00000000000E+00 0.  1.
         11    1    3    3    0    0 -0.54720195667E+01 -0.30386406298E+02 -0.80717835450E+02  0.86421326336E+02  0.00000000000E+00 0. -1.
         21    1    1    2  502  501  0.30522635543E+02 -0.12816221727E+02  0.47804112515E+02  0.58147398851E+02  0.00000000000E+00 0.  1.
<scales pt_clust_5="13000.00000" pt_clust_6="13000.00000" pt_clust_7="13000.00000" pt_clust_8="13000.00000" pt_clust_9="33.10418"></scales>
<clustering>
<clus scale="   33.104">  1  9  2 -1</clus>
<clus scale="   80.000">  5  6 -1 -1</clus>
<clus scale="   80.063">  1  5  2 -1</clus>
<clus scale="   90.723">  7  8 -1 -1</clus>
<clus scale="   33.104">  1  5  2 -1</clus>
</clustering>
</event>
<event>
 9    1  0.2951046E-005  0.1110020E+03  0.7546771E-02  0.1264558E+00
         -4   -1    0    0    0  501 -0.00000000000E+00  0.00000000000E+00  0.35200514999E+03  0.35200514999E+03  0.00000000000E+00 0.  1.
          3   -1    0    0  502    0  0.00000000000E+00 -0.00000000000E+00 -0.55383707864E+02  0.55383707864E+02  0.00000000000E+00 0. -1.
         23    2    1    2    0    0 -0.23132526761E+02  0.65192302313E+02  0.23664640385E+03  0.26420589925E+03  0.94963607059E+02 0.  0.
        -24    2    1    2    0    0 -0.48507545937E+01 -0.38679011048E+02  0.52845367920E+02  0.10398026931E+03  0.80620517113E+02 0.  0.
         13    1    4    4    0    0  0.96442787459E+01 -0.29927034364E+02  0.71908973753E+02  0.78482736984E+02  0.00000000000E+00 0. -1.
        -14    1    4    4    0    0 -0.14495033340E+02 -0.87519766840E+01 -0.19063605833E+02  0.25497532327E+02  0.00000000000E+00 0.  1.
        -11    1    3    3    0    0  0.78443518330E+01  0.78248707200E+02  0.19765073511E+03  0.21272096070E+03  0.00000000000E+00 0.  1.
         11    1    3    3    0    0 -0.30976878594E+02 -0.13056404887E+02  0.38995668742E+02  0.51484938542E+02  0.00000000000E+00 0. -1.
         21    1    1    2  502  501  0.27983281354E+02 -0.26513291265E+02  0.71296703600E+01  0.39202689302E+02  0.00000000000E+00 0. -1.
<scales pt_clust_5="13000.00000" pt_clust_6="13000.00000" pt_clust_7="13000.00000" pt_clust_8="13000.00000" pt_clust_9="38.54891"></scales>
<clustering>
<clus scale="   38.549">  2  9  1 -1</clus>
<clus scale="   80.621">  5  6 -1 -1</clus>
<clus scale="   94.964">  7  8 -1 -1</clus>
<clus scale="   99.010">  2  5  1 -1</clus>
<clus scale="   38.549">  2  5  1 -1</clus>
</clustering>
</event>
<event>
 9    1  0.2951046E-005  0.9982168E+02  0.7546771E-02  0.1286231E+00
         -2   -1    0    0    0  501 -0.00000000000E+00  0.00000000000E+00  0.36420283424E+03  0.36420283424E+03  0.00000000000E+00 0.  1.
          1   -1    0    0  502    0  0.00000000000E+00 -0.00000000000E+00 -0.53397619148E+03  0.53397619148E+03  0.00000000000E+00 0. -1.
        -24    2    1    2    0    0  0.44287561471E+02 -0.96558400445E+00  0.33406010739E+03  0.34602932387E+03  0.78599091450E+02 0.  0.
         23    2    1    2    0    0  0.10325883096E+02  0.70762041951E+02 -0.39737878283E+03  0.41363337376E+03  0.89826390339E+02 0.  0.
         13    1    3    3    0    0 -0.98128021916E+01 -0.27984322099E+02  0.10254655139E+03  0.10674834225E+03  0.00000000000E+00 0. -1.
        -14    1    3    3    0    0  0.54100363663E+02  0.27018738094E+02  0.23151355600E+03  0.23928098162E+03  0.00000000000E+00 0.  1.
        -13    1    4    4    0    0 -0.35564739795E+02  0.18196578101E+02 -0.90565871256E+02  0.98985570704E+02  0.00000000000E+00 0.  1.
         13    1    4    4    0    0  0.45890622891E+02  0.52565463849E+02 -0.30681291157E+03  0.31464780305E+03  0.00000000000E+00 0. -1.
         21    1    1    2  502  501 -0.54613444568E+02 -0.69796457946E+02 -0.10645468180E+03  0.13851632809E+03  0.00000000000E+00 0.  1.
<scales pt_clust_5="13000.00000" pt_clust_6="13000.00000" pt_clust_7="13000.00000" pt_clust_8="13000.00000" pt_clust_9="88.62378"></scales>
<clustering>
<clus scale="   78.599">  5  6 -1 -1</clus>
<clus scale="   88.624">  2  9  1 -1</clus>
<clus scale="   89.826">  7  8 -1 -1</clus>
<clus scale="   89.852">  1  5  2 -1</clus>
<clus scale="   88.624">  2  5  1 -1</clus>
</clustering>
</event>
<event>
 9    1  0.2951046E-005  0.1149919E+03  0.7546771E-02  0.1256138E+00
          1   -1    0    0  502    0  0.00000000000E+00  0.00000000000E+00  0.44700109639E+03  0.44700109639E+03  0.00000000000E+00 0. -1.
         -2   -1    0    0    0  501 -0.00000000000E+00 -0.00000000000E+00 -0.12886955254E+03  0.12886955254E+03  0.00000000000E+00 0.  1.
         23    2    1    2    0    0 -0.61076110237E+01  0.69022521465E+02 -0.89450369348E+02  0.14633573799E+03  0.92797458243E+02 0.  0.
        -24    2    1    2    0    0  0.26245137312E+02 -0.53372727472E+02  0.23866234948E+03  0.25870091250E+03  0.80180981526E+02 0.  0.
         11    1    4    4    0    0  0.42789466266E+02 -0.61124563748E+02  0.22113188023E+03  0.23338050298E+03  0.00000000000E+00 0. -1.
        -12    1    4    4    0    0 -0.16544328954E+02  0.77518362763E+01  0.17530469254E+02  0.25320409524E+02  0.00000000000E+00 0.  1.
        -13    1    3    3    0    0  0.40714090350E+02  0.24068892610E+02 -0.56047677881E+02  0.73336832085E+02  0.00000000000E+00 0.  1.
         13    1    3    3    0    0 -0.46821701374E+02  0.44953628855E+02 -0.33402691467E+02  0.72998905910E+02  0.00000000000E+00 0. -1.
         21    1    1    2  502  501 -0.20137526288E+02 -0.15649793993E+02  0.16891956371E+03  0.17083399843E+03  0.00000000000E+00 0. -1.
<scales pt_clust_5="13000.00000" pt_clust_6="13000.00000" pt_clust_7="13000.00000" pt_clust_8="13000.00000" pt_clust_9="25.50365"></scales>
<clustering>
<clus scale="   25.504">  1  9  2 -1</clus>
<clus scale="   80.181">  5  6 -1 -1</clus>
<clus scale="   92.797">  7  8 -1 -1</clus>
<clus scale="  105.075">  1  5  2 -1</clus>
<clus scale="   25.504">  1  5  2 -1</clus>
</clustering>
</event>
<event>
 9    1  0.2951046E-005  0.1125947E+03  0.7546771E-02  0.1258760E+00
         -2   -1    0    0    0  501 -0.00000000000E+00  0.00000000000E+00  0.18990769879E+03  0.18990769879E+03  0.00000000000E+00 0.  1.
          1   -1    0    0  502    0  0.00000000000E+00 -0.00000000000E+00 -0.10018376371E+03  0.10018376371E+03  0.00000000000E+00 0. -1.
        -24    2    1    2    0    0  0.29943349898E+02  0.31797724463E+02  0.78440910904E+02  0.11992633924E+03  0.79508809927E+02 0.  0.
         23    2    1    2    0    0 -0.61034906633E+02 -0.60618769201E+02 -0.88945886838E+01  0.12321330135E+03  0.87763938579E+02 0.  0.
         11    1    3    3    0    0  0.81116398614E+01  0.54861336982E+02  0.33148619618E+02  0.64609565695E+02  0.00000000000E+00 0. -1.
        -12    1    3    3    0    0  0.21831710037E+02 -0.23063612519E+02  0.45292291286E+02  0.55316773546E+02  0.00000000000E+00 0.  1.
        -11    1    4    4    0    0 -0.49236251022E+02  0.59272766783E+01  0.14543963518E+02  0.51680440191E+02  0.00000000000E+00 0. -1.
         11    1    4    4    0    0 -0.11798655611E+02 -0.66546045880E+02 -0.23438552202E+02  0.71532861160E+02  0.00000000000E+00 0.  1.
         21    1    1    2  502  501  0.31091556735E+02  0.28821044738E+02  0.20177612858E+02  0.46951821910E+02  0.00000000000E+00 0.  1.
<scales pt_clust_5="13000.00000" pt_clust_6="13000.00000" pt_clust_7="13000.00000" pt_clust_8="13000.00000" pt_clust_9="42.39502"></scales>
<clustering>
<clus scale="   42.395">  1  9  2 -1</clus>
<clus scale="   79.509">  5  6 -1 -1</clus>
<clus scale="   87.764">  7  8 -1 -1</clus>
<clus scale="  106.286">  1  5  2 -1</clus>
<clus scale="  112.595">  2  5  1 -1</clus>
</clustering>
</event>
<event>
 9    1  0.2951046E-005  0.2112473E+03  0.7546771E-02  0.1141397E+00
         -2   -1    0    0    0  501 -0.00000000000E+00  0.00000000000E+00  0.29025950596E+03  0.29025950596E+03  0.00000000000E+00 0.  1.
          1   -1    0    0  502    0  0.00000000000E+00 -0.00000000000E+00 -0.93132389908E+03  0.93132389908E+03  0.00000000000E+00 0. -1.
         23    2    1    2    0    0  0.15055547866E+03  0.11717058460E+03  0.22479056309E+03  0.30874598330E+03  0.91637257183E+02 0.  0.
        -24    2    1    2    0    0 -0.19001181085E+03 -0.53431621942E+02 -0.61715422040E+03  0.65308462868E+03  0.81736001687E+02 0.  0.
         13    1    4    4    0    0 -0.12801572553E+03 -0.62297238746E+02 -0.50438044967E+03  0.52408836082E+03  0.00000000000E+00 0. -1.
        -14    1    4    4    0    0 -0.61996085324E+02  0.88656168036E+01 -0.11277377074E+03  0.12899626786E+03  0.00000000000E+00 0.  1.
        -13    1    3    3    0    0  0.99595921246E+02  0.76361906751E+02  0.77157814827E+02  0.14732215285E+03  0.00000000000E+00 0. -1.
         13    1    3    3    0    0  0.50959557409E+02  0.40808677848E+02  0.14763274826E+03  0.16142383045E+03  0.00000000000E+00 0.  1.
         21    1    1    2  502  501  0.39456332199E+02 -0.63738962657E+02 -0.24870073580E+03  0.25975279306E+03  0.00000000000E+00 0. -1.
<scales pt_clust_5="13000.00000" pt_clust_6="13000.00000" pt_clust_7="13000.00000" pt_clust_8="13000.00000" pt_clust_9="74.96304"></scales>
<clustering>
<clus scale="   74.963">  2  9  1 -1</clus>
<clus scale="   81.736">  5  6 -1 -1</clus>
<clus scale="   91.637">  7  8 -1 -1</clus>
<clus scale="  207.144">  2  5  1 -1</clus>
<clus scale="   74.963">  2  5  1 -1</clus>
</clustering>
</event>
<event>
 9    1  0.2951046E-005  0.1164861E+03  0.7546771E-02  0.1260900E+00
          1   -1    0    0  502    0  0.00000000000E+00  0.00000000000E+00  0.55575791467E+02  0.55575791467E+02  0.00000000000E+00 0. -1.
         -2   -1    0    0    0  501 -0.00000000000E+00 -0.00000000000E+00 -0.42249953824E+03  0.42249953824E+03  0.00000000000E+00 0.  1.
         23    2    1    2    0    0  0.20463829076E+02 -0.50090573245E+01 -0.15881981568E+03  0.18355785068E+03  0.89587341383E+02 0.  0.
        -24    2    1    2    0    0  0.50957735418E+02  0.64111298115E+02 -0.91042745313E+02  0.14519421910E+03  0.78010450840E+02 0.  0.
         11    1    4    4    0    0  0.41572421667E+02 -0.24767453391E+01 -0.54719436431E+02  0.68764941897E+02  0.00000000000E+00 0. -1.
        -12    1    4    4    0    0  0.93853137512E+01  0.66588043454E+02 -0.36323308882E+02  0.76429277201E+02  0.00000000000E+00 0.  1.
        -11    1    3    3    0    0  0.44559404490E+02 -0.28506445863E+02 -0.64522993722E+02  0.83434853048E+02  0.00000000000E+00 0.  1.
         11    1    3    3    0    0 -0.24095575413E+02  0.23497388538E+02 -0.94296821958E+02  0.10012299763E+03  0.00000000000E+00 0. -1.
         21    1    1    2  502  501 -0.71421564495E+02 -0.59102240791E+02 -0.11706118578E+03  0.14932325993E+03  0.00000000000E+00 0. -1.
<scales pt_clust_5="13000.00000" pt_clust_6="13000.00000" pt_clust_7="13000.00000" pt_clust_8="13000.00000" pt_clust_9="86.50647"></scales>
<clustering>
<clus scale="   78.010">  5  6 -1 -1</clus>
<clus scale="   89.587">  7  8 -1 -1</clus>
<clus scale="   92.031">  2  7  1 -1</clus>
<clus scale="   86.506">  2  9  1 -1</clus>
<clus scale="  116.486">  1  5  2 -1</clus>
</clustering>
</event>
<event>
 9    1  0.2951046E-005  0.9377128E+02  0.7546771E-02  0.1300536E+00
         -2   -1    0    0    0  501 -0.00000000000E+00  0.00000000000E+00  0.28205226139E+03  0.28205226139E+03  0.00000000000E+00 0.  1.
          1   -1    0    0  502    0  0.00000000000E+00 -0.00000000000E+00 -0.14082405157E+03  0.14082405157E+03  0.00000000000E+00 0. -1.
         23    2    1    2    0    0 -0.16701475589E+02  0.17621308768E+02  0.24308370578E+03  0.26079151517E+03  0.91285686513E+02 0.  0.
        -24    2    1    2    0    0 -0.13569395483E+02  0.50863668244E+01 -0.92129529698E+02  0.12301359885E+03  0.80215308010E+02 0.  0.
         11    1    4    4    0    0  0.11028485114E+01  0.31223868095E+02 -0.59957754717E+01  0.31813448998E+02  0.00000000000E+00 0. -1.
        -12    1    4    4    0    0 -0.14672243995E+02 -0.26137501270E+02 -0.86133754226E+02  0.91200149855E+02  0.00000000000E+00 0.  1.
        -11    1    3    3    0    0 -0.36728159700E+01  0.54505868318E+02  0.15710972925E+03  0.16633654524E+03  0.00000000000E+00 0. -1.
         11    1    3    3    0    0 -0.13028659619E+02 -0.36884559550E+02  0.85973976532E+02  0.94454969935E+02  0.00000000000E+00 0.  1.
         21    1    1    2  502  501  0.30270871072E+02 -0.22707675593E+02 -0.97259662555E+01  0.39071198931E+02  0.00000000000E+00 0. -1.
<scales pt_clust_5="13000.00000" pt_clust_6="13000.00000" pt_clust_7="13000.00000" pt_clust_8="13000.00000" pt_clust_9="37.84130"></scales>
<clustering>
<clus scale="   37.841">  2  9  1 -1</clus>
<clus scale="   80.215">  5  6 -1 -1</clus>
<clus scale="   83.033">  2  5  1 -1</clus>
<clus scale="   91.286">  7  8 -1 -1</clus>
<clus scale="   37.841">  2  5  1 -1</clus>
</clustering>
</event>
<event>
 9    1  0.2951046E-005  0.1298186E+03  0.7546771E-02  0.1229396E+00
          1   -1    0    0  502    0  0.00000000000E+00  0.00000000000E+00  0.15192718488E+03  0.15192718488E+03  0.00000000000E+00 0. -1.
         -2   -1    0    0    0  501 -0.00000000000E+00 -0.00000000000E+00 -0.28736272476E+03  0.28736272476E+03  0.00000000000E+00 0.  1.
        -24    2    1    2    0    0 -0.88738378737E+02  0.43909016352E+02 -0.20367634689E+03  0.24266844940E+03  0.87186125457E+02 0.  0.
         23    2    1    2    0    0  0.65294752291E+02  0.20515651085E+02  0.44648811541E+02  0.12411819380E+03  0.93421159509E+02 0.  0.
         11    1    3    3    0    0 -0.26719208264E+02  0.61509753403E+02 -0.94475465334E+02  0.11585758242E+03  0.00000000000E+00 0. -1.
        -12    1    3    3    0    0 -0.62019170474E+02 -0.17600737051E+02 -0.10920088156E+03  0.12681086698E+03  0.00000000000E+00 0.  1.
        -11    1    4    4    0    0  0.67172434843E+02 -0.19871972803E+02  0.45759384986E+02  0.83671695454E+02  0.00000000000E+00 0. -1.
         11    1    4    4    0    0 -0.18776825520E+01  0.40387623888E+02 -0.11105734457E+01  0.40446498346E+02  0.00000000000E+00 0.  1.
         21    1    1    2  502  501  0.23443626447E+02 -0.64424667437E+02  0.23591995465E+02  0.72503266446E+02  0.00000000000E+00 0. -1.
<scales pt_clust_5="13000.00000" pt_clust_6="13000.00000" pt_clust_7="13000.00000" pt_clust_8="13000.00000" pt_clust_9="68.55758"></scales>
<clustering>
<clus scale="   68.558">  1  9  2 -1</clus>
<clus scale="   87.186">  5  6 -1 -1</clus>
<clus scale="   93.421">  7  8 -1 -1</clus>
<clus scale="  125.406">  2  5  1 -1</clus>
<clus scale="   68.558">  1  5  2 -1</clus>
</clustering>
</event>
<event>
 9    1  0.2951046E-005  0.1005818E+03  0.7546771E-02  0.1280247E+00
         -2   -1    0    0    0  501 -0.00000000000E+00  0.00000000000E+00  0.37442347446E+03  0.37442347446E+03  0.00000000000E+00 0.  1.
          1   -1    0    0  502    0  0.00000000000E+00 -0.00000000000E+00 -0.13086292340E+03  0.13086292340E+03  0.00000000000E+00 0. -1.
         23    2    1    2    0    0 -0.24563107848E+02  0.19506725386E+02  0.33298636900E+03  0.34710249306E+03  0.92824351034E+02 0.  0.
        -24    2    1    2    0    0  0.45920100643E+02 -0.23226007420E+02 -0.79941694024E+02  0.13452163935E+03  0.95169816355E+02 0.  0.
         11    1    4    4    0    0  0.63993527280E+02 -0.30897537099E+02 -0.88162169967E+02  0.11323602583E+03  0.00000000000E+00 0. -1.
        -12    1    4    4    0    0 -0.18073426637E+02  0.76715296782E+01  0.82204759429E+01  0.21285613516E+02  0.00000000000E+00 0.  1.
        -13    1    3    3    0    0  0.12395015816E+02 -0.28395431589E+02  0.60406281892E+02  0.67888554589E+02  0.00000000000E+00 0. -1.
         13    1    3    3    0    0 -0.36958123664E+02  0.47902156975E+02  0.27258008711E+03  0.27921393847E+03  0.00000000000E+00 0.  1.
         21    1    1    2  502  501 -0.21356992795E+02  0.37192820343E+01 -0.94841239213E+01  0.23662265459E+02  0.00000000000E+00 0. -1.
<scales pt_clust_5="13000.00000" pt_clust_6="13000.00000" pt_clust_7="13000.00000" pt_clust_8="13000.00000" pt_clust_9="21.67843"></scales>
<clustering>
<clus scale="   21.678">  2  9  1 -1</clus>
<clus scale="   92.824">  7  8 -1 -1</clus>
<clus scale="   95.170">  5  6 -1 -1</clus>
<clus scale="   98.365">  1  7  2 -1</clus>
<clus scale="   21.678">  2  5  1 -1</clus>
</clustering>
</event>
<event>
 9    1  0.2951046E-005  0.1231197E+03  0.7546771E-02  0.1240030E+00
          1   -1    0    0  502    0  0.00000000000E+00  0.00000000000E+00  0.58197137262E+03  0.58197137262E+03  0.00000000000E+00 0. -1.
         -2   -1    0    0    0  501 -0.00000000000E+00 -0.00000000000E+00 -0.30954952054E+02  0.30954952054E+02  0.00000000000E+00 0.  1.
        -24    2    1    2    0    0 -0.69969287356E+02 -0.59499715185E+02  0.21138107890E+03  0.24529132862E+03  0.83964028616E+02 0.  0.
         23    2    1    2    0    0  0.63449258087E+02  0.36614050822E+02  0.27218100427E+03  0.29610631615E+03  0.90719646756E+02 0.  0.
         11    1    3    3    0    0 -0.37181909641E+02 -0.44115678231E+02  0.19871840539E+03  0.20692436326E+03  0.00000000000E+00 0. -1.
        -12    1    3    3    0    0 -0.32787377715E+02 -0.15384036954E+02  0.12662673502E+02  0.38366965357E+02  0.00000000000E+00 0.  1.
        -13    1    4    4    0    0  0.33843121620E+02  0.54241779088E+02  0.24199299440E+03  0.25029609829E+03  0.00000000000E+00 0. -1.
         13    1    4    4    0    0  0.29606136467E+02 -0.17627728267E+02  0.30188009869E+02  0.45810217858E+02  0.00000000000E+00 0.  1.
         21    1    1    2  502  501  0.65200292695E+01  0.22885664364E+02  0.67454337406E+02  0.71528679912E+02  0.00000000000E+00 0.  1.
<scales pt_clust_5="13000.00000" pt_clust_6="13000.00000" pt_clust_7="13000.00000" pt_clust_8="13000.00000" pt_clust_9="23.79631"></scales>
<clustering>
<clus scale="   23.796">  1  9  2 -1</clus>
<clus scale="   83.964">  5  6 -1 -1</clus>
<clus scale="   90.720">  7  8 -1 -1</clus>
<clus scale="  118.230">  2  5  1 -1</clus>
<clus scale="   23.796">  1  5  2 -1</clus>
</clustering>
</event>
<event>
 9    1  0.2951046E-005  0.1498767E+03  0.7546771E-02  0.1202844E+00
          1   -1    0    0  502    0  0.00000000000E+00  0.00000000000E+00  0.28004611584E+03  0.28004611584E+03  0.00000000000E+00 0. -1.
         -2   -1    0    0    0  501 -0.00000000000E+00 -0.00000000000E+00 -0.19420999026E+03  0.19420999026E+03  0.00000000000E+00 0.  1.
         23    2    1    2    0    0  0.11872780629E+03 -0.16206423861E+02 -0.13502333507E+03  0.20293870524E+03  0.92703165581E+02 0.  0.
        -24    2    1    2    0    0 -0.10506280899E+03 -0.90221494588E+00  0.20558025795E+03  0.24461736888E+03  0.80841863362E+02 0.  0.
         11    1    4    4    0    0 -0.79052202847E+02 -0.17716350214E+02  0.19618166579E+03  0.21225071456E+03  0.00000000000E+00 0. -1.
        -12    1    4    4    0    0 -0.26010606147E+02  0.16814135269E+02  0.93985921600E+01  0.32366654315E+02  0.00000000000E+00 0.  1.
        -11    1    3    3    0    0  0.80809589898E+01  0.21184224772E+02 -0.59958991812E+02  0.64102683068E+02  0.00000000000E+00 0.  1.
         11    1    3    3    0    0  0.11064684730E+03 -0.37390648633E+02 -0.75064343260E+02  0.13883602217E+03  0.00000000000E+00 0. -1.
         21    1    1    2  502  501 -0.13664997300E+02  0.17108638807E+02  0.15279202695E+02  0.26700031986E+02  0.00000000000E+00 0.  1.
<scales pt_clust_5="13000.00000" pt_clust_6="13000.00000" pt_clust_7="13000.00000" pt_clust_8="13000.00000" pt_clust_9="21.89607"></scales>
<clustering>
<clus scale="   21.896">  1  9  2 -1</clus>
<clus scale="   80.842">  5  6 -1 -1</clus>
<clus scale="   92.703">  7  8 -1 -1</clus>
<clus scale="  142.845">  1  5  2 -1</clus>
<clus scale="   21.896">  1  5  2 -1</clus>
</clustering>
</event>
<event>
 9    1  0.2951046E-005  0.1215729E+03  0.7546771E-02  0.1244380E+00
          1   -1    0    0  502    0  0.00000000000E+00  0.00000000000E+00  0.37944902072E+03  0.37944902072E+03  0.00000000000E+00 0. -1.
         -2   -1    0    0    0  501 -0.00000000000E+00 -0.00000000000E+00 -0.19217255465E+03  0.19217255465E+03  0.00000000000E+00 0.  1.
        -24    2    1    2    0    0 -0.24027580853E+02  0.74972458145E+02 -0.14629670854E+03  0.18353979829E+03  0.78012412496E+02 0.  0.
         23    2    1    2    0    0  0.51348641213E+02 -0.10808359413E+03  0.29194456888E+03  0.32828438182E+03  0.90665637208E+02 0.  0.
         13    1    3    3    0    0  0.20966081427E+02  0.13378894478E+02 -0.89475823412E+01  0.26431621548E+02  0.00000000000E+00 0. -1.
        -14    1    3    3    0    0 -0.44993662281E+02  0.61593563667E+02 -0.13734912620E+03  0.15710817674E+03  0.00000000000E+00 0.  1.
        -13    1    4    4    0    0  0.56141878337E+02 -0.25880786041E+02  0.81423592012E+02  0.10223270967E+03  0.00000000000E+00 0.  1.
         13    1    4    4    0    0 -0.47932371247E+01 -0.82202808092E+02  0.21052097687E+03  0.22605167215E+03  0.00000000000E+00 0. -1.
         21    1    1    2  502  501 -0.27321060359E+02  0.33111135988E+02  0.41628605723E+02  0.59797395261E+02  0.00000000000E+00 0.  1.
<scales pt_clust_5="13000.00000" pt_clust_6="13000.00000" pt_clust_7="13000.00000" pt_clust_8="13000.00000" pt_clust_9="42.92770"></scales>
<clustering>
<clus scale="   42.928">  1  9  2 -1</clus>
<clus scale="   78.012">  5  6 -1 -1</clus>
<clus scale="   90.666">  7  8 -1 -1</clus>
<clus scale="  112.453">  2  5  1 -1</clus>
<clus scale="   42.928">  1  5  2 -1</clus>
</clustering>
</event>
<event>
 9    1  0.2951046E-005  0.1623161E+03  0.7546771E-02  0.1188011E+00
          3   -1    0    0  502    0  0.00000000000E+00  0.00000000000E+00  0.13662760878E+04  0.13662760878E+04  0.00000000000E+00 0. -1.
         -4   -1    0    0    0  501 -0.00000000000E+00 -0.00000000000E+00 -0.24857649607E+02  0.24857649607E+02  0.00000000000E+00 0.  1.
         23    2    1    2    0    0 -0.11085240329E+03  0.73202387299E+02  0.40192142965E+03  0.43318012359E+03  0.91963792036E+02 0.  0.
        -24    2    1    2    0    0  0.12641097765E+03 -0.52617511851E+02  0.73672482509E+03  0.75354626385E+03  0.79499471967E+02 0.  0.
         13    1    4    4    0    0  0.26580914323E+02 -0.50575080134E+02  0.22264314056E+03  0.22985724217E+03  0.00000000000E+00 0. -1.
        -14    1    4    4    0    0  0.99830063325E+02 -0.20424317170E+01  0.51408168452E+03  0.52368902169E+03  0.00000000000E+00 0.  1.
        -13    1    3    3    0    0 -0.79111304938E+02  0.90688003331E+02  0.34792541855E+03  0.36815079707E+03  0.00000000000E+00 0.  1.
         13    1    3    3    0    0 -0.31741098349E+02 -0.17485616032E+02  0.53996011101E+02  0.65029326516E+02  0.00000000000E+00 0. -1.
         21    1    1    2  502  501 -0.15558574362E+02 -0.20584875447E+02  0.20277218343E+03  0.20440734993E+03  0.00000000000E+00 0. -1.
<scales pt_clust_5="13000.00000" pt_clust_6="13000.00000" pt_clust_7="13000.00000" pt_clust_8="13000.00000" pt_clust_9="25.80322"></scales>
<clustering>
<clus scale="   25.803">  1  9  2 -1</clus>
<clus scale="   79.499">  5  6 -1 -1</clus>
<clus scale="   91.964">  7  8 -1 -1</clus>
<clus scale="  155.594">  1  5  2 -1</clus>
<clus scale="   25.803">  1  5  2 -1</clus>
</clustering>
</event>
<event>
 9    1  0.2951046E-005  0.1193726E+03  0.7546771E-02  0.1245556E+00
          1   -1    0    0  502    0  0.00000000000E+00  0.00000000000E+00  0.24824947296E+03  0.24824947296E+03  0.00000000000E+00 0. -1.
         -2   -1    0    0    0  501 -0.00000000000E+00 -0.00000000000E+00 -0.11556709952E+03  0.11556709952E+03  0.00000000000E+00 0.  1.
         23    2    1    2    0    0 -0.71797075386E+02 -0.33616920749E+02 -0.47228347236E+02  0.12531361228E+03  0.84782470151E+02 0.  0.
        -24    2    1    2    0    0  0.85738705377E+02  0.63544647623E+01  0.16942816343E+03  0.20613793958E+03  0.79971512110E+02 0.  0.
         13    1    4    4    0    0  0.45633235169E+01  0.26757743790E+02  0.75992621005E+02  0.80694976433E+02  0.00000000000E+00 0. -1.
        -14    1    4    4    0    0  0.81175381860E+02 -0.20403279027E+02  0.93435542427E+02  0.12544296315E+03  0.00000000000E+00 0.  1.
        -11    1    3    3    0    0 -0.13170254282E+02  0.28011252672E+02 -0.14403689969E+02  0.34140183931E+02  0.00000000000E+00 0. -1.
         11    1    3    3    0    0 -0.58626821105E+02 -0.61628173420E+02 -0.32824657266E+02  0.91173428347E+02  0.00000000000E+00 0.  1.
         21    1    1    2  502  501 -0.13941629990E+02  0.27262455986E+02  0.10482557243E+02  0.32365020617E+02  0.00000000000E+00 0. -1.
<scales pt_clust_5="13000.00000" pt_clust_6="13000.00000" pt_clust_7="13000.00000" pt_clust_8="13000.00000" pt_clust_9="30.62043"></scales>
<clustering>
<clus scale="   30.620">  2  9  1 -1</clus>
<clus scale="   79.972">  5  6 -1 -1</clus>
<clus scale="   84.782">  7  8 -1 -1</clus>
<clus scale="  116.005">  1  5  2 -1</clus>
<clus scale="  116.005">  1  5  2 -1</clus>
</clustering>
</event>
<event>
 9    1  0.2951046E-005  0.1011149E+03  0.7546771E-02  0.1283031E+00
          1   -1    0    0  502    0  0.00000000000E+00  0.00000000000E+00  0.85979191910E+03  0.85979191910E+03  0.00000000000E+00 0. -1.
         -2   -1    0    0    0  501 -0.00000000000E+00 -0.00000000000E+00 -0.73783328090E+02  0.73783328090E+02  0.00000000000E+00 0.  1.
        -24    2    1    2    0    0  0.33895447248E+02  0.47732865816E+02  0.33717762797E+02  0.10616011318E+03  0.81888670027E+02 0.  0.
         23    2    1    2    0    0 -0.48312150223E+02  0.36701776965E+02  0.52148144438E+02  0.12205222893E+03  0.92175014653E+02 0.  0.
         13    1    3    3    0    0 -0.16046124976E+02 -0.12957731841E+02  0.14605693351E+02  0.25272657546E+02  0.00000000000E+00 0. -1.
        -14    1    3    3    0    0  0.49941572224E+02  0.60690597657E+02  0.19112069446E+02  0.80887455632E+02  0.00000000000E+00 0.  1.
        -13    1    4    4    0    0 -0.66550137715E+02  0.53227266783E+02  0.35372809426E+02  0.92267537117E+02  0.00000000000E+00 0. -1.
         13    1    4    4    0    0  0.18237987492E+02 -0.16525489817E+02  0.16775335012E+02  0.29784691810E+02  0.00000000000E+00 0.  1.
         21    1    1    2  502  501  0.14416702974E+02 -0.84434642781E+02  0.70014268377E+03  0.70536290508E+03  0.00000000000E+00 0. -1.
<scales pt_clust_5="13000.00000" pt_clust_6="13000.00000" pt_clust_7="13000.00000" pt_clust_8="13000.00000" pt_clust_9="85.65658"></scales>
<clustering>
<clus scale="   81.889">  5  6 -1 -1</clus>
<clus scale="   85.657">  1  9  2 -1</clus>
<clus scale="   91.835">  2  5  1 -1</clus>
<clus scale="   92.175">  7  8 -1 -1</clus>
<clus scale="   85.657">  1  5  2 -1</clus>
</clustering>
</event>
<event>
 9    1  0.2951046E-005  0.1008271E+03  0.7546771E-02  0.1287670E+00
          1   -1    0    0  502    0  0.00000000000E+00  0.00000000000E+00  0.13641278588E+03  0.13641278588E+03  0.00000000000E+00 0. -1.
         -2   -1    0    0    0  501 -0.00000000000E+00 -0.00000000000E+00 -0.14762121953E+03  0.14762121953E+03  0.00000000000E+00 0.  1.
        -24    2    1    2    0    0  0.16733995249E+02 -0.27822955478E+02 -0.10231828542E+03  0.13343614916E+03  0.79259263956E+02 0.  0.
         23    2    1    2    0    0  0.13115675041E+01  0.18680528624E+02  0.84327224298E+02  0.12926172869E+03  0.96160446067E+02 0.  0.
         13    1    3    3    0    0  0.39076877192E+02  0.10113988722E+02 -0.60392573790E+02  0.72639920622E+02  0.00000000000E+00 0. -1.
        -14    1    3    3    0    0 -0.22342881943E+02 -0.37936944200E+02 -0.41925711630E+02  0.60796228538E+02  0.00000000000E+00 0.  1.
        -11    1    4    4    0    0 -0.31556028336E+02  0.32934910935E+02  0.99194613084E+01  0.46678549627E+02  0.00000000000E+00 0.  1.
         11    1    4    4    0    0  0.32867595840E+02 -0.14254382311E+02  0.74407762990E+02  0.82583179065E+02  0.00000000000E+00 0. -1.
         21    1    1    2  502  501 -0.18045562753E+02  0.91424268536E+01  0.67826274701E+01  0.21336127560E+02  0.00000000000E+00 0. -1.
<scales pt_clust_5="13000.00000" pt_clust_6="13000.00000" pt_clust_7="13000.00000" pt_clust_8="13000.00000" pt_clust_9="20.22934"></scales>
<clustering>
<clus scale="   20.229">  1  9  2 -1</clus>
<clus scale="   79.259">  5  6 -1 -1</clus>
<clus scale="   84.860">  2  5  1 -1</clus>
<clus scale="   96.160">  7  8 -1 -1</clus>
<clus scale="   20.229">  1  5  2 -1</clus>
</clustering>
</event>
<event>
 9    1  0.2951046E-005  0.1157107E+03  0.7546771E-02  0.1252425E+00
          1   -1    0    0  502    0  0.00000000000E+00  0.00000000000E+00  0.79298358954E+02  0.79298358954E+02  0.00000000000E+00 0. -1.
         -2   -1    0    0    0  501 -0.00000000000E+00 -0.00000000000E+00 -0.23927385183E+03  0.23927385183E+03  0.00000000000E+00 0.  1.
         23    2    1    2    0    0 -0.85183427750E+01 -0.70897943470E+02 -0.97732807190E+02  0.15057800266E+03  0.89570936863E+02 0.  0.
        -24    2    1    2    0    0 -0.14483067029E+02  0.75809866398E+02 -0.79612557688E+02  0.13875546169E+03  0.83414769272E+02 0.  0.
         11    1    4    4    0    0  0.30809482859E+02  0.11037378148E+02 -0.12377909957E+02  0.34989435625E+02  0.00000000000E+00 0. -1.
        -12    1    4    4    0    0 -0.45292549888E+02  0.64772488249E+02 -0.67234647732E+02  0.10376602606E+03  0.00000000000E+00 0.  1.
        -13    1    3    3    0    0 -0.28609860775E+02  0.23342233249E+01 -0.58364798672E+02  0.65041697827E+02  0.00000000000E+00 0.  1.
         13    1    3    3    0    0  0.20091518000E+02 -0.73232166795E+02 -0.39368008518E+02  0.85536304829E+02  0.00000000000E+00 0. -1.
         21    1    1    2  502  501  0.23001409804E+02 -0.49119229276E+01  0.17369872005E+02  0.29238746438E+02  0.00000000000E+00 0. -1.
<scales pt_clust_5="13000.00000" pt_clust_6="13000.00000" pt_clust_7="13000.00000" pt_clust_8="13000.00000" pt_clust_9="23.52003"></scales>
<clustering>
<clus scale="   23.520">  1  9  2 -1</clus>
<clus scale="   83.415">  5  6 -1 -1</clus>
<clus scale="   89.571">  7  8 -1 -1</clus>
<clus scale="  111.014">  1  5  2 -1</clus>
<clus scale="   23.520">  1  5  2 -1</clus>
</clustering>
</event>
<event>
 9    1  0.2951046E-005  0.1248157E+03  0.7546771E-02  0.1239573E+00
         -2   -1    0    0    0  501 -0.00000000000E+00  0.00000000000E+00  0.73999327813E+02  0.73999327813E+02  0.00000000000E+00 0.  1.
          1   -1    0    0  502    0  0.00000000000E+00 -0.00000000000E+00 -0.34614545169E+03  0.34614545169E+03  0.00000000000E+00 0. -1.
        -24    2    1    2    0    0  0.91952358522E+02 -0.23422743206E+02 -0.60956109525E+02  0.13631795568E+03  0.76570729499E+02 0.  0.
         23    2    1    2    0    0 -0.77327074932E+02 -0.13473280116E+02 -0.74628176900E+02  0.14161447940E+03  0.91237548159E+02 0.  0.
         13    1    3    3    0    0  0.42833194969E+02 -0.22088872551E+02 -0.71342445223E+02  0.86094978786E+02  0.00000000000E+00 0. -1.
        -14    1    3    3    0    0  0.49119163553E+02 -0.13338706546E+01  0.10386335698E+02  0.50222976896E+02  0.00000000000E+00 0.  1.
        -13    1    4    4    0    0 -0.16330969174E+02 -0.46163829081E+02 -0.17918580573E+02  0.52142834592E+02  0.00000000000E+00 0.  1.
         13    1    4    4    0    0 -0.60996105758E+02  0.32690548965E+02 -0.56709596327E+02  0.89471644809E+02  0.00000000000E+00 0. -1.
         21    1    1    2  502  501 -0.14625283590E+02  0.36896023322E+02 -0.13656183745E+03  0.14221234442E+03  0.00000000000E+00 0. -1.
<scales pt_clust_5="13000.00000" pt_clust_6="13000.00000" pt_clust_7="13000.00000" pt_clust_8="13000.00000" pt_clust_9="39.68898"></scales>
<clustering>
<clus scale="   39.689">  2  9  1 -1</clus>
<clus scale="   76.571">  5  6 -1 -1</clus>
<clus scale="   91.238">  7  8 -1 -1</clus>
<clus scale="  114.533">  1  5  2 -1</clus>
<clus scale="   39.689">  2  5  1 -1</clus>
</clustering>
</event>
<event>
 9    1  0.2951046E-005  0.1443994E+03  0.7546771E-02  0.1209499E+00
         -2   -1    0    0    0  501 -0.00000000000E+00  0.00000000000E+00  0.19313433751E+03  0.19313433751E+03  0.00000000000E+00 0.  1.
          1   -1    0    0  502    0  0.00000000000E+00 -0.00000000000E+00 -0.48412612486E+03  0.48412612486E+03  0.00000000000E+00 0. -1.
        -24    2    1    2    0    0  0.85918568879E+02  0.53377077447E+02  0.13835669095E+03  0.18952304183E+03  0.80903007226E+02 0.  0.
         23    2    1    2    0    0 -0.10744181664E+03 -0.36025302560E+02 -0.43580475986E+03  0.45934696690E+03  0.90731917775E+02 0.  0.
         13    1    3    3    0    0  0.64656241789E+02  0.49162738774E+02  0.43337280633E+02  0.92062611188E+02  0.00000000000E+00 0. -1.
        -14    1    3    3    0    0  0.21262327089E+02  0.42143386730E+01  0.95019410314E+02  0.97460430638E+02  0.00000000000E+00 0.  1.
        -11    1    4    4    0    0  0.52913104355E+01 -0.31048186756E+02 -0.11680280297E+03  0.12097471905E+03  0.00000000000E+00 0. -1.
         11    1    4    4    0    0 -0.11273312708E+03 -0.49771158047E+01 -0.31900195688E+03  0.33837224785E+03  0.00000000000E+00 0.  1.
         21    1    1    2  502  501  0.21523247766E+02 -0.17351774887E+02  0.64562815598E+01  0.28390453637E+02  0.00000000000E+00 0.  1.
<scales pt_clust_5="13000.00000" pt_clust_6="13000.00000" pt_clust_7="13000.00000" pt_clust_8="13000.00000" pt_clust_9="27.64660"></scales>
<clustering>
<clus scale="   27.647">  1  9  2 -1</clus>
<clus scale="   80.903">  5  6 -1 -1</clus>
<clus scale="   90.732">  7  8 -1 -1</clus>
<clus scale="  138.435">  1  5  2 -1</clus>
<clus scale="  144.399">  2  5  1 -1</clus>
</clustering>
</event>
<event>
 9    1  0.2951046E-005  0.9551534E+02  0.7546771E-02  0.1296183E+00
         -2   -1    0    0    0  501 -0.00000000000E+00  0.00000000000E+00  0.33327323696E+03  0.33327323696E+03  0.00000000000E+00 0.  1.
          1   -1    0    0  502    0  0.00000000000E+00 -0.00000000000E+00 -0.10978502768E+03  0.10978502768E+03  0.00000000000E+00 0. -1.
        -24    2    1    2    0    0 -0.20997820987E+02  0.48175072972E+01  0.25167788835E+03  0.26540127094E+03  0.81436836083E+02 0.  0.
         23    2    1    2    0    0  0.67892776748E+02 -0.60561016395E+01 -0.50985695999E+02  0.12550021677E+03  0.92220701097E+02 0.  0.
         11    1    3    3    0    0 -0.19057589351E+02  0.19434795951E+02  0.21328622744E+02  0.34580531425E+02  0.00000000000E+00 0. -1.
        -12    1    3    3    0    0 -0.19402316368E+01 -0.14617288654E+02  0.23034926561E+03  0.23082073952E+03  0.00000000000E+00 0.  1.
        -13    1    4    4    0    0 -0.13379513868E+02  0.15837716787E+02 -0.33710962188E+02  0.39576175106E+02  0.00000000000E+00 0.  1.
         13    1    4    4    0    0  0.81272290616E+02 -0.21893818427E+02 -0.17274733810E+02  0.85924041662E+02  0.00000000000E+00 0. -1.
         21    1    1    2  502  501 -0.46894955760E+02  0.12385943422E+01  0.22796016934E+02  0.52156776931E+02  0.00000000000E+00 0.  1.
<scales pt_clust_5="13000.00000" pt_clust_6="13000.00000" pt_clust_7="13000.00000" pt_clust_8="13000.00000" pt_clust_9="46.91131"></scales>
<clustering>
<clus scale="   46.911">  2  9  1 -1</clus>
<clus scale="   81.437">  5  6 -1 -1</clus>
<clus scale="   85.150">  1  5  2 -1</clus>
<clus scale="   92.221">  7  8 -1 -1</clus>
<clus scale="   46.911">  2  5  1 -1</clus>
</clustering>
</event>
<event>
 9    1  0.2951046E-005  0.1132143E+03  0.7546771E-02  0.1261683E+00
          1   -1    0    0  502    0  0.00000000000E+00  0.00000000000E+00  0.50969600086E+03  0.50969600086E+03  0.00000000000E+00 0. -1.
         -2   -1    0    0    0  501 -0.00000000000E+00 -0.00000000000E+00 -0.22636704092E+03  0.22636704092E+03  0.00000000000E+00 0.  1.
         23    2    1    2    0    0  0.35840149395E+02  0.63851474581E+02 -0.18631341954E+03  0.21725098307E+03  0.84402442096E+02 0.  0.
        -24    2    1    2    0    0  0.42058393823E+02  0.28057337122E+02  0.18417126423E+03  0.20895859278E+03  0.84785118214E+02 0.  0.
         11    1    4    4    0    0  0.46640669617E+02 -0.18821779485E+02  0.78022496467E+02  0.92828451458E+02  0.00000000000E+00 0. -1.
        -12    1    4    4    0    0 -0.45822757941E+01  0.46879116607E+02  0.10614876777E+03  0.11613014132E+03  0.00000000000E+00 0.  1.
        -11    1    3    3    0    0 -0.26674281854E+02  0.27136603168E+02 -0.49716818916E+02  0.62607304902E+02  0.00000000000E+00 0. -1.
         11    1    3    3    0    0  0.62514431248E+02  0.36714871413E+02 -0.13659660062E+03  0.15464367817E+03  0.00000000000E+00 0.  1.
         21    1    1    2  502  501 -0.77898543217E+02 -0.91908811704E+02  0.28547111525E+03  0.30985346593E+03  0.00000000000E+00 0. -1.
<scales pt_clust_5="13000.00000" pt_clust_6="13000.00000" pt_clust_7="13000.00000" pt_clust_8="13000.00000" pt_clust_9="75.45659"></scales>
<clustering>
<clus scale="   84.402">  7  8 -1 -1</clus>
<clus scale="   84.785">  5  6 -1 -1</clus>
<clus scale="   98.715">  1  5  2 -1</clus>
<clus scale="   75.457">  1  9  2 -1</clus>
<clus scale="   98.715">  1  5  2 -1</clus>
</clustering>
</event>
<event>
 9    1  0.2951046E-005  0.3056597E+03  0.7546771E-02  0.1082794E+00
          1   -1    0    0  502    0  0.00000000000E+00  0.00000000000E+00  0.32078381137E+03  0.32078381137E+03  0.00000000000E+00 0. -1.
         -2   -1    0    0    0  501 -0.00000000000E+00 -0.00000000000E+00 -0.58389661122E+03  0.58389661122E+03  0.00000000000E+00 0.  1.
        -24    2    1    2    0    0  0.14076886942E+03 -0.26658564025E+03 -0.43880793702E+03  0.53845199441E+03  0.80587632484E+02 0.  0.
         23    2    1    2    0    0 -0.13017681613E+03  0.21439224174E+03  0.13334893039E+03  0.29818767810E+03  0.90685816737E+02 0.  0.
         11    1    3    3    0    0  0.26306733110E+02 -0.13324189338E+03 -0.17615963446E+03  0.22243575065E+03  0.00000000000E+00 0. -1.
        -12    1    3    3    0    0  0.11446213631E+03 -0.13334374687E+03 -0.26264830257E+03  0.31601624376E+03  0.00000000000E+00 0.  1.
        -11    1    4    4    0    0 -0.33770409284E+02  0.13734854081E+03  0.88690437259E+02  0.16694626640E+03  0.00000000000E+00 0. -1.
         11    1    4    4    0    0 -0.96406406850E+02  0.77043700930E+02  0.44658493133E+02  0.13124141170E+03  0.00000000000E+00 0.  1.
         21    1    1    2  502  501 -0.10592053285E+02  0.52193398515E+02  0.42346206785E+02  0.68040750072E+02  0.00000000000E+00 0.  1.
<scales pt_clust_5="13000.00000" pt_clust_6="13000.00000" pt_clust_7="13000.00000" pt_clust_8="13000.00000" pt_clust_9="53.25732"></scales>
<clustering>
<clus scale="   53.257">  1  9  2 -1</clus>
<clus scale="   80.588">  5  6 -1 -1</clus>
<clus scale="   90.686">  7  8 -1 -1</clus>
<clus scale="  302.817">  2  5  1 -1</clus>
<clus scale="   53.257">  1  5  2 -1</clus>
</clustering>
</event>
<event>
 9    1  0.2951046E-005  0.9932639E+02  0.7546771E-02  0.1284642E+00
          1   -1    0    0  502    0  0.00000000000E+00  0.00000000000E+00  0.40033178331E+03  0.40033178331E+03  0.00000000000E+00 0. -1.
         -2   -1    0    0    0  501 -0.00000000000E+00 -0.00000000000E+00 -0.15188146953E+03  0.15188146953E+03  0.00000000000E+00 0.  1.
        -24    2    1    2    0    0  0.47774294481E+02  0.30885363606E+02 -0.12652431589E+03  0.16132618555E+03  0.82349539976E+02 0.  0.
         23    2    1    2    0    0 -0.25154914031E+02 -0.17604385320E+02  0.31463199746E+03  0.32509000033E+03  0.75812468690E+02 0.  0.
         13    1    3    3    0    0  0.11287639962E+02  0.41253096971E+02 -0.18069944104E+02  0.46430073288E+02  0.00000000000E+00 0. -1.
        -14    1    3    3    0    0  0.36486654519E+02 -0.10367733365E+02 -0.10845437179E+03  0.11489611227E+03  0.00000000000E+00 0.  1.
        -13    1    4    4    0    0  0.16467812069E+02 -0.30995842010E+02  0.98161312163E+02  0.10424765830E+03  0.00000000000E+00 0.  1.
         13    1    4    4    0    0 -0.41622726100E+02  0.13391456690E+02  0.21647068530E+03  0.22084234203E+03  0.00000000000E+00 0. -1.
         21    1    1    2  502  501 -0.22619380451E+02 -0.13280978287E+02  0.60342632217E+02  0.65797066949E+02  0.00000000000E+00 0. -1.
<scales pt_clust_5="13000.00000" pt_clust_6="13000.00000" pt_clust_7="13000.00000" pt_clust_8="13000.00000" pt_clust_9="26.23015"></scales>
<clustering>
<clus scale="   26.230">  1  9  2 -1</clus>
<clus scale="   75.812">  7  8 -1 -1</clus>
<clus scale="   82.350">  5  6 -1 -1</clus>
<clus scale="   93.978">  1  7  2 -1</clus>
<clus scale="   26.230">  1  5  2 -1</clus>
</clustering>
</event>
<event>
 9    1  0.2951046E-005  0.1142106E+03  0.7546771E-02  0.1256250E+00
         -2   -1    0    0    0  501 -0.00000000000E+00  0.00000000000E+00  0.81862046963E+02  0.81862046963E+02  0.00000000000E+00 0.  1.
          1   -1    0    0  502    0  0.00000000000E+00 -0.00000000000E+00 -0.54531730821E+03  0.54531730821E+03  0.00000000000E+00 0. -1.
        -24    2    1    2    0    0 -0.78751114586E+02  0.18409674805E+01  0.22585682413E+02  0.11478566187E+03  0.80377284797E+02 0.  0.
         23    2    1    2    0    0  0.12845975160E+02 -0.18259973126E+02 -0.31714323256E+03  0.33035109399E+03  0.89741682880E+02 0.  0.
         11    1    3    3    0    0 -0.94941082105E+01  0.21859603509E+02 -0.19950158469E+02  0.31080366459E+02  0.00000000000E+00 0. -1.
        -12    1    3    3    0    0 -0.69257006375E+02 -0.20018636029E+02  0.42535840882E+02  0.83705295412E+02  0.00000000000E+00 0.  1.
        -11    1    4    4    0    0  0.28729744610E+01 -0.51560051291E+02 -0.12771853215E+03  0.13776326188E+03  0.00000000000E+00 0. -1.
         11    1    4    4    0    0  0.99730006991E+01  0.33300078166E+02 -0.18942470041E+03  0.19258783210E+03  0.00000000000E+00 0.  1.
         21    1    1    2  502  501  0.65905139426E+02  0.16419005645E+02 -0.16889771111E+03  0.18204259932E+03  0.00000000000E+00 0. -1.
<scales pt_clust_5="13000.00000" pt_clust_6="13000.00000" pt_clust_7="13000.00000" pt_clust_8="13000.00000" pt_clust_9="67.91959"></scales>
<clustering>
<clus scale="   67.920">  2  9  1 -1</clus>
<clus scale="   80.377">  5  6 -1 -1</clus>
<clus scale="   89.742">  7  8 -1 -1</clus>
<clus scale="  107.009">  1  5  2 -1</clus>
<clus scale="   67.920">  2  5  1 -1</clus>
</clustering>
</event>
<event>
 9    1  0.2951046E-005  0.9908703E+02  0.7546771E-02  0.1287792E+00
         -4   -1    0    0    0  501 -0.00000000000E+00  0.00000000000E+00  0.33117330666E+03  0.33117330666E+03  0.00000000000E+00 0.  1.
          3   -1    0    0  502    0  0.00000000000E+00 -0.00000000000E+00 -0.29131712099E+03  0.29131712099E+03  0.00000000000E+00 0. -1.
         23    2    1    2    0    0 -0.35412721801E+02  0.20073205966E+02  0.30833014690E+03  0.32408017637E+03  0.91123469904E+02 0.  0.
        -24    2    1    2    0    0  0.69671583308E+01  0.18138118228E+02 -0.17412548762E+03  0.19271782085E+03  0.80267928879E+02 0.  0.
         11    1    4    4    0    0 -0.23303105125E+02 -0.19590673468E+02 -0.97126734942E+02  0.10178620651E+03  0.00000000000E+00 0. -1.
        -12    1    4    4    0    0  0.30270263456E+02  0.37728791696E+02 -0.76998752676E+02  0.90931614339E+02  0.00000000000E+00 0.  1.
        -11    1    3    3    0    0 -0.64526967643E+02  0.20176208813E+02  0.17493618133E+03  0.18754593169E+03  0.00000000000E+00 0.  1.
         11    1    3    3    0    0  0.29114245842E+02 -0.10300284653E+00  0.13339396557E+03  0.13653424468E+03  0.00000000000E+00 0. -1.
         21    1    1    2  502  501  0.28445563470E+02 -0.38211324195E+02 -0.94348473611E+02  0.10569243043E+03  0.00000000000E+00 0. -1.
<scales pt_clust_5="13000.00000" pt_clust_6="13000.00000" pt_clust_7="13000.00000" pt_clust_8="13000.00000" pt_clust_9="47.63670"></scales>
<clustering>
<clus scale="   47.637">  2  9  1 -1</clus>
<clus scale="   80.268">  5  6 -1 -1</clus>
<clus scale="   89.206">  2  5  1 -1</clus>
<clus scale="   91.123">  7  8 -1 -1</clus>
<clus scale="   47.637">  2  5  1 -1</clus>
</clustering>
</event>
<event>
 9    1  0.2951046E-005  0.9869980E+02  0.7546771E-02  0.1287625E+00
          3   -1    0    0  502    0  0.00000000000E+00  0.00000000000E+00  0.30416727217E+03  0.30416727217E+03  0.00000000000E+00 0. -1.
         -4   -1    0    0    0  501 -0.00000000000E+00 -0.00000000000E+00 -0.14563023985E+03  0.14563023985E+03  0.00000000000E+00 0.  1.
         23    2    1    2    0    0 -0.20950446247E+02  0.31673141342E+02 -0.96550834567E+02  0.13968543096E+03  0.93529925083E+02 0.  0.
        -24    2    1    2    0    0  0.26011982222E+02  0.21917313982E+02  0.23583823935E+03  0.25294474591E+03  0.84878604340E+02 0.  0.
         11    1    4    4    0    0  0.48104747954E+02  0.40206136869E+02  0.15730782443E+03  0.16934093376E+03  0.00000000000E+00 0. -1.
        -12    1    4    4    0    0 -0.22092765732E+02 -0.18288822887E+02  0.78530414917E+02  0.83603812157E+02  0.00000000000E+00 0.  1.
        -13    1    3    3    0    0 -0.40046833202E+02 -0.17911788077E+02 -0.63258807978E+02  0.76982191372E+02  0.00000000000E+00 0.  1.
         13    1    3    3    0    0  0.19096386955E+02  0.49584929419E+02 -0.33292026589E+02  0.62703239586E+02  0.00000000000E+00 0. -1.
         21    1    1    2  502  501 -0.50615359759E+01 -0.53590455324E+02  0.19249627538E+02  0.57167335154E+02  0.00000000000E+00 0.  1.
<scales pt_clust_5="13000.00000" pt_clust_6="13000.00000" pt_clust_7="13000.00000" pt_clust_8="13000.00000" pt_clust_9="53.82895"></scales>
<clustering>
<clus scale="   53.829">  2  9  1 -1</clus>
<clus scale="   84.879">  5  6 -1 -1</clus>
<clus scale="   90.544">  1  5  2 -1</clus>
<clus scale="   93.530">  7  8 -1 -1</clus>
<clus scale="   90.544">  1  5  2 -1</clus>
</clustering>
</event>
<event>
 9    1  0.2951046E-005  0.1389584E+03  0.7546771E-02  0.1217302E+00
          1   -1    0    0  502    0  0.00000000000E+00  0.00000000000E+00  0.20109019096E+03  0.20109019096E+03  0.00000000000E+00 0. -1.
         -2   -1    0    0    0  501 -0.00000000000E+00 -0.00000000000E+00 -0.25720643376E+03  0.25720643376E+03  0.00000000000E+00 0.  1.
        -24    2    1    2    0    0  0.62155513946E+02 -0.72120403359E+02 -0.15081947255E+03  0.19611102130E+03  0.81537469196E+02 0.  0.
         23    2    1    2    0    0 -0.12288665242E+03  0.78207364537E+02  0.33966302624E+02  0.17607929359E+03  0.92912252732E+02 0.  0.
         11    1    3    3    0    0  0.44388968569E+02 -0.78503073972E+01 -0.20077806164E+02  0.49346997449E+02  0.00000000000E+00 0. -1.
        -12    1    3    3    0    0  0.17766545377E+02 -0.64270095962E+02 -0.13074166638E+03  0.14676402385E+03  0.00000000000E+00 0.  1.
        -11    1    4    4    0    0 -0.13346820074E+03  0.51565051560E+02  0.20997168417E+02  0.14461533885E+03  0.00000000000E+00 0.  1.
         11    1    4    4    0    0  0.10581548321E+02  0.26642312977E+02  0.12969134207E+02  0.31463954737E+02  0.00000000000E+00 0. -1.
         21    1    1    2  502  501  0.60731138471E+02 -0.60869611786E+01  0.60736927124E+02  0.86106309832E+02  0.00000000000E+00 0. -1.
<scales pt_clust_5="13000.00000" pt_clust_6="13000.00000" pt_clust_7="13000.00000" pt_clust_8="13000.00000" pt_clust_9="61.03542"></scales>
<clustering>
<clus scale="   61.035">  1  9  2 -1</clus>
<clus scale="   81.537">  5  6 -1 -1</clus>
<clus scale="   92.912">  7  8 -1 -1</clus>
<clus scale="  131.625">  2  5  1 -1</clus>
<clus scale="   61.035">  1  5  2 -1</clus>
</clustering>
</event>
<event>
 9    1  0.2951046E-005  0.9319668E+02  0.7546771E-02  0.1301826E+00
         -4   -1    0    0    0  501 -0.00000000000E+00  0.00000000000E+00  0.51204044470E+02  0.51204044470E+02  0.00000000000E+00 0.  1.
          3   -1    0    0  502    0  0.00000000000E+00 -0.00000000000E+00 -0.40215218045E+03  0.40215218045E+03  0.00000000000E+00 0. -1.
        -24    2    1    2    0    0 -0.46982636441E+01 -0.11888761000E+02 -0.40930791863E+01  0.82419746332E+02  0.81319400938E+02 0.  0.
         23    2    1    2    0    0 -0.17623515189E+02 -0.20323224427E+00 -0.32215619893E+03  0.33551739206E+03  0.92068856157E+02 0.  0.
         11    1    3    3    0    0 -0.29852591286E+02  0.90470057332E+01 -0.27979334341E+02  0.41903086633E+02  0.00000000000E+00 0. -1.
        -12    1    3    3    0    0  0.25154327642E+02 -0.20935766733E+02  0.23886255155E+02  0.40516659699E+02  0.00000000000E+00 0.  1.
        -13    1    4    4    0    0 -0.21387505238E+02 -0.40041834980E+02 -0.23851614055E+03  0.24279770022E+03  0.00000000000E+00 0.  1.
         13    1    4    4    0    0  0.37639900495E+01  0.39838602736E+02 -0.83640058384E+02  0.92719691843E+02  0.00000000000E+00 0. -1.
         21    1    1    2  502  501  0.22321778833E+02  0.12091993244E+02 -0.24698857867E+02  0.35419086533E+02  0.00000000000E+00 0. -1.
<scales pt_clust_5="13000.00000" pt_clust_6="13000.00000" pt_clust_7="13000.00000" pt_clust_8="13000.00000" pt_clust_9="25.38657"></scales>
<clustering>
<clus scale="   25.387">  1  9  2 -1</clus>
<clus scale="   81.319">  5  6 -1 -1</clus>
<clus scale="   82.594">  1  5  2 -1</clus>
<clus scale="   92.069">  7  8 -1 -1</clus>
<clus scale="   93.197">  2  5  1 -1</clus>
</clustering>
</event>
<event>
 9    1  0.2951046E-005  0.1015412E+03  0.7546771E-02  0.1284160E+00
         -2   -1    0    0    0  501 -0.00000000000E+00  0.00000000000E+00  0.17330334971E+03  0.17330334971E+03  0.00000000000E+00 0.  1.
          1   -1    0    0  502    0  0.00000000000E+00 -0.00000000000E+00 -0.25967163087E+03  0.25967163087E+03  0.00000000000E+00 0. -1.
        -24    2    1    2    0    0  0.32602151681E+02  0.15511927827E+02  0.10221939434E+03  0.13364559046E+03  0.78158934679E+02 0.  0.
         23    2    1    2    0    0 -0.43209575472E+02 -0.59254460487E+02 -0.13729387956E+02  0.11877095823E+03  0.92411503210E+02 0.  0.
         13    1    3    3    0    0  0.47982577471E+02  0.18298208937E+02  0.29412626235E+02  0.59179851073E+02  0.00000000000E+00 0. -1.
        -14    1    3    3    0    0 -0.15380425790E+02 -0.27862811098E+01  0.72806768106E+02  0.74465739383E+02  0.00000000000E+00 0.  1.
        -13    1    4    4    0    0 -0.18516063745E+02  0.24462161005E+02 -0.43315074217E+01  0.30983929612E+02  0.00000000000E+00 0.  1.
         13    1    4    4    0    0 -0.24693511727E+02 -0.83716621492E+02 -0.93978805339E+01  0.87787028620E+02  0.00000000000E+00 0. -1.
         21    1    1    2  502  501  0.10607423792E+02  0.43742532660E+02 -0.17485828754E+03  0.18055843189E+03  0.00000000000E+00 0. -1.
<scales pt_clust_5="13000.00000" pt_clust_6="13000.00000" pt_clust_7="13000.00000" pt_clust_8="13000.00000" pt_clust_9="45.01029"></scales>
<clustering>
<clus scale="   45.010">  2  9  1 -1</clus>
<clus scale="   78.159">  5  6 -1 -1</clus>
<clus scale="   88.767">  1  5  2 -1</clus>
<clus scale="   92.412">  7  8 -1 -1</clus>
<clus scale="   45.010">  2  5  1 -1</clus>
</clustering>
</event>
<event>
 9    1  0.2951046E-005  0.1151186E+03  0.7546771E-02  0.1257426E+00
          1   -1    0    0  502    0  0.00000000000E+00  0.00000000000E+00  0.92806544645E+03  0.92806544645E+03  0.00000000000E+00 0. -1.
         -2   -1    0    0    0  501 -0.00000000000E+00 -0.00000000000E+00 -0.27790270565E+02  0.27790270565E+02  0.00000000000E+00 0.  1.
        -24    2    1    2    0    0  0.26491984316E+02  0.90406961233E+02  0.43693400805E+03  0.45308117565E+03  0.74134880209E+02 0.  0.
         23    2    1    2    0    0  0.32331140512E+02 -0.50239110780E+02  0.36764448747E+03  0.38347881279E+03  0.91237381543E+02 0.  0.
         11    1    3    3    0    0  0.28601105981E+02  0.14114815982E+02  0.54848736465E+02  0.63447893467E+02  0.00000000000E+00 0. -1.
        -12    1    3    3    0    0 -0.21091216648E+01  0.76292145251E+02  0.38208527159E+03  0.38963328218E+03  0.00000000000E+00 0.  1.
        -11    1    4    4    0    0 -0.24426440621E+02 -0.37782353125E+02  0.22497535680E+03  0.22942987682E+03  0.00000000000E+00 0.  1.
         11    1    4    4    0    0  0.56757581133E+02 -0.12456757655E+02  0.14266913067E+03  0.15404893597E+03  0.00000000000E+00 0. -1.
         21    1    1    2  502  501 -0.58823124828E+02 -0.40167850453E+02  0.95696680364E+02  0.11929572858E+03  0.00000000000E+00 0.  1.
<scales pt_clust_5="13000.00000" pt_clust_6="13000.00000" pt_clust_7="13000.00000" pt_clust_8="13000.00000" pt_clust_9="71.22932"></scales>
<clustering>
<clus scale="   71.229">  2  9  1 -1</clus>
<clus scale="   74.135">  5  6 -1 -1</clus>
<clus scale="   91.237">  7  8 -1 -1</clus>
<clus scale="  102.098">  2  5  1 -1</clus>
<clus scale="  115.119">  1  5  2 -1</clus>
</clustering>
</event>
<event>
 9    1  0.2951046E-005  0.8921507E+02  0.7546771E-02  0.1306532E+00
          1   -1    0    0  502    0  0.00000000000E+00  0.00000000000E+00  0.46071953701E+03  0.46071953701E+03  0.00000000000E+00 0. -1.
         -2   -1    0    0    0  501 -0.00000000000E+00 -0.00000000000E+00 -0.51005397556E+02  0.51005397556E+02  0.00000000000E+00 0.  1.
         23    2    1    2    0    0 -0.43775352707E+02  0.39684239422E+02  0.62404302986E+02  0.12098658090E+03  0.85160644449E+02 0.  0.
        -24    2    1    2    0    0 -0.16722897865E+02 -0.22943655234E+02  0.29940581447E+03  0.31177582582E+03  0.82184288011E+02 0.  0.
         13    1    4    4    0    0  0.14853514900E+02 -0.45487536015E+02  0.17811914540E+03  0.18443473859E+03  0.00000000000E+00 0. -1.
        -14    1    4    4    0    0 -0.31576412765E+02  0.22543880781E+02  0.12128666907E+03  0.12734108723E+03  0.00000000000E+00 0.  1.
        -11    1    3    3    0    0 -0.12715144836E+02  0.51592246260E+02  0.33915730300E+01  0.53244131601E+02  0.00000000000E+00 0.  1.
         11    1    3    3    0    0 -0.31060207871E+02 -0.11908006838E+02  0.59012729956E+02  0.67742449296E+02  0.00000000000E+00 0. -1.
         21    1    1    2  502  501  0.60498250571E+02 -0.16740584189E+02  0.47904021994E+02  0.78962527849E+02  0.00000000000E+00 0.  1.
<scales pt_clust_5="13000.00000" pt_clust_6="13000.00000" pt_clust_7="13000.00000" pt_clust_8="13000.00000" pt_clust_9="62.77169"></scales>
<clustering>
<clus scale="   62.772">  2  9  1 -1</clus>
<clus scale="   82.184">  5  6 -1 -1</clus>
<clus scale="   85.161">  7  8 -1 -1</clus>
<clus scale="   86.379">  1  5  2 -1</clus>
<clus scale="   86.379">  1  5  2 -1</clus>
</clustering>
</event>
<event>
 9    1  0.2951046E-005  0.9004872E+02  0.7546771E-02  0.1305324E+00
          1   -1    0    0  502    0  0.00000000000E+00  0.00000000000E+00  0.12060210804E+03  0.12060210804E+03  0.00000000000E+00 0. -1.
         -2   -1    0    0    0  501 -0.00000000000E+00 -0.00000000000E+00 -0.10615047867E+03  0.10615047867E+03  0.00000000000E+00 0.  1.
        -24    2    1    2    0    0 -0.40681095421E+01  0.11118887264E+02 -0.47617943804E+02  0.98615878501E+02  0.85542058376E+02 0.  0.
         23    2    1    2    0    0 -0.12077491007E+02  0.30282445562E+01  0.48776630446E+02  0.10288746896E+03  0.89730906257E+02 0.  0.
         11    1    3    3    0    0 -0.40040307449E+02  0.23297643082E+02 -0.15413850845E+02  0.48822056406E+02  0.00000000000E+00 0. -1.
        -12    1    3    3    0    0  0.35972197907E+02 -0.12178755818E+02 -0.32204092959E+02  0.49793822095E+02  0.00000000000E+00 0.  1.
        -13    1    4    4    0    0 -0.50013188667E+02 -0.65776423006E+01  0.19784515105E+02  0.54184974456E+02  0.00000000000E+00 0.  1.
         13    1    4    4    0    0  0.37935697660E+02  0.96058868568E+01  0.28992115341E+02  0.48702494507E+02  0.00000000000E+00 0. -1.
         21    1    1    2  502  501  0.16145600549E+02 -0.14147131820E+02  0.13292942725E+02  0.25249239239E+02  0.00000000000E+00 0.  1.
<scales pt_clust_5="13000.00000" pt_clust_6="13000.00000" pt_clust_7="13000.00000" pt_clust_8="13000.00000" pt_clust_9="21.46676"></scales>
<clustering>
<clus scale="   21.467">  1  9  2 -1</clus>
<clus scale="   85.542">  5  6 -1 -1</clus>
<clus scale="   85.875">  2  5  1 -1</clus>
<clus scale="   89.731">  7  8 -1 -1</clus>
<clus scale="   21.467">  1  5  2 -1</clus>
</clustering>
</event>
<event>
 9    1  0.2951046E-005  0.9180244E+02  0.7546771E-02  0.1304155E+00
          1   -1    0    0  502    0  0.00000000000E+00  0.00000000000E+00  0.51891923971E+02  0.51891923971E+02  0.00000000000E+00 0. -1.
         -2   -1    0    0    0  501 -0.00000000000E+00 -0.00000000000E+00 -0.38263127204E+03  0.38263127204E+03  0.00000000000E+00 0.  1.
        -24    2    1    2    0    0 -0.11325065510E+02  0.18612468354E+02 -0.27461466758E+03  0.28672714990E+03  0.79527113336E+02 0.  0.
         23    2    1    2    0    0  0.37849625666E+02 -0.60225097251E+01 -0.65636375648E+02  0.11693293391E+03  0.88861197595E+02 0.  0.
         11    1    3    3    0    0 -0.26574586027E+01  0.46037363656E+02 -0.22224826708E+03  0.22698192254E+03  0.00000000000E+00 0. -1.
        -12    1    3    3    0    0 -0.86676069074E+01 -0.27424895302E+02 -0.52366400494E+02  0.59745227362E+02  0.00000000000E+00 0.  1.
        -13    1    4    4    0    0 -0.32017634018E+01  0.36702131122E+02 -0.32012581221E+02  0.48806793321E+02  0.00000000000E+00 0.  1.
         13    1    4    4    0    0  0.41051389068E+02 -0.42724640847E+02 -0.33623794427E+02  0.68126140589E+02  0.00000000000E+00 0. -1.
         21    1    1    2  502  501 -0.26524560156E+02 -0.12589958629E+02  0.95116951579E+01  0.30863112197E+02  0.00000000000E+00 0.  1.
<scales pt_clust_5="13000.00000" pt_clust_6="13000.00000" pt_clust_7="13000.00000" pt_clust_8="13000.00000" pt_clust_9="29.36085"></scales>
<clustering>
<clus scale="   29.361">  1  9  2 -1</clus>
<clus scale="   79.527">  5  6 -1 -1</clus>
<clus scale="   82.801">  2  5  1 -1</clus>
<clus scale="   88.861">  7  8 -1 -1</clus>
<clus scale="   29.361">  1  5  2 -1</clus>
</clustering>
</event>
<event>
 9    1  0.2951046E-005  0.1476338E+03  0.7546771E-02  0.1205015E+00
         -2   -1    0    0    0  501 -0.00000000000E+00  0.00000000000E+00  0.28512510876E+03  0.28512510876E+03  0.00000000000E+00 0.  1.
          1   -1    0    0  502    0  0.00000000000E+00 -0.00000000000E+00 -0.46745865136E+03  0.46745865136E+03  0.00000000000E+00 0. -1.
        -24    2    1    2    0    0  0.88108669020E+02  0.74004532536E+02  0.24179676847E+03  0.28039693150E+03  0.83168224454E+02 0.  0.
         23    2    1    2    0    0 -0.80726898059E+02 -0.10118425882E+03 -0.25160880836E+03  0.29738151702E+03  0.91507857133E+02 0.  0.
         13    1    3    3    0    0  0.69507196018E+02  0.43030319499E+01  0.11145923984E+03  0.13142651379E+03  0.00000000000E+00 0. -1.
        -14    1    3    3    0    0  0.18601473003E+02  0.69701500586E+02  0.13033752863E+03  0.14897041771E+03  0.00000000000E+00 0.  1.
        -13    1    4    4    0    0 -0.71804944255E+02 -0.61185438765E+02 -0.23487972090E+03  0.25311675414E+03  0.00000000000E+00 0. -1.
         13    1    4    4    0    0 -0.89219538032E+01 -0.39998820057E+02 -0.16729087462E+02  0.44264762881E+02  0.00000000000E+00 0.  1.
         21    1    1    2  502  501 -0.73817709615E+01  0.27179726287E+02 -0.17252150271E+03  0.17480531159E+03  0.00000000000E+00 0.  1.
<scales pt_clust_5="13000.00000" pt_clust_6="13000.00000" pt_clust_7="13000.00000" pt_clust_8="13000.00000" pt_clust_9="28.16430"></scales>
<clustering>
<clus scale="   28.164">  2  9  1 -1</clus>
<clus scale="   83.168">  5  6 -1 -1</clus>
<clus scale="   91.508">  7  8 -1 -1</clus>
<clus scale="  142.615">  1  5  2 -1</clus>
<clus scale="   28.164">  2  5  1 -1</clus>
</clustering>
</event>
<event>
 9    1  0.2951046E-005  0.9435368E+02  0.7546771E-02  0.1295810E+00
          1   -1    0    0  502    0  0.00000000000E+00  0.00000000000E+00  0.92981112140E+03  0.92981112140E+03  0.00000000000E+00 0. -1.
         -2   -1    0    0    0  501 -0.00000000000E+00 -0.00000000000E+00 -0.22929208634E+02  0.22929208634E+02  0.00000000000E+00 0.  1.
         23    2    1    2    0    0  0.18090633279E+02 -0.31584789905E+01  0.11081595865E+03  0.14446135593E+03  0.90838646304E+02 0.  0.
        -24    2    1    2    0    0 -0.53539965378E+02  0.12337000287E+02  0.51966992600E+03  0.52946781085E+03  0.85209161882E+02 0.  0.
         13    1    4    4    0    0 -0.89419516643E+01  0.21299179276E+02  0.30871736912E+02  0.38557459426E+02  0.00000000000E+00 0. -1.
        -14    1    4    4    0    0 -0.44598013714E+02 -0.89621789898E+01  0.48879818909E+03  0.49091035143E+03  0.00000000000E+00 0.  1.
        -13    1    3    3    0    0 -0.84524529990E+01 -0.41492022960E+02  0.32750117153E+02  0.53531318913E+02  0.00000000000E+00 0.  1.
         13    1    3    3    0    0  0.26543086278E+02  0.38333543970E+02  0.78065841500E+02  0.90930037015E+02  0.00000000000E+00 0. -1.
         21    1    1    2  502  501  0.35449332100E+02 -0.91785212962E+01  0.27639602811E+03  0.27881116326E+03  0.00000000000E+00 0. -1.
<scales pt_clust_5="13000.00000" pt_clust_6="13000.00000" pt_clust_7="13000.00000" pt_clust_8="13000.00000" pt_clust_9="36.61831"></scales>
<clustering>
<clus scale="   36.618">  1  9  2 -1</clus>
<clus scale="   85.209">  5  6 -1 -1</clus>
<clus scale="   88.947">  1  5  2 -1</clus>
<clus scale="   90.839">  7  8 -1 -1</clus>
<clus scale="   36.618">  1  5  2 -1</clus>
</clustering>
</event>
<event>
 9    1  0.2951046E-005  0.1453276E+03  0.7546771E-02  0.1212194E+00
         -2   -1    0    0    0  501 -0.00000000000E+00  0.00000000000E+00  0.18623846421E+03  0.18623846421E+03  0.00000000000E+00 0.  1.
          1   -1    0    0  502    0  0.00000000000E+00 -0.00000000000E+00 -0.10223064612E+04  0.10223064612E+04  0.00000000000E+00 0. -1.
         23    2    1    2    0    0  0.86391371300E+01  0.11749362706E+03  0.14860514976E+03  0.20950282803E+03  0.89042446765E+02 0.  0.
        -24    2    1    2    0    0 -0.39771680316E+02 -0.47167543604E+02 -0.66319181784E+03  0.66848916954E+03  0.56989637857E+02 0.  0.
         11    1    4    4    0    0 -0.38329495828E+02 -0.48479650616E+02 -0.35828258878E+03  0.36357370669E+03  0.00000000000E+00 0. -1.
        -12    1    4    4    0    0 -0.14421844882E+01  0.13121070118E+01 -0.30490922906E+03  0.30491546285E+03  0.00000000000E+00 0.  1.
        -13    1    3    3    0    0  0.26659026640E+02  0.45623900367E+02  0.11808492391E+03  0.12936882639E+03  0.00000000000E+00 0. -1.
         13    1    3    3    0    0 -0.18019889510E+02  0.71869726691E+02  0.30520225852E+02  0.80134001638E+02  0.00000000000E+00 0.  1.
         21    1    1    2  502  501  0.31132543186E+02 -0.70326083454E+02 -0.32148132890E+03  0.33055292782E+03  0.00000000000E+00 0.  1.
<scales pt_clust_5="13000.00000" pt_clust_6="13000.00000" pt_clust_7="13000.00000" pt_clust_8="13000.00000" pt_clust_9="76.90899"></scales>
<clustering>
<clus scale="   56.990">  5  6 -1 -1</clus>
<clus scale="   76.909">  2  9  1 -1</clus>
<clus scale="   89.042">  7  8 -1 -1</clus>
<clus scale="  128.216">  2  5  1 -1</clus>
<clus scale="   76.909">  2  5  1 -1</clus>
</clustering>
</event>
<event>
 9    1  0.2951046E-005  0.9755034E+02  0.7546771E-02  0.1287202E+00
         -2   -1    0    0    0  501 -0.00000000000E+00  0.00000000000E+00  0.11317859981E+03  0.11317859981E+03  0.00000000000E+00 0.  1.
          1   -1    0    0  502    0  0.00000000000E+00 -0.00000000000E+00 -0.16449757914E+03  0.16449757914E+03  0.00000000000E+00 0. -1.
         23    2    1    2    0    0 -0.41614780424E+02  0.32820927656E+02  0.41028153929E+02  0.11232491702E+03  0.90136420650E+02 0.  0.
        -24    2    1    2    0    0  0.32102160982E+01 -0.88527172354E+00 -0.53427485130E+02  0.10203036734E+03  0.86859717351E+02 0.  0.
         13    1    4    4    0    0 -0.40726929446E+02 -0.50401694334E+01 -0.15594980810E+02  0.43900905645E+02  0.00000000000E+00 0. -1.
        -14    1    4    4    0    0  0.43937145544E+02  0.41548977098E+01 -0.37832504321E+02  0.58129461693E+02  0.00000000000E+00 0.  1.
        -11    1    3    3    0    0 -0.65353713782E+02  0.15423354097E+02  0.72745283058E+01  0.67541887142E+02  0.00000000000E+00 0. -1.
         11    1    3    3    0    0  0.23738933357E+02  0.17397573560E+02  0.33753625623E+02  0.44783029882E+02  0.00000000000E+00 0.  1.
         21    1    1    2  502  501  0.38404564326E+02 -0.31935655933E+02 -0.38919648123E+02  0.63320894584E+02  0.00000000000E+00 0. -1.
<scales pt_clust_5="13000.00000" pt_clust_6="13000.00000" pt_clust_7="13000.00000" pt_clust_8="13000.00000" pt_clust_9="49.94794"></scales>
<clustering>
<clus scale="   49.948">  2  9  1 -1</clus>
<clus scale="   86.860">  5  6 -1 -1</clus>
<clus scale="   90.136">  7  8 -1 -1</clus>
<clus scale="   94.531">  2  5  1 -1</clus>
<clus scale="   49.948">  2  5  1 -1</clus>
</clustering>
</event>
<event>
 9    1  0.2951046E-005  0.1051826E+03  0.7546771E-02  0.1274035E+00
          1   -1    0    0  502    0  0.00000000000E+00  0.00000000000E+00  0.12704943992E+03  0.12704943992E+03  0.00000000000E+00 0. -1.
         -2   -1    0    0    0  501 -0.00000000000E+00 -0.00000000000E+00 -0.15267856947E+03  0.15267856947E+03  0.00000000000E+00 0.  1.
         23    2    1    2    0    0  0.43771673329E+02  0.36562170623E+02 -0.89211941366E+02  0.13990544963E+03  0.91444041074E+02 0.  0.
        -24    2    1    2    0    0 -0.42746159256E+02 -0.44028798376E+01  0.46356667619E+02  0.10332582420E+03  0.81735340164E+02 0.  0.
         13    1    4    4    0    0 -0.31705135925E+02  0.23153287463E+02  0.59156197641E+02  0.70998211834E+02  0.00000000000E+00 0. -1.
        -14    1    4    4    0    0 -0.11041023331E+02 -0.27556167300E+02 -0.12799530021E+02  0.32327612365E+02  0.00000000000E+00 0.  1.
        -11    1    3    3    0    0  0.24661577457E+02  0.67172357274E+02 -0.56029744046E+02  0.90882623214E+02  0.00000000000E+00 0. -1.
         11    1    3    3    0    0  0.19110095872E+02 -0.30610186651E+02 -0.33182197320E+02  0.49022826418E+02  0.00000000000E+00 0.  1.
         21    1    1    2  502  501 -0.10255140731E+01 -0.32159290785E+02  0.17226144196E+02  0.36496735563E+02  0.00000000000E+00 0. -1.
<scales pt_clust_5="13000.00000" pt_clust_6="13000.00000" pt_clust_7="13000.00000" pt_clust_8="13000.00000" pt_clust_9="32.17564"></scales>
<clustering>
<clus scale="   32.176">  1  9  2 -1</clus>
<clus scale="   81.735">  5  6 -1 -1</clus>
<clus scale="   91.444">  7  8 -1 -1</clus>
<clus scale="   96.861">  1  5  2 -1</clus>
<clus scale="   32.176">  1  5  2 -1</clus>
</clustering>
</event>
<event>
 9    1  0.2951046E-005  0.1058312E+03  0.7546771E-02  0.1269012E+00
         -2   -1    0    0    0  501 -0.00000000000E+00  0.00000000000E+00  0.11298505162E+03  0.11298505162E+03  0.00000000000E+00 0.  1.
          1   -1    0    0  502    0  0.00000000000E+00 -0.00000000000E+00 -0.36584366765E+03  0.36584366765E+03  0.00000000000E+00 0. -1.
        -24    2    1    2    0    0 -0.23992991695E+02 -0.12030623440E+02  0.70676040177E+02  0.12203205645E+03  0.95793113503E+02 0.  0.
         23    2    1    2    0    0  0.28545219652E+02  0.37165053476E+02 -0.31081863814E+03  0.32826318305E+03  0.94617232922E+02 0.  0.
         13    1    3    3    0    0  0.47827515778E+01 -0.26045405796E+02 -0.15096717766E+02  0.30481941589E+02  0.00000000000E+00 0. -1.
        -14    1    3    3    0    0 -0.28775743273E+02  0.14014782355E+02  0.85772757942E+02  0.91550114858E+02  0.00000000000E+00 0.  1.
        -11    1    4    4    0    0 -0.20967306439E+02 -0.15761115867E+02 -0.39385457138E+02  0.47320766547E+02  0.00000000000E+00 0.  1.
         11    1    4    4    0    0  0.49512526091E+02  0.52926169342E+02 -0.27143318100E+03  0.28094241650E+03  0.00000000000E+00 0. -1.
         21    1    1    2  502  501 -0.45522279569E+01 -0.25134430035E+02 -0.12716018069E+02  0.28533479775E+02  0.00000000000E+00 0.  1.
<scales pt_clust_5="13000.00000" pt_clust_6="13000.00000" pt_clust_7="13000.00000" pt_clust_8="13000.00000" pt_clust_9="25.54334"></scales>
<clustering>
<clus scale="   25.543">  1  9  2 -1</clus>
<clus scale="   94.617">  7  8 -1 -1</clus>
<clus scale="   95.793">  5  6 -1 -1</clus>
<clus scale="  104.768">  2  7  1 -1</clus>
<clus scale="  104.768">  2  5  1 -1</clus>
</clustering>
</event>
<event>
 9    1  0.2951046E-005  0.2449776E+03  0.7546771E-02  0.1117641E+00
         -2   -1    0    0    0  501 -0.00000000000E+00  0.00000000000E+00  0.45796624303E+03  0.45796624303E+03  0.00000000000E+00 0.  1.
          1   -1    0    0  502    0  0.00000000000E+00 -0.00000000000E+00 -0.17466035124E+03  0.17466035124E+03  0.00000000000E+00 0. -1.
        -24    2    1    2    0    0 -0.97104946690E+02 -0.17182610964E+03  0.22012733931E+03  0.30595623674E+03  0.78737479403E+02 0.  0.
         23    2    1    2    0    0  0.14838490909E+03  0.18932816148E+03  0.25707697944E+02  0.26079151949E+03  0.97406862850E+02 0.  0.
         11    1    3    3    0    0 -0.34605695214E+02 -0.13248934452E+03  0.12397930202E+03  0.18472100012E+03  0.00000000000E+00 0. -1.
        -12    1    3    3    0    0 -0.62499251476E+02 -0.39336765111E+02  0.96148037290E+02  0.12123523662E+03  0.00000000000E+00 0.  1.
        -13    1    4    4    0    0  0.13058948428E+03  0.15816954865E+03 -0.16044155795E+02  0.20573923900E+03  0.00000000000E+00 0. -1.
         13    1    4    4    0    0  0.17795424804E+02  0.31158612827E+02  0.41751853739E+02  0.55052280496E+02  0.00000000000E+00 0.  1.
         21    1    1    2  502  501 -0.51279962399E+02 -0.17502051846E+02  0.37470854536E+02  0.65878838044E+02  0.00000000000E+00 0.  1.
<scales pt_clust_5="13000.00000" pt_clust_6="13000.00000" pt_clust_7="13000.00000" pt_clust_8="13000.00000" pt_clust_9="54.18447"></scales>
<clustering>
<clus scale="   54.184">  1  9  2 -1</clus>
<clus scale="   78.737">  5  6 -1 -1</clus>
<clus scale="   97.407">  7  8 -1 -1</clus>
<clus scale="  238.171">  1  5  2 -1</clus>
<clus scale="  244.978">  2  5  1 -1</clus>
</clustering>
</event>
<event>
 9    1  0.2951046E-005  0.1342166E+03  0.7546771E-02  0.1222370E+00
         -2   -1    0    0    0  501 -0.00000000000E+00  0.00000000000E+00  0.19250467681E+03  0.19250467681E+03  0.00000000000E+00 0.  1.
          1   -1    0    0  502    0  0.00000000000E+00 -0.00000000000E+00 -0.19715905967E+03  0.19715905967E+03  0.00000000000E+00 0. -1.
        -24    2    1    2    0    0  0.61822034628E+02 -0.11590043040E+03  0.83063820514E+02  0.17615566740E+03  0.82923742959E+02 0.  0.
         23    2    1    2    0    0 -0.52643204859E+02  0.79248139679E+02 -0.10995738836E+03  0.16966490906E+03  0.87429854470E+02 0.  0.
         13    1    3    3    0    0 -0.17308159001E+02 -0.35037571551E+02  0.37579009897E+02  0.54216102525E+02  0.00000000000E+00 0. -1.
        -14    1    3    3    0    0  0.79130193629E+02 -0.80862858853E+02  0.45484810617E+02  0.12193956488E+03  0.00000000000E+00 0.  1.
        -11    1    4    4    0    0 -0.55554719383E+02  0.49408892069E+02 -0.11722674431E+03  0.13881525508E+03  0.00000000000E+00 0. -1.
         11    1    4    4    0    0  0.29115145243E+01  0.29839247610E+02  0.72693559556E+01  0.30849653981E+02  0.00000000000E+00 0.  1.
         21    1    1    2  502  501 -0.91788297695E+01  0.36652290725E+02  0.22239184986E+02  0.43843160016E+02  0.00000000000E+00 0.  1.
<scales pt_clust_5="13000.00000" pt_clust_6="13000.00000" pt_clust_7="13000.00000" pt_clust_8="13000.00000" pt_clust_9="37.78414"></scales>
<clustering>
<clus scale="   37.784">  1  9  2 -1</clus>
<clus scale="   82.924">  5  6 -1 -1</clus>
<clus scale="   87.430">  7  8 -1 -1</clus>
<clus scale="  131.326">  1  5  2 -1</clus>
<clus scale="  134.217">  2  5  1 -1</clus>
</clustering>
</event>
<event>
 9    1  0.2951046E-005  0.1444937E+03  0.7546771E-02  0.1213071E+00
          1   -1    0    0  502    0  0.00000000000E+00  0.00000000000E+00  0.67959734387E+03  0.67959734387E+03  0.00000000000E+00 0. -1.
         -2   -1    0    0    0  501 -0.00000000000E+00 -0.00000000000E+00 -0.35524154643E+02  0.35524154643E+02  0.00000000000E+00 0.  1.
         23    2    1    2    0    0 -0.59050331121E+02  0.88436304886E+02  0.21369595315E+03  0.26143294030E+03  0.10664567620E+03 0.  0.
        -24    2    1    2    0    0  0.50171484210E+02 -0.68742123017E+02  0.32350397052E+03  0.34465374903E+03  0.82998376359E+02 0.  0.
         11    1    4    4    0    0 -0.19430939997E+02 -0.32902206478E+02  0.76034829429E+02  0.85096485865E+02  0.00000000000E+00 0. -1.
        -12    1    4    4    0    0  0.69602424207E+02 -0.35839916540E+02  0.24746914109E+03  0.25955726317E+03  0.00000000000E+00 0.  1.
        -13    1    3    3    0    0 -0.30715761620E+02 -0.47307382492E+00  0.13770628250E+03  0.14109111259E+03  0.00000000000E+00 0.  1.
         13    1    3    3    0    0 -0.28334569501E+02  0.88909378711E+02  0.75989670652E+02  0.12034182771E+03  0.00000000000E+00 0. -1.
         21    1    1    2  502  501  0.88788469116E+01 -0.19694181869E+02  0.10687326555E+03  0.10903480917E+03  0.00000000000E+00 0. -1.
<scales pt_clust_5="13000.00000" pt_clust_6="13000.00000" pt_clust_7="13000.00000" pt_clust_8="13000.00000" pt_clust_9="21.60312"></scales>
<clustering>
<clus scale="   21.603">  1  9  2 -1</clus>
<clus scale="   82.998">  5  6 -1 -1</clus>
<clus scale="  106.646">  7  8 -1 -1</clus>
<clus scale="  128.038">  1  5  2 -1</clus>
<clus scale="   21.603">  1  5  2 -1</clus>
</clustering>
</event>
<event>
 9    1  0.2951046E-005  0.9374803E+02  0.7546771E-02  0.1297624E+00
          1   -1    0    0  502    0  0.00000000000E+00  0.00000000000E+00  0.30238846810E+03  0.30238846810E+03  0.00000000000E+00 0. -1.
         -2   -1    0    0    0  501 -0.00000000000E+00 -0.00000000000E+00 -0.16974699672E+03  0.16974699672E+03  0.00000000000E+00 0.  1.
        -24    2    1    2    0    0 -0.14883802737E+02 -0.22531134672E+02 -0.13118045906E+03  0.15853704547E+03  0.84832201038E+02 0.  0.
         23    2    1    2    0    0 -0.51803665629E+01 -0.82242789200E+01  0.67282562780E+02  0.11365795473E+03  0.91086291273E+02 0.  0.
         11    1    3    3    0    0 -0.28505744405E+02 -0.39654127040E+02 -0.35472877304E+02  0.60360187869E+02  0.00000000000E+00 0. -1.
        -12    1    3    3    0    0  0.13621941668E+02  0.17122992367E+02 -0.95707581756E+02  0.98176857599E+02  0.00000000000E+00 0.  1.
        -13    1    4    4    0    0 -0.31119096257E+02 -0.28461743856E+02  0.68830189689E+02  0.80722140877E+02  0.00000000000E+00 0.  1.
         13    1    4    4    0    0  0.25938729694E+02  0.20237464936E+02 -0.15476269084E+01  0.32935813854E+02  0.00000000000E+00 0. -1.
         21    1    1    2  502  501  0.20064169300E+02  0.30755413592E+02  0.19653936765E+03  0.19994046462E+03  0.00000000000E+00 0. -1.
<scales pt_clust_5="13000.00000" pt_clust_6="13000.00000" pt_clust_7="13000.00000" pt_clust_8="13000.00000" pt_clust_9="36.72147"></scales>
<clustering>
<clus scale="   36.721">  1  9  2 -1</clus>
<clus scale="   84.832">  5  6 -1 -1</clus>
<clus scale="   87.684">  2  5  1 -1</clus>
<clus scale="   91.086">  7  8 -1 -1</clus>
<clus scale="   36.721">  1  5  2 -1</clus>
</clustering>
</event>
<event>
 9    1  0.2951046E-005  0.1324612E+03  0.7546771E-02  0.1226509E+00
          1   -1    0    0  502    0  0.00000000000E+00  0.00000000000E+00  0.70640858366E+03  0.70640858366E+03  0.00000000000E+00 0. -1.
         -2   -1    0    0    0  501 -0.00000000000E+00 -0.00000000000E+00 -0.61974999562E+02  0.61974999562E+02  0.00000000000E+00 0.  1.
         23    2    1    2    0    0 -0.91265213409E+02 -0.40735387750E+02  0.30292439428E+02  0.13849183118E+03  0.90959575764E+02 0.  0.
        -24    2    1    2    0    0  0.63316044011E+02  0.37072871992E+02  0.53359009283E+03  0.54455101122E+03  0.80212825566E+02 0.  0.
         11    1    4    4    0    0  0.76493400760E+02  0.49068224096E+02  0.44336583677E+03  0.45258391066E+03  0.00000000000E+00 0. -1.
        -12    1    4    4    0    0 -0.13177356750E+02 -0.11995352104E+02  0.90224256065E+02  0.91967100561E+02  0.00000000000E+00 0.  1.
        -13    1    3    3    0    0 -0.26919543257E+02  0.18164780248E+02 -0.19666587882E+02  0.37965717819E+02  0.00000000000E+00 0.  1.
         13    1    3    3    0    0 -0.64345670152E+02 -0.58900167998E+02  0.49959027310E+02  0.10052611336E+03  0.00000000000E+00 0. -1.
         21    1    1    2  502  501  0.27949169399E+02  0.36625157580E+01  0.80551051836E+02  0.85340740819E+02  0.00000000000E+00 0.  1.
<scales pt_clust_5="13000.00000" pt_clust_6="13000.00000" pt_clust_7="13000.00000" pt_clust_8="13000.00000" pt_clust_9="28.18812"></scales>
<clustering>
<clus scale="   28.188">  1  9  2 -1</clus>
<clus scale="   80.213">  5  6 -1 -1</clus>
<clus scale="   90.960">  7  8 -1 -1</clus>
<clus scale="  125.325">  1  5  2 -1</clus>
<clus scale="   28.188">  1  5  2 -1</clus>
</clustering>
</event>
<event>
 9    1  0.2951046E-005  0.1620605E+03  0.7546771E-02  0.1188201E+00
         -2   -1    0    0    0  501 -0.00000000000E+00  0.00000000000E+00  0.35416277467E+03  0.35416277467E+03  0.00000000000E+00 0.  1.
          1   -1    0    0  502    0  0.00000000000E+00 -0.00000000000E+00 -0.13782088094E+03  0.13782088094E+03  0.00000000000E+00 0. -1.
         23    2    1    2    0    0 -0.12573786819E+03  0.20139132567E+02  0.19281765420E+03  0.24922907021E+03  0.93385681495E+02 0.  0.
        -24    2    1    2    0    0  0.13214066274E+03 -0.63635706571E+02  0.67107337918E+02  0.18084792831E+03  0.81804159253E+02 0.  0.
         11    1    4    4    0    0  0.12123166739E+03 -0.73400262833E+02  0.35627762366E+02  0.14613026111E+03  0.00000000000E+00 0. -1.
        -12    1    4    4    0    0  0.10908995350E+02  0.97645562620E+01  0.31479575552E+02  0.34717667195E+02  0.00000000000E+00 0.  1.
        -13    1    3    3    0    0 -0.36032874430E+02  0.88064863989E+01  0.92919715232E+00  0.37105062320E+02  0.00000000000E+00 0. -1.
         13    1    3    3    0    0 -0.89704993758E+02  0.11332646168E+02  0.19188845705E+03  0.21212400789E+03  0.00000000000E+00 0.  1.
         21    1    1    2  502  501 -0.64027945501E+01  0.43496574004E+02 -0.43583098387E+02  0.61906657099E+02  0.00000000000E+00 0. -1.
<scales pt_clust_5="13000.00000" pt_clust_6="13000.00000" pt_clust_7="13000.00000" pt_clust_8="13000.00000" pt_clust_9="43.96530"></scales>
<clustering>
<clus scale="   43.965">  2  9  1 -1</clus>
<clus scale="   81.804">  5  6 -1 -1</clus>
<clus scale="   93.386">  7  8 -1 -1</clus>
<clus scale="  155.675">  2  5  1 -1</clus>
<clus scale="   43.965">  2  5  1 -1</clus>
</clustering>
</event>
<event>
 9    1  0.2951046E-005  0.1039491E+03  0.7546771E-02  0.1276283E+00
          1   -1    0    0  502    0  0.00000000000E+00  0.00000000000E+00  0.30265281516E+03  0.30265281516E+03  0.00000000000E+00 0. -1.
         -2   -1    0    0    0  501 -0.00000000000E+00 -0.00000000000E+00 -0.54018078726E+02  0.54018078726E+02  0.00000000000E+00 0.  1.
        -24    2    1    2    0    0  0.38201204300E+02 -0.13708507485E+02  0.40064922490E+02  0.10008784261E+03  0.82250368002E+02 0.  0.
         23    2    1    2    0    0 -0.64961899930E+02  0.27429679923E+02  0.13790318605E+03  0.17978345686E+03  0.91281799153E+02 0.  0.
         11    1    3    3    0    0  0.25525431963E+02  0.32006318098E+02  0.32014443536E+02  0.51969959303E+02  0.00000000000E+00 0. -1.
        -12    1    3    3    0    0  0.12675772337E+02 -0.45714825583E+02  0.80504789539E+01  0.48117883305E+02  0.00000000000E+00 0.  1.
        -13    1    4    4    0    0 -0.28755485148E+02 -0.11480336959E+02 -0.10829641317E+01  0.30981427890E+02  0.00000000000E+00 0.  1.
         13    1    4    4    0    0 -0.36206414783E+02  0.38910016881E+02  0.13898615018E+03  0.14880202898E+03  0.00000000000E+00 0. -1.
         21    1    1    2  502  501  0.26760695630E+02 -0.13721172437E+02  0.70666627891E+02  0.76799594408E+02  0.00000000000E+00 0. -1.
<scales pt_clust_5="13000.00000" pt_clust_6="13000.00000" pt_clust_7="13000.00000" pt_clust_8="13000.00000" pt_clust_9="30.07333"></scales>
<clustering>
<clus scale="   30.073">  1  9  2 -1</clus>
<clus scale="   82.250">  5  6 -1 -1</clus>
<clus scale="   91.282">  7  8 -1 -1</clus>
<clus scale="   96.115">  2  5  1 -1</clus>
<clus scale="   30.073">  1  5  2 -1</clus>
</clustering>
</event>
<event>
 9    1  0.2951046E-005  0.1394195E+03  0.7546771E-02  0.1216993E+00
         -4   -1    0    0    0  501 -0.00000000000E+00  0.00000000000E+00  0.13106576693E+03  0.13106576693E+03  0.00000000000E+00 0.  1.
          3   -1    0    0  502    0  0.00000000000E+00 -0.00000000000E+00 -0.19076785439E+03  0.19076785439E+03  0.00000000000E+00 0. -1.
        -24    2    1    2    0    0  0.11020072800E+02 -0.83018091515E+02  0.91363617515E+01  0.11499170412E+03  0.78269875354E+02 0.  0.
         23    2    1    2    0    0 -0.54868640192E+01  0.12311162904E+03 -0.63333651255E+02  0.16599573070E+03  0.91415821102E+02 0.  0.
         13    1    3    3    0    0 -0.20752931851E+02 -0.69078397677E+02  0.25666320114E+02  0.76558926287E+02  0.00000000000E+00 0. -1.
        -14    1    3    3    0    0  0.31773004650E+02 -0.13939693838E+02 -0.16529958362E+02  0.38432777837E+02  0.00000000000E+00 0.  1.
        -11    1    4    4    0    0 -0.40988997129E+02  0.81179017124E+02 -0.13724680266E+02  0.91970090547E+02  0.00000000000E+00 0.  1.
         11    1    4    4    0    0  0.35502133109E+02  0.41932611915E+02 -0.49608970989E+02  0.74025640152E+02  0.00000000000E+00 0. -1.
         21    1    1    2  502  501 -0.55332087803E+01 -0.40093537523E+02 -0.55047979606E+01  0.40846186494E+02  0.00000000000E+00 0.  1.
<scales pt_clust_5="13000.00000" pt_clust_6="13000.00000" pt_clust_7="13000.00000" pt_clust_8="13000.00000" pt_clust_9="40.47355"></scales>
<clustering>
<clus scale="   40.474">  1  9  2 -1</clus>
<clus scale="   78.270">  5  6 -1 -1</clus>
<clus scale="   91.416">  7  8 -1 -1</clus>
<clus scale="  131.176">  1  5  2 -1</clus>
<clus scale="  139.420">  2  5  1 -1</clus>
</clustering>
</event>
<event>
 9    1  0.2951046E-005  0.1352799E+03  0.7546771E-02  0.1240316E+00
         -4   -1    0    0    0  501 -0.00000000000E+00  0.00000000000E+00  0.23086331399E+03  0.23086331399E+03  0.00000000000E+00 0.  1.
          3   -1    0    0  502    0  0.00000000000E+00 -0.00000000000E+00 -0.27964397081E+03  0.27964397081E+03  0.00000000000E+00 0. -1.
         23    2    1    2    0    0 -0.74149874836E+02 -0.40313562492E+02  0.13501183851E+01  0.12783733103E+03  0.96006109837E+02 0.  0.
        -24    2    1    2    0    0 -0.19782005361E+02  0.11319536919E+02 -0.19119553635E+03  0.21073066660E+03  0.85628389405E+02 0.  0.
         13    1    4    4    0    0 -0.40530370908E+02  0.18996837293E+02 -0.18085178787E+03  0.18630877587E+03  0.00000000000E+00 0. -1.
        -14    1    4    4    0    0  0.20748365547E+02 -0.76773003743E+01 -0.10343748488E+02  0.24421890727E+02  0.00000000000E+00 0.  1.
        -13    1    3    3    0    0 -0.62905651095E+02 -0.63782088193E+02 -0.22686504213E+02  0.92411867135E+02  0.00000000000E+00 0. -1.
         13    1    3    3    0    0 -0.11244223741E+02  0.23468525702E+02  0.24036622598E+02  0.35425463894E+02  0.00000000000E+00 0.  1.
         21    1    1    2  502  501  0.93931880197E+02  0.28994025572E+02  0.14106476114E+03  0.17193928717E+03  0.00000000000E+00 0.  1.
<scales pt_clust_5="13000.00000" pt_clust_6="13000.00000" pt_clust_7="13000.00000" pt_clust_8="13000.00000" pt_clust_9="95.30733"></scales>
<clustering>
<clus scale="   85.628">  5  6 -1 -1</clus>
<clus scale="   88.610">  2  5  1 -1</clus>
<clus scale="   95.307">  1  9  2 -1</clus>
<clus scale="   96.006">  7  8 -1 -1</clus>
<clus scale="   88.610">  2  5  1 -1</clus>
</clustering>
</event>
<event>
 9    1  0.2951046E-005  0.3266556E+03  0.7546771E-02  0.1117479E+00
          1   -1    0    0  502    0  0.00000000000E+00  0.00000000000E+00  0.16770475439E+03  0.16770475439E+03  0.00000000000E+00 0. -1.
         -2   -1    0    0    0  501 -0.00000000000E+00 -0.00000000000E+00 -0.96389748393E+03  0.96389748393E+03  0.00000000000E+00 0.  1.
        -24    2    1    2    0    0 -0.30330220800E+03  0.23449827044E+02 -0.50513721455E+03  0.59494286520E+03  0.79065059001E+02 0.  0.
         23    2    1    2    0    0 -0.38188391590E+02 -0.28345169436E+02 -0.25513667710E+02  0.10404838546E+03  0.88956828827E+02 0.  0.
         13    1    3    3    0    0 -0.77857556692E+02 -0.28308997214E+02 -0.12496766603E+03  0.14993370538E+03  0.00000000000E+00 0. -1.
        -14    1    3    3    0    0 -0.22544465131E+03  0.51758824257E+02 -0.38016954852E+03  0.44500915982E+03  0.00000000000E+00 0.  1.
        -13    1    4    4    0    0 -0.24562436083E+02 -0.41633862536E+00 -0.55605923470E+02  0.60790668109E+02  0.00000000000E+00 0.  1.
         13    1    4    4    0    0 -0.13625955508E+02 -0.27928830811E+02  0.30092255761E+02  0.43257717355E+02  0.00000000000E+00 0. -1.
         21    1    1    2  502  501  0.34149059960E+03  0.48953423922E+01 -0.26554184728E+03  0.43261098766E+03  0.00000000000E+00 0.  1.
<scales pt_clust_5="13000.00000" pt_clust_6="13000.00000" pt_clust_7="13000.00000" pt_clust_8="13000.00000" pt_clust_9="316.94256"></scales>
<clustering>
<clus scale="   79.065">  5  6 -1 -1</clus>
<clus scale="   88.957">  7  8 -1 -1</clus>
<clus scale="  100.872">  1  7  2 -1</clus>
<clus scale="  316.943">  1  9  2 -1</clus>
<clus scale="  100.872">  1  5  2 -1</clus>
</clustering>
</event>
<event>
 9    1  0.2951046E-005  0.2006620E+03  0.7546771E-02  0.1150220E+00
          3   -1    0    0  502    0  0.00000000000E+00  0.00000000000E+00  0.43516544955E+03  0.43516544955E+03  0.00000000000E+00 0. -1.
         -4   -1    0    0    0  501 -0.00000000000E+00 -0.00000000000E+00 -0.19057968322E+03  0.19057968322E+03  0.00000000000E+00 0.  1.
        -24    2    1    2    0    0  0.10786887505E+03 -0.15959146482E+03 -0.58865794080E+02  0.21658562723E+03  0.79617977609E+02 0.  0.
         23    2    1    2    0    0 -0.52597354332E+02  0.16927600654E+03  0.28933928531E+03  0.35129857175E+03  0.90953924696E+02 0.  0.
         11    1    3    3    0    0  0.66615367613E+02 -0.14804879026E+03 -0.30440427614E+02  0.16517466856E+03  0.00000000000E+00 0. -1.
        -12    1    3    3    0    0  0.41253507439E+02 -0.11542674558E+02 -0.28425366465E+02  0.51410958663E+02  0.00000000000E+00 0.  1.
        -11    1    4    4    0    0 -0.62938379304E+02  0.54389325126E+02  0.13588940477E+03  0.15932786512E+03  0.00000000000E+00 0. -1.
         11    1    4    4    0    0  0.10341024972E+02  0.11488668142E+03  0.15344988054E+03  0.19197070663E+03  0.00000000000E+00 0.  1.
         21    1    1    2  502  501 -0.55271520721E+02 -0.96845417220E+01  0.14112275106E+02  0.57860933797E+02  0.00000000000E+00 0. -1.
<scales pt_clust_5="13000.00000" pt_clust_6="13000.00000" pt_clust_7="13000.00000" pt_clust_8="13000.00000" pt_clust_9="56.11356"></scales>
<clustering>
<clus scale="   56.114">  2  9  1 -1</clus>
<clus scale="   79.618">  5  6 -1 -1</clus>
<clus scale="   90.954">  7  8 -1 -1</clus>
<clus scale="  195.785">  2  5  1 -1</clus>
<clus scale="  200.662">  1  5  2 -1</clus>
</clustering>
</event>
<event>
 9    1  0.2951046E-005  0.1567468E+03  0.7546771E-02  0.1194679E+00
          1   -1    0    0  502    0  0.00000000000E+00  0.00000000000E+00  0.18859995631E+03  0.18859995631E+03  0.00000000000E+00 0. -1.
         -2   -1    0    0    0  501 -0.00000000000E+00 -0.00000000000E+00 -0.15315399898E+03  0.15315399898E+03  0.00000000000E+00 0.  1.
        -24    2    1    2    0    0 -0.16489598994E+02  0.13149883669E+03 -0.29515755448E+02  0.15836137762E+03  0.81506411858E+02 0.  0.
         23    2    1    2    0    0  0.57217463632E+01 -0.11317127886E+03  0.45357238633E+02  0.15447577576E+03  0.94683733864E+02 0.  0.
         11    1    3    3    0    0 -0.12360813453E+02  0.18613139686E+02  0.24492566102E+02  0.33153046201E+02  0.00000000000E+00 0. -1.
        -12    1    3    3    0    0 -0.41287855407E+01  0.11288569701E+03 -0.54008321549E+02  0.12520833141E+03  0.00000000000E+00 0.  1.
        -11    1    4    4    0    0 -0.19314069198E+02 -0.56409061360E+02 -0.21394832920E+02  0.63346304929E+02  0.00000000000E+00 0.  1.
         11    1    4    4    0    0  0.25035815562E+02 -0.56762217505E+02  0.66752071554E+02  0.91129470829E+02  0.00000000000E+00 0. -1.
         21    1    1    2  502  501  0.10767852630E+02 -0.18327557828E+02  0.19604474151E+02  0.28916801915E+02  0.00000000000E+00 0.  1.
<scales pt_clust_5="13000.00000" pt_clust_6="13000.00000" pt_clust_7="13000.00000" pt_clust_8="13000.00000" pt_clust_9="21.25667"></scales>
<clustering>
<clus scale="   21.257">  1  9  2 -1</clus>
<clus scale="   81.506">  5  6 -1 -1</clus>
<clus scale="   94.684">  7  8 -1 -1</clus>
<clus scale="  149.157">  2  5  1 -1</clus>
<clus scale="   21.257">  1  5  2 -1</clus>
</clustering>
</event>
<event>
 9    1  0.2951046E-005  0.1050415E+03  0.7546771E-02  0.1275798E+00
          1   -1    0    0  502    0  0.00000000000E+00  0.00000000000E+00  0.12234485945E+03  0.12234485945E+03  0.00000000000E+00 0. -1.
         -2   -1    0    0    0  501 -0.00000000000E+00 -0.00000000000E+00 -0.10819358802E+03  0.10819358802E+03  0.00000000000E+00 0.  1.
         23    2    1    2    0    0 -0.47198850329E+02 -0.88800959016E+01 -0.18113940088E+02  0.10430827187E+03  0.90804808128E+02 0.  0.
        -24    2    1    2    0    0  0.61148011484E+02 -0.90043825602E+01  0.26575768135E+02  0.10284634715E+03  0.77787797604E+02 0.  0.
         13    1    4    4    0    0  0.73833418803E+02  0.36871524551E+01  0.36386765177E+02  0.82395178897E+02  0.00000000000E+00 0. -1.
        -14    1    4    4    0    0 -0.12685407319E+02 -0.12691535015E+02 -0.98109970428E+01  0.20451168252E+02  0.00000000000E+00 0.  1.
        -11    1    3    3    0    0 -0.46446673663E+02  0.16584554059E+02  0.24185343164E+02  0.54929698267E+02  0.00000000000E+00 0. -1.
         11    1    3    3    0    0 -0.75217666623E+00 -0.25464649961E+02 -0.42299283252E+02  0.49378573603E+02  0.00000000000E+00 0.  1.
         21    1    1    2  502  501 -0.13949161155E+02  0.17884478462E+02  0.56894433869E+01  0.23383828447E+02  0.00000000000E+00 0. -1.
<scales pt_clust_5="13000.00000" pt_clust_6="13000.00000" pt_clust_7="13000.00000" pt_clust_8="13000.00000" pt_clust_9="22.68113"></scales>
<clustering>
<clus scale="   22.681">  1  9  2 -1</clus>
<clus scale="   77.788">  5  6 -1 -1</clus>
<clus scale="   90.805">  7  8 -1 -1</clus>
<clus scale="   94.017">  1  5  2 -1</clus>
<clus scale="   22.681">  1  5  2 -1</clus>
</clustering>
</event>
<event>
 9    1  0.2951046E-005  0.1008674E+03  0.7546771E-02  0.1284739E+00
          1   -1    0    0  502    0  0.00000000000E+00  0.00000000000E+00  0.73868394362E+03  0.73868394362E+03  0.00000000000E+00 0. -1.
         -2   -1    0    0    0  501 -0.00000000000E+00 -0.00000000000E+00 -0.30340190174E+02  0.30340190174E+02  0.00000000000E+00 0.  1.
         23    2    1    2    0    0  0.91740992459E+01  0.39070592230E+02  0.81257784417E+02  0.12800625320E+03  0.90399657393E+02 0.  0.
        -24    2    1    2    0    0 -0.14052400369E+01 -0.67832336775E+02  0.49377590517E+03  0.50441932186E+03  0.77595148832E+02 0.  0.
         11    1    4    4    0    0  0.36889709003E+02 -0.43808700984E+02  0.24873595109E+03  0.25524424827E+03  0.00000000000E+00 0. -1.
        -12    1    4    4    0    0 -0.38294949040E+02 -0.24023635792E+02  0.24503995409E+03  0.24917507359E+03  0.00000000000E+00 0.  1.
        -13    1    3    3    0    0  0.20615999923E+01 -0.25237832929E+02  0.50227494768E+02  0.56249441208E+02  0.00000000000E+00 0. -1.
         13    1    3    3    0    0  0.71124992536E+01  0.64308425160E+02  0.31030289649E+02  0.71756811996E+02  0.00000000000E+00 0.  1.
         21    1    1    2  502  501 -0.77688592089E+01  0.28761744545E+02  0.13331006385E+03  0.13659855873E+03  0.00000000000E+00 0.  1.
<scales pt_clust_5="13000.00000" pt_clust_6="13000.00000" pt_clust_7="13000.00000" pt_clust_8="13000.00000" pt_clust_9="29.79250"></scales>
<clustering>
<clus scale="   29.793">  1  9  2 -1</clus>
<clus scale="   77.595">  5  6 -1 -1</clus>
<clus scale="   89.572">  1  5  2 -1</clus>
<clus scale="   90.400">  7  8 -1 -1</clus>
<clus scale="   29.793">  1  5  2 -1</clus>
</clustering>
</event>
<event>
 9    1  0.2951046E-005  0.1075693E+03  0.7546771E-02  0.1269896E+00
         -2   -1    0    0    0  501 -0.00000000000E+00  0.00000000000E+00  0.45079928681E+03  0.45079928681E+03  0.00000000000E+00 0.  1.
          1   -1    0    0  502    0  0.00000000000E+00 -0.00000000000E+00 -0.71342897025E+02  0.71342897025E+02  0.00000000000E+00 0. -1.
        -24    2    1    2    0    0 -0.50901541228E+02  0.22855680451E+02  0.31712003379E+03  0.33177028219E+03  0.79956583736E+02 0.  0.
         23    2    1    2    0    0  0.45016715019E+02 -0.44395622033E+02  0.98100004561E+02  0.14820984737E+03  0.91351366032E+02 0.  0.
         13    1    3    3    0    0 -0.54500589265E+01 -0.22462017998E+02  0.31754863345E+02  0.39276159956E+02  0.00000000000E+00 0. -1.
        -14    1    3    3    0    0 -0.45451482301E+02  0.45317698448E+02  0.28536517044E+03  0.29249412223E+03  0.00000000000E+00 0.  1.
        -11    1    4    4    0    0  0.57916386346E+02 -0.37338697294E-01  0.79616339363E+02  0.98453393518E+02  0.00000000000E+00 0. -1.
         11    1    4    4    0    0 -0.12899671327E+02 -0.44358283335E+02  0.18483665198E+02  0.49756453852E+02  0.00000000000E+00 0.  1.
         21    1    1    2  502  501  0.58848262089E+01  0.21539941582E+02 -0.35763648561E+02  0.42162054282E+02  0.00000000000E+00 0. -1.
<scales pt_clust_5="13000.00000" pt_clust_6="13000.00000" pt_clust_7="13000.00000" pt_clust_8="13000.00000" pt_clust_9="22.32936"></scales>
<clustering>
<clus scale="   22.329">  2  9  1 -1</clus>
<clus scale="   79.957">  5  6 -1 -1</clus>
<clus scale="   91.351">  7  8 -1 -1</clus>
<clus scale="   98.077">  1  5  2 -1</clus>
<clus scale="   22.329">  2  5  1 -1</clus>
</clustering>
</event>
<event>
 9    1  0.2951046E-005  0.8740005E+02  0.7546771E-02  0.1313434E+00
          1   -1    0    0  502    0  0.00000000000E+00  0.00000000000E+00  0.15596955985E+03  0.15596955985E+03  0.00000000000E+00 0. -1.
         -2   -1    0    0    0  501 -0.00000000000E+00 -0.00000000000E+00 -0.15399784123E+03  0.15399784123E+03  0.00000000000E+00 0.  1.
        -24    2    1    2    0    0 -0.82585193918E+01  0.12994618575E+02 -0.11138329888E+03  0.13817658402E+03  0.80308566460E+02 0.  0.
         23    2    1    2    0    0 -0.18170911686E+01  0.15648675276E+02  0.49484175654E+02  0.10106995274E+03  0.86707951467E+02 0.  0.
         11    1    3    3    0    0 -0.35716207712E+02  0.23262918382E+02 -0.31258209908E+02  0.52857227998E+02  0.00000000000E+00 0. -1.
        -12    1    3    3    0    0  0.27457688320E+02 -0.10268299807E+02 -0.80125088977E+02  0.85319356024E+02  0.00000000000E+00 0.  1.
        -11    1    4    4    0    0  0.14047034258E+02  0.30834719784E+02 -0.11870987851E+02  0.35902917265E+02  0.00000000000E+00 0.  1.
         11    1    4    4    0    0 -0.15864125426E+02 -0.15186044508E+02  0.61355163505E+02  0.65167035471E+02  0.00000000000E+00 0. -1.
         21    1    1    2  502  501  0.10075610560E+02 -0.28643293851E+02  0.63870841854E+02  0.70720864318E+02  0.00000000000E+00 0. -1.
<scales pt_clust_5="13000.00000" pt_clust_6="13000.00000" pt_clust_7="13000.00000" pt_clust_8="13000.00000" pt_clust_9="30.36373"></scales>
<clustering>
<clus scale="   30.364">  1  9  2 -1</clus>
<clus scale="   80.309">  5  6 -1 -1</clus>
<clus scale="   81.055">  2  5  1 -1</clus>
<clus scale="   86.708">  7  8 -1 -1</clus>
<clus scale="   30.364">  1  5  2 -1</clus>
</clustering>
</event>
<event>
 9    1  0.2951046E-005  0.2109353E+03  0.7546771E-02  0.1141552E+00
         -2   -1    0    0    0  501 -0.00000000000E+00  0.00000000000E+00  0.30490468628E+03  0.30490468628E+03  0.00000000000E+00 0.  1.
          1   -1    0    0  502    0  0.00000000000E+00 -0.00000000000E+00 -0.43628133989E+03  0.43628133989E+03  0.00000000000E+00 0. -1.
         23    2    1    2    0    0  0.75005072229E+02  0.17135752703E+03  0.21712342110E+03  0.30094677039E+03  0.91854317758E+02 0.  0.
        -24    2    1    2    0    0 -0.87277527599E+02 -0.18991127754E+03 -0.23781838619E+03  0.32734421164E+03  0.83144380001E+02 0.  0.
         13    1    4    4    0    0 -0.16801504280E+02 -0.10796928309E+03 -0.16166844276E+03  0.19513160180E+03  0.00000000000E+00 0. -1.
        -14    1    4    4    0    0 -0.70476023318E+02 -0.81941994446E+02 -0.76149943434E+02  0.13221260984E+03  0.00000000000E+00 0.  1.
        -13    1    3    3    0    0  0.81921235222E+02  0.74534638911E+02  0.10461116669E+03  0.15234827657E+03  0.00000000000E+00 0.  1.
         13    1    3    3    0    0 -0.69161629929E+01  0.96822888115E+02  0.11251225441E+03  0.14859849382E+03  0.00000000000E+00 0. -1.
         21    1    1    2  502  501  0.12272455370E+02  0.18553750514E+02 -0.11068168851E+03  0.11289504414E+03  0.00000000000E+00 0.  1.
<scales pt_clust_5="13000.00000" pt_clust_6="13000.00000" pt_clust_7="13000.00000" pt_clust_8="13000.00000" pt_clust_9="22.24533"></scales>
<clustering>
<clus scale="   22.245">  2  9  1 -1</clus>
<clus scale="   83.144">  5  6 -1 -1</clus>
<clus scale="   91.854">  7  8 -1 -1</clus>
<clus scale="  207.291">  2  5  1 -1</clus>
<clus scale="   22.245">  2  5  1 -1</clus>
</clustering>
</event>
<event>
 9    1  0.2951046E-005  0.9838646E+02  0.7546771E-02  0.1290109E+00
          1   -1    0    0  502    0  0.00000000000E+00  0.00000000000E+00  0.13445311038E+03  0.13445311038E+03  0.00000000000E+00 0. -1.
         -2   -1    0    0    0  501 -0.00000000000E+00 -0.00000000000E+00 -0.22702290600E+03  0.22702290600E+03  0.00000000000E+00 0.  1.
         23    2    1    2    0    0 -0.51758552047E+01  0.38321336718E+02 -0.16988252296E+03  0.19713111186E+03  0.92224125540E+02 0.  0.
        -24    2    1    2    0    0 -0.12182554037E+02 -0.21641044200E+02  0.65322282993E+00  0.83994259470E+02  0.80236273013E+02 0.  0.
         11    1    4    4    0    0 -0.18782745503E+02 -0.22357444843E+02  0.36950118434E+02  0.47095202737E+02  0.00000000000E+00 0. -1.
        -12    1    4    4    0    0  0.66001914659E+01  0.71640064335E+00 -0.36296895604E+02  0.36899056733E+02  0.00000000000E+00 0.  1.
        -11    1    3    3    0    0 -0.34449169512E+02  0.30998863014E+02 -0.15807462257E+03  0.16472783944E+03  0.00000000000E+00 0.  1.
         11    1    3    3    0    0  0.29273314307E+02  0.73224737039E+01 -0.11807900393E+02  0.32403272418E+02  0.00000000000E+00 0. -1.
         21    1    1    2  502  501  0.17358409242E+02 -0.16680292518E+02  0.76659504509E+02  0.80350645059E+02  0.00000000000E+00 0.  1.
<scales pt_clust_5="13000.00000" pt_clust_6="13000.00000" pt_clust_7="13000.00000" pt_clust_8="13000.00000" pt_clust_9="24.07377"></scales>
<clustering>
<clus scale="   24.074">  1  9  2 -1</clus>
<clus scale="   80.236">  5  6 -1 -1</clus>
<clus scale="   87.249">  1  5  2 -1</clus>
<clus scale="   92.224">  7  8 -1 -1</clus>
<clus scale="   24.074">  1  5  2 -1</clus>
</clustering>
</event>
<event>
 9    1  0.2951046E-005  0.1063064E+03  0.7546771E-02  0.1269621E+00
          1   -1    0    0  502    0  0.00000000000E+00  0.00000000000E+00  0.33340201054E+03  0.33340201054E+03  0.00000000000E+00 0. -1.
         -2   -1    0    0    0  501 -0.00000000000E+00 -0.00000000000E+00 -0.55937795382E+02  0.55937795382E+02  0.00000000000E+00 0.  1.
        -24    2    1    2    0    0  0.34144634845E+02  0.40175571635E+02  0.35010788302E+02  0.10590572787E+03  0.84913692963E+02 0.  0.
         23    2    1    2    0    0 -0.21755040148E+02 -0.68887976025E+02  0.18397172421E+03  0.21711655573E+03  0.89861941067E+02 0.  0.
         13    1    3    3    0    0  0.60968540599E+02  0.31917044031E+02  0.36309995620E+02  0.77809230972E+02  0.00000000000E+00 0. -1.
        -14    1    3    3    0    0 -0.26823905754E+02  0.82585276040E+01 -0.12992073184E+01  0.28096496895E+02  0.00000000000E+00 0.  1.
        -11    1    4    4    0    0  0.43758724340E+01 -0.25443436913E+02 -0.48299799881E+00  0.25821503220E+02  0.00000000000E+00 0.  1.
         11    1    4    4    0    0 -0.26130912582E+02 -0.43444539112E+02  0.18445472221E+03  0.19129505251E+03  0.00000000000E+00 0. -1.
         21    1    1    2  502  501 -0.12389594697E+02  0.28712404390E+02  0.58481702651E+02  0.66317522327E+02  0.00000000000E+00 0.  1.
<scales pt_clust_5="13000.00000" pt_clust_6="13000.00000" pt_clust_7="13000.00000" pt_clust_8="13000.00000" pt_clust_9="31.27146"></scales>
<clustering>
<clus scale="   31.271">  1  9  2 -1</clus>
<clus scale="   84.914">  5  6 -1 -1</clus>
<clus scale="   89.862">  7  8 -1 -1</clus>
<clus scale="  102.158">  2  5  1 -1</clus>
<clus scale="   31.271">  1  5  2 -1</clus>
</clustering>
</event>
<event>
 9    1  0.2951046E-005  0.1000843E+03  0.7546771E-02  0.1287776E+00
          1   -1    0    0  502    0  0.00000000000E+00  0.00000000000E+00  0.18151751107E+03  0.18151751107E+03  0.00000000000E+00 0. -1.
         -2   -1    0    0    0  501 -0.00000000000E+00 -0.00000000000E+00 -0.14564063165E+03  0.14564063165E+03  0.00000000000E+00 0.  1.
        -24    2    1    2    0    0 -0.33217708633E+02 -0.22834508332E+02 -0.81077606770E+02  0.11992021300E+03  0.78628545885E+02 0.  0.
         23    2    1    2    0    0 -0.23344775165E+02  0.45645872370E+02  0.94211108569E+02  0.14214619347E+03  0.93280668673E+02 0.  0.
         11    1    3    3    0    0  0.15194389387E+02  0.18519846714E+02 -0.29354626268E+02  0.37888629884E+02  0.00000000000E+00 0. -1.
        -12    1    3    3    0    0 -0.48412098019E+02 -0.41354355046E+02 -0.51722980503E+02  0.82031583113E+02  0.00000000000E+00 0.  1.
        -11    1    4    4    0    0 -0.36861337251E+02 -0.92312959374E+01  0.76405407408E+01  0.38760196999E+02  0.00000000000E+00 0.  1.
         11    1    4    4    0    0  0.13516562085E+02  0.54877168307E+02  0.86570567829E+02  0.10338599647E+03  0.00000000000E+00 0. -1.
         21    1    1    2  502  501  0.56562483798E+02 -0.22811364038E+02  0.22743377626E+02  0.65091736254E+02  0.00000000000E+00 0. -1.
<scales pt_clust_5="13000.00000" pt_clust_6="13000.00000" pt_clust_7="13000.00000" pt_clust_8="13000.00000" pt_clust_9="60.98912"></scales>
<clustering>
<clus scale="   60.989">  1  9  2 -1</clus>
<clus scale="   78.629">  5  6 -1 -1</clus>
<clus scale="   86.591">  2  5  1 -1</clus>
<clus scale="   93.281">  7  8 -1 -1</clus>
<clus scale="   60.989">  1  5  2 -1</clus>
</clustering>
</event>
<event>
 9    1  0.2951046E-005  0.9268368E+02  0.7546771E-02  0.1303457E+00
         -2   -1    0    0    0  501 -0.00000000000E+00  0.00000000000E+00  0.18858375868E+03  0.18858375868E+03  0.00000000000E+00 0.  1.
          1   -1    0    0  502    0  0.00000000000E+00 -0.00000000000E+00 -0.69257205425E+02  0.69257205425E+02  0.00000000000E+00 0. -1.
         23    2    1    2    0    0  0.87914400568E+01  0.95585391346E+01  0.11731977186E+03  0.14920446677E+03  0.91265486069E+02 0.  0.
        -24    2    1    2    0    0  0.29412382332E+01 -0.29670017835E+02  0.31879249014E+01  0.85322930140E+02  0.79880402489E+02 0.  0.
         13    1    4    4    0    0  0.38805165976E+01  0.26572923732E+02 -0.78939056694E+01  0.27990934808E+02  0.00000000000E+00 0. -1.
        -14    1    4    4    0    0 -0.93927836434E+00 -0.56242941566E+02  0.11081830571E+02  0.57331995331E+02  0.00000000000E+00 0.  1.
        -13    1    3    3    0    0  0.32206736355E+02  0.83970106173E+01  0.12098133845E+03  0.12547616470E+03  0.00000000000E+00 0.  1.
         13    1    3    3    0    0 -0.23415296299E+02  0.11615285173E+01 -0.36615665967E+01  0.23728302071E+02  0.00000000000E+00 0. -1.
         21    1    1    2  502  501 -0.11732678290E+02  0.20111478700E+02 -0.11811435014E+01  0.23313567195E+02  0.00000000000E+00 0. -1.
<scales pt_clust_5="13000.00000" pt_clust_6="13000.00000" pt_clust_7="13000.00000" pt_clust_8="13000.00000" pt_clust_9="23.28363"></scales>
<clustering>
<clus scale="   23.284">  2  9  1 -1</clus>
<clus scale="   79.880">  5  6 -1 -1</clus>
<clus scale="   81.497">  2  5  1 -1</clus>
<clus scale="   91.265">  7  8 -1 -1</clus>
<clus scale="   23.284">  2  5  1 -1</clus>
</clustering>
</event>
<event>
 9    1  0.2951046E-005  0.3302621E+03  0.7546771E-02  0.1123571E+00
          1   -1    0    0  502    0  0.00000000000E+00  0.00000000000E+00  0.42596217691E+03  0.42596217691E+03  0.00000000000E+00 0. -1.
         -2   -1    0    0    0  501 -0.00000000000E+00 -0.00000000000E+00 -0.65995796205E+03  0.65995796205E+03  0.00000000000E+00 0.  1.
        -24    2    1    2    0    0 -0.14304502744E+02  0.11021034459E+02 -0.39312285585E+03  0.40195975387E+03  0.81853417419E+02 0.  0.
         23    2    1    2    0    0  0.50194548164E+02  0.31049409351E+03  0.15162323753E+03  0.36036128067E+03  0.89132326767E+02 0.  0.
         11    1    3    3    0    0  0.33151710840E+02  0.11741901091E+02 -0.13476220818E+03  0.13927584474E+03  0.00000000000E+00 0. -1.
        -12    1    3    3    0    0 -0.47456213584E+02 -0.72086663228E+00 -0.25836064766E+03  0.26268390913E+03  0.00000000000E+00 0.  1.
        -13    1    4    4    0    0  0.14089864426E+02  0.24586535011E+03  0.14559178260E+03  0.28608610911E+03  0.00000000000E+00 0. -1.
         13    1    4    4    0    0  0.36104683737E+02  0.64628743404E+02  0.60314549268E+01  0.74275171560E+02  0.00000000000E+00 0.  1.
         21    1    1    2  502  501 -0.35890045419E+02 -0.32151512797E+03  0.75038331730E+01  0.32359910443E+03  0.00000000000E+00 0.  1.
<scales pt_clust_5="13000.00000" pt_clust_6="13000.00000" pt_clust_7="13000.00000" pt_clust_8="13000.00000" pt_clust_9="318.00708"></scales>
<clustering>
<clus scale="   81.853">  5  6 -1 -1</clus>
<clus scale="   83.822">  2  5  1 -1</clus>
<clus scale="   89.132">  7  8 -1 -1</clus>
<clus scale="  318.007">  2  9  1 -1</clus>
<clus scale="  330.262">  1  5  2 -1</clus>
</clustering>
</event>
<event>
 9    1  0.2951046E-005  0.2534727E+03  0.7546771E-02  0.1111895E+00
         -2   -1    0    0    0  501 -0.00000000000E+00  0.00000000000E+00  0.11017183250E+03  0.11017183250E+03  0.00000000000E+00 0.  1.
          1   -1    0    0  502    0  0.00000000000E+00 -0.00000000000E+00 -0.13012810335E+04  0.13012810335E+04  0.00000000000E+00 0. -1.
        -24    2    1    2    0    0 -0.14681997036E+03  0.19255620583E+03 -0.77100224036E+02  0.26619615066E+03  0.79258753317E+02 0.  0.
         23    2    1    2    0    0  0.13249631053E+03 -0.15086581687E+03 -0.91420178028E+03  0.94064446837E+03  0.93441713386E+02 0.  0.
         13    1    3    3    0    0 -0.70977522585E+02  0.12967638823E+03 -0.79089779155E+02  0.16765729194E+03  0.00000000000E+00 0. -1.
        -14    1    3    3    0    0 -0.75842447774E+02  0.62879817605E+02  0.19895551192E+01  0.98538858711E+02  0.00000000000E+00 0.  1.
        -13    1    4    4    0    0  0.70134879404E+02 -0.15725897190E+02 -0.33518403053E+03  0.34280393737E+03  0.00000000000E+00 0.  1.
         13    1    4    4    0    0  0.62361431122E+02 -0.13513991968E+03 -0.57901774975E+03  0.59784053100E+03  0.00000000000E+00 0. -1.
         21    1    1    2  502  501  0.14323659833E+02 -0.41690388963E+02 -0.19980719669E+03  0.20461224697E+03  0.00000000000E+00 0.  1.
<scales pt_clust_5="13000.00000" pt_clust_6="13000.00000" pt_clust_7="13000.00000" pt_clust_8="13000.00000" pt_clust_9="44.08237"></scales>
<clustering>
<clus scale="   44.082">  2  9  1 -1</clus>
<clus scale="   79.259">  5  6 -1 -1</clus>
<clus scale="   93.442">  7  8 -1 -1</clus>
<clus scale="  248.594">  1  5  2 -1</clus>
<clus scale="   44.082">  2  5  1 -1</clus>
</clustering>
</event>
<event>
 9    1  0.2951046E-005  0.1050957E+03  0.7546771E-02  0.1274906E+00
          1   -1    0    0  502    0  0.00000000000E+00  0.00000000000E+00  0.40992345966E+03  0.40992345966E+03  0.00000000000E+00 0. -1.
         -2   -1    0    0    0  501 -0.00000000000E+00 -0.00000000000E+00 -0.92279275611E+02  0.92279275611E+02  0.00000000000E+00 0.  1.
         23    2    1    2    0    0  0.53029098002E+02 -0.34487916686E+02 -0.32027737345E+02  0.11567967220E+03  0.91403003055E+02 0.  0.
        -24    2    1    2    0    0 -0.52012844002E+01 -0.26536610276E+02  0.21617452210E+03  0.23214350399E+03  0.80174418589E+02 0.  0.
         13    1    4    4    0    0 -0.30507933941E+02 -0.44192972500E+02  0.14124401787E+03  0.15110799263E+03  0.00000000000E+00 0. -1.
        -14    1    4    4    0    0  0.25306649541E+02  0.17656362224E+02  0.74930504226E+02  0.81035511361E+02  0.00000000000E+00 0.  1.
        -11    1    3    3    0    0  0.42514214966E+01 -0.53287672424E+02 -0.34024253493E+02  0.63366398374E+02  0.00000000000E+00 0.  1.
         11    1    3    3    0    0  0.48777676506E+02  0.18799755738E+02  0.19965161481E+01  0.52313273821E+02  0.00000000000E+00 0. -1.
         21    1    1    2  502  501 -0.47827813602E+02  0.61024526962E+02  0.13349739930E+03  0.15437955909E+03  0.00000000000E+00 0. -1.
<scales pt_clust_5="13000.00000" pt_clust_6="13000.00000" pt_clust_7="13000.00000" pt_clust_8="13000.00000" pt_clust_9="77.53382"></scales>
<clustering>
<clus scale="   77.534">  1  9  2 -1</clus>
<clus scale="   80.174">  5  6 -1 -1</clus>
<clus scale="   91.403">  7  8 -1 -1</clus>
<clus scale="   95.491">  1  5  2 -1</clus>
<clus scale="   77.534">  1  5  2 -1</clus>
</clustering>
</event>
